<event>
 7    1  0.1246400E-009  0.4778727E+02  0.7816164E-02  0.1312668E+00
        -11   -1    0    0    0    0  0.00000000000E+00  0.00000000000E+00  0.45593999997E+02  0.45594000000E+02  0.51100000000E-03 0.  1.
         11   -1    0    0    0    0 -0.00000000000E+00 -0.00000000000E+00 -0.45593999997E+02  0.45594000000E+02  0.51100000000E-03 0. -1.
    9900012    2    1    2    0    0 -0.20619671894E+02 -0.29622105508E+02  0.24103594594E+02  0.47787271019E+02  0.19999999886E+02 0.  0.
         12    1    1    2    0    0  0.20619671894E+02  0.29622105508E+02 -0.24103594594E+02  0.43400728981E+02  0.00000000000E+00 0. -1.
         11    1    3    3    0    0 -0.33387124640E+01 -0.98348648628E+01  0.31356511398E+01  0.10849141723E+02  0.51100000000E-03 0. -1.
        -11    1    3    3    0    0 -0.11162383938E+02 -0.19052441450E+02  0.97486077408E+01  0.24137723454E+02  0.51100000000E-03 0.  1.
         12    1    3    3    0    0 -0.61185754918E+01 -0.73479919469E+00  0.11219335713E+02  0.12800405843E+02  0.00000000000E+00 0. -1.
</event>
<event>
 7    1  0.1246400E-009  0.4778726E+02  0.7816164E-02  0.1312668E+00
        -11   -1    0    0    0    0  0.00000000000E+00  0.00000000000E+00  0.45593999997E+02  0.45594000000E+02  0.51100000000E-03 0.  1.
         11   -1    0    0    0    0 -0.00000000000E+00 -0.00000000000E+00 -0.45593999997E+02  0.45594000000E+02  0.51100000000E-03 0. -1.
    9900012    2    1    2    0    0 -0.26904216391E+02 -0.20754310344E+02  0.27000847240E+02  0.47787262574E+02  0.19999961378E+02 0.  0.
         12    1    1    2    0    0  0.26904216391E+02  0.20754310344E+02 -0.27000847240E+02  0.43400737426E+02  0.00000000000E+00 0. -1.
         11    1    3    3    0    0 -0.12700261719E+02 -0.97523713793E+01  0.19528560206E+02  0.25254109749E+02  0.51100000000E-03 0. -1.
        -11    1    3    3    0    0 -0.16072180482E+02 -0.87310248120E+01  0.60385132810E+01  0.19261604882E+02  0.51100000000E-03 0.  1.
         12    1    3    3    0    0  0.18682258097E+01 -0.22709141527E+01  0.14337737529E+01  0.32715479424E+01  0.00000000000E+00 0. -1.
</event>
<event>
 7    1  0.1246400E-009  0.4778727E+02  0.7816164E-02  0.1312668E+00
        -11   -1    0    0    0    0  0.00000000000E+00  0.00000000000E+00  0.45593999997E+02  0.45594000000E+02  0.51100000000E-03 0. -1.
         11   -1    0    0    0    0 -0.00000000000E+00 -0.00000000000E+00 -0.45593999997E+02  0.45594000000E+02  0.51100000000E-03 0.  1.
    9900012    2    1    2    0    0 -0.37812145808E+02 -0.67351699318E+01  0.20211441340E+02  0.47787271369E+02  0.20000001481E+02 0.  0.
         12    1    1    2    0    0  0.37812145808E+02  0.67351699318E+01 -0.20211441340E+02  0.43400728631E+02  0.00000000000E+00 0. -1.
         11    1    3    3    0    0 -0.17219546003E+02  0.31611502196E-01  0.15344626413E+02  0.23064503547E+02  0.51100000000E-03 0. -1.
        -11    1    3    3    0    0 -0.44771438976E+01  0.21366906174E+01 -0.15940011365E+01  0.52106721408E+01  0.51100000000E-03 0.  1.
        -12    1    3    3    0    0 -0.16115455908E+02 -0.89034720514E+01  0.64608160635E+01  0.19512095682E+02  0.00000000000E+00 0.  1.
</event>
<event>
 7    1  0.1246400E-009  0.4778728E+02  0.7816164E-02  0.1312668E+00
        -11   -1    0    0    0    0  0.00000000000E+00  0.00000000000E+00  0.45593999997E+02  0.45594000000E+02  0.51100000000E-03 0.  1.
         11   -1    0    0    0    0 -0.00000000000E+00 -0.00000000000E+00 -0.45593999997E+02  0.45594000000E+02  0.51100000000E-03 0. -1.
    9900012    2    1    2    0    0  0.30328647812E+02 -0.22041425588E+02  0.21862560720E+02  0.47787275568E+02  0.20000020624E+02 0.  0.
         12    1    1    2    0    0 -0.30328647812E+02  0.22041425588E+02 -0.21862560720E+02  0.43400724432E+02  0.00000000000E+00 0. -1.
         11    1    3    3    0    0  0.21013684174E+01 -0.23808900200E+01  0.22975082737E+01  0.39195575059E+01  0.51100000000E-03 0.  1.
        -11    1    3    3    0    0 -0.23388415312E+00 -0.16336344017E+01 -0.29266661997E+01  0.33598866739E+01  0.51100000000E-03 0. -1.
         12    1    3    3    0    0  0.28461163548E+02 -0.18026901166E+02  0.22491718646E+02  0.40507831388E+02  0.00000000000E+00 0. -1.
</event>
<event>
 7    1  0.1246400E-009  0.4778727E+02  0.7816164E-02  0.1312668E+00
        -11   -1    0    0    0    0  0.00000000000E+00  0.00000000000E+00  0.45593999997E+02  0.45594000000E+02  0.51100000000E-03 0.  1.
         11   -1    0    0    0    0 -0.00000000000E+00 -0.00000000000E+00 -0.45593999997E+02  0.45594000000E+02  0.51100000000E-03 0. -1.
    9900012    2    1    2    0    0  0.36627019744E+02  0.22860644124E+02  0.44131211343E+01  0.47787271167E+02  0.20000000559E+02 0.  0.
         12    1    1    2    0    0 -0.36627019744E+02 -0.22860644124E+02 -0.44131211343E+01  0.43400728833E+02  0.00000000000E+00 0. -1.
         11    1    3    3    0    0  0.94116732463E+01  0.39137775597E+01  0.62824436754E+00  0.10212342500E+02  0.51100000000E-03 0. -1.
        -11    1    3    3    0    0  0.13614715519E+02  0.23935741131E+01  0.76589488459E+01  0.15803454476E+02  0.51100000000E-03 0.  1.
        -12    1    3    3    0    0  0.13600630979E+02  0.16553292451E+02 -0.38740720791E+01  0.21771474191E+02  0.00000000000E+00 0.  1.
</event>
<event>
 7    1  0.1246400E-009  0.4778727E+02  0.7816164E-02  0.1312668E+00
        -11   -1    0    0    0    0  0.00000000000E+00  0.00000000000E+00  0.45593999997E+02  0.45594000000E+02  0.51100000000E-03 0. -1.
         11   -1    0    0    0    0 -0.00000000000E+00 -0.00000000000E+00 -0.45593999997E+02  0.45594000000E+02  0.51100000000E-03 0.  1.
    9900012    2    1    2    0    0  0.42103862689E+02  0.30296584363E+01 -0.10085100528E+02  0.47787270326E+02  0.19999996726E+02 0.  0.
         12    1    1    2    0    0 -0.42103862689E+02 -0.30296584363E+01  0.10085100528E+02  0.43400729674E+02  0.00000000000E+00 0. -1.
         11    1    3    3    0    0  0.88445020660E+01  0.57878486041E+01 -0.54302681487E+01  0.11883274830E+02  0.51100000000E-03 0. -1.
        -11    1    3    3    0    0  0.29445511461E+01  0.31061981129E+01 -0.24893199376E+01  0.49513192364E+01  0.51100000000E-03 0.  1.
        -12    1    3    3    0    0  0.30314809477E+02 -0.58643882807E+01 -0.21655124419E+01  0.30952676260E+02  0.00000000000E+00 0.  1.
</event>
<event>
 7    1  0.1246400E-009  0.4778727E+02  0.7816164E-02  0.1312668E+00
        -11   -1    0    0    0    0  0.00000000000E+00  0.00000000000E+00  0.45593999997E+02  0.45594000000E+02  0.51100000000E-03 0. -1.
         11   -1    0    0    0    0 -0.00000000000E+00 -0.00000000000E+00 -0.45593999997E+02  0.45594000000E+02  0.51100000000E-03 0.  1.
    9900012    2    1    2    0    0  0.15357206793E+02 -0.16813327031E+02 -0.36947143571E+02  0.47787272075E+02  0.20000004700E+02 0.  0.
         12    1    1    2    0    0 -0.15357206793E+02  0.16813327031E+02  0.36947143571E+02  0.43400727925E+02  0.00000000000E+00 0. -1.
         11    1    3    3    0    0 -0.41897855088E+01 -0.30422287429E+01 -0.66475068431E+01  0.84260789116E+01  0.51100000000E-03 0. -1.
        -11    1    3    3    0    0  0.93254808899E+01 -0.74493655239E+01 -0.91654270809E+01  0.15048677496E+02  0.51100000000E-03 0.  1.
        -12    1    3    3    0    0  0.10221511412E+02 -0.63217327640E+01 -0.21134209647E+02  0.24312515668E+02  0.00000000000E+00 0.  1.
</event>
<event>
 7    1  0.1246400E-009  0.4778727E+02  0.7816164E-02  0.1312668E+00
        -11   -1    0    0    0    0  0.00000000000E+00  0.00000000000E+00  0.45593999997E+02  0.45594000000E+02  0.51100000000E-03 0.  1.
         11   -1    0    0    0    0 -0.00000000000E+00 -0.00000000000E+00 -0.45593999997E+02  0.45594000000E+02  0.51100000000E-03 0. -1.
    9900012    2    1    2    0    0 -0.37294735612E+02 -0.11803685443E+02 -0.18798901020E+02  0.47787274499E+02  0.20000015753E+02 0.  0.
         12    1    1    2    0    0  0.37294735612E+02  0.11803685443E+02  0.18798901020E+02  0.43400725501E+02  0.00000000000E+00 0. -1.
         11    1    3    3    0    0 -0.20325277412E+02 -0.12122385629E+02 -0.16740470045E+02  0.28988143659E+02  0.51100000000E-03 0. -1.
        -11    1    3    3    0    0 -0.11749709118E+02 -0.31296493470E+01  0.16304704695E+00  0.12160466849E+02  0.51100000000E-03 0.  1.
         12    1    3    3    0    0 -0.52197490822E+01  0.34483495331E+01 -0.22214780219E+01  0.66386639910E+01  0.00000000000E+00 0. -1.
</event>
<event>
 7    1  0.1246400E-009  0.4778727E+02  0.7816164E-02  0.1312668E+00
        -11   -1    0    0    0    0  0.00000000000E+00  0.00000000000E+00  0.45593999997E+02  0.45594000000E+02  0.51100000000E-03 0.  1.
         11   -1    0    0    0    0 -0.00000000000E+00 -0.00000000000E+00 -0.45593999997E+02  0.45594000000E+02  0.51100000000E-03 0. -1.
    9900012    2    1    2    0    0  0.44743876190E+01 -0.74538947275E+01  0.42521084995E+02  0.47787270048E+02  0.19999995457E+02 0.  0.
         12    1    1    2    0    0 -0.44743876190E+01  0.74538947275E+01 -0.42521084995E+02  0.43400729952E+02  0.00000000000E+00 0. -1.
         11    1    3    3    0    0  0.54593492073E+01 -0.34485018690E+01  0.44873650909E+01  0.78634028657E+01  0.51100000000E-03 0. -1.
        -11    1    3    3    0    0  0.34595953702E+01 -0.55113181877E+01  0.29250981030E+02  0.29966036104E+02  0.51100000000E-03 0.  1.
         12    1    3    3    0    0 -0.44445569586E+01  0.15059253292E+01  0.87827388743E+01  0.99578310786E+01  0.00000000000E+00 0. -1.
</event>
<event>
 7    1  0.1246400E-009  0.4778727E+02  0.7816164E-02  0.1312668E+00
        -11   -1    0    0    0    0  0.00000000000E+00  0.00000000000E+00  0.45593999997E+02  0.45594000000E+02  0.51100000000E-03 0.  1.
         11   -1    0    0    0    0 -0.00000000000E+00 -0.00000000000E+00 -0.45593999997E+02  0.45594000000E+02  0.51100000000E-03 0. -1.
    9900012    2    1    2    0    0 -0.43468459199E+01  0.12951586974E+02  0.41194475467E+02  0.47787268629E+02  0.19999988986E+02 0.  0.
         12    1    1    2    0    0  0.43468459199E+01 -0.12951586974E+02 -0.41194475467E+02  0.43400731371E+02  0.00000000000E+00 0. -1.
         11    1    3    3    0    0  0.44867709592E+00 -0.19012748573E+01 -0.35843336352E-01  0.19538275833E+01  0.51100000000E-03 0. -1.
        -11    1    3    3    0    0 -0.76962926317E+01  0.85935149302E+01  0.16320852284E+02  0.19986286265E+02  0.51100000000E-03 0.  1.
        -12    1    3    3    0    0  0.29007696159E+01  0.62593469008E+01  0.24909466519E+02  0.25847154780E+02  0.00000000000E+00 0.  1.
</event>
<event>
 7    1  0.1246400E-009  0.4778728E+02  0.7816164E-02  0.1312668E+00
        -11   -1    0    0    0    0  0.00000000000E+00  0.00000000000E+00  0.45593999997E+02  0.45594000000E+02  0.51100000000E-03 0.  1.
         11   -1    0    0    0    0 -0.00000000000E+00 -0.00000000000E+00 -0.45593999997E+02  0.45594000000E+02  0.51100000000E-03 0. -1.
    9900012    2    1    2    0    0 -0.23510296421E+02 -0.35845650734E+02 -0.67807051076E+01  0.47787277931E+02  0.20000031399E+02 0.  0.
         12    1    1    2    0    0  0.23510296421E+02  0.35845650734E+02  0.67807051076E+01  0.43400722069E+02  0.00000000000E+00 0. -1.
         11    1    3    3    0    0 -0.11070443836E+02 -0.91187786892E+01 -0.81979595667E+00  0.14365894235E+02  0.51100000000E-03 0. -1.
        -11    1    3    3    0    0 -0.10999110149E+02 -0.28134822250E+02 -0.72022976135E+01  0.31055140288E+02  0.51100000000E-03 0.  1.
         12    1    3    3    0    0 -0.14407424370E+01  0.14079502058E+01  0.12413884626E+01  0.23662434082E+01  0.00000000000E+00 0. -1.
</event>
<event>
 7    1  0.1246400E-009  0.4778726E+02  0.7816164E-02  0.1312668E+00
        -11   -1    0    0    0    0  0.00000000000E+00  0.00000000000E+00  0.45593999997E+02  0.45594000000E+02  0.51100000000E-03 0.  1.
         11   -1    0    0    0    0 -0.00000000000E+00 -0.00000000000E+00 -0.45593999997E+02  0.45594000000E+02  0.51100000000E-03 0. -1.
    9900012    2    1    2    0    0  0.30764601612E+02  0.16670432124E+02  0.25676066624E+02  0.47787257877E+02  0.19999939964E+02 0.  0.
         12    1    1    2    0    0 -0.30764601612E+02 -0.16670432124E+02 -0.25676066624E+02  0.43400742123E+02  0.00000000000E+00 0. -1.
         11    1    3    3    0    0  0.15195019051E+02  0.11009922473E+02  0.15051008379E+02  0.24054934012E+02  0.51100000000E-03 0.  1.
        -11    1    3    3    0    0  0.97839585424E+01 -0.33058539155E+01  0.35130673156E+01  0.10908535974E+02  0.51100000000E-03 0. -1.
         12    1    3    3    0    0  0.57856240184E+01  0.89663635671E+01  0.71119909295E+01  0.12823787891E+02  0.00000000000E+00 0. -1.
</event>
<event>
 7    1  0.1246400E-009  0.4778727E+02  0.7816164E-02  0.1312668E+00
        -11   -1    0    0    0    0  0.00000000000E+00  0.00000000000E+00  0.45593999997E+02  0.45594000000E+02  0.51100000000E-03 0. -1.
         11   -1    0    0    0    0 -0.00000000000E+00 -0.00000000000E+00 -0.45593999997E+02  0.45594000000E+02  0.51100000000E-03 0.  1.
    9900012    2    1    2    0    0  0.20815899454E+02  0.70401519940E+01 -0.37426700417E+02  0.47787270579E+02  0.19999997878E+02 0.  0.
         12    1    1    2    0    0 -0.20815899454E+02 -0.70401519940E+01  0.37426700417E+02  0.43400729421E+02  0.00000000000E+00 0. -1.
         11    1    3    3    0    0  0.28111312642E+00  0.38389105176E+01 -0.10829596525E+01  0.39986323189E+01  0.51100000000E-03 0. -1.
        -11    1    3    3    0    0  0.16097886702E+02  0.44957285024E+01 -0.16770310018E+02  0.23676926097E+02  0.51100000000E-03 0.  1.
        -12    1    3    3    0    0  0.44368996251E+01 -0.12944870259E+01 -0.19573430747E+02  0.20111712164E+02  0.00000000000E+00 0.  1.
</event>
<event>
 7    1  0.1246400E-009  0.4778727E+02  0.7816164E-02  0.1312668E+00
        -11   -1    0    0    0    0  0.00000000000E+00  0.00000000000E+00  0.45593999997E+02  0.45594000000E+02  0.51100000000E-03 0.  1.
         11   -1    0    0    0    0 -0.00000000000E+00 -0.00000000000E+00 -0.45593999997E+02  0.45594000000E+02  0.51100000000E-03 0. -1.
    9900012    2    1    2    0    0  0.36889333435E+02  0.19012637914E+02  0.12701176438E+02  0.47787271842E+02  0.20000003638E+02 0.  0.
         12    1    1    2    0    0 -0.36889333435E+02 -0.19012637914E+02 -0.12701176438E+02  0.43400728158E+02  0.00000000000E+00 0. -1.
         11    1    3    3    0    0  0.91201206333E+01  0.69167564506E+01 -0.84587553637E+00  0.11477526992E+02  0.51100000000E-03 0. -1.
        -11    1    3    3    0    0  0.76021763453E+00  0.57724414617E+01  0.11906464758E+01  0.59427813835E+01  0.51100000000E-03 0.  1.
        -12    1    3    3    0    0  0.27008995167E+02  0.63234400019E+01  0.12356405498E+02  0.30366963467E+02  0.00000000000E+00 0.  1.
</event>
<event>
 7    1  0.1246400E-009  0.4778727E+02  0.7816164E-02  0.1312668E+00
        -11   -1    0    0    0    0  0.00000000000E+00  0.00000000000E+00  0.45593999997E+02  0.45594000000E+02  0.51100000000E-03 0.  1.
         11   -1    0    0    0    0 -0.00000000000E+00 -0.00000000000E+00 -0.45593999997E+02  0.45594000000E+02  0.51100000000E-03 0. -1.
    9900012    2    1    2    0    0  0.34732372715E+02 -0.17149220758E+02  0.19575229491E+02  0.47787273086E+02  0.20000009309E+02 0.  0.
         12    1    1    2    0    0 -0.34732372715E+02  0.17149220758E+02 -0.19575229491E+02  0.43400726914E+02  0.00000000000E+00 0. -1.
         11    1    3    3    0    0  0.58046753008E+01 -0.68631766537E+01  0.68956557838E+00  0.90151511399E+01  0.51100000000E-03 0. -1.
        -11    1    3    3    0    0  0.24509059273E+02 -0.13417531615E+02  0.18119912165E+02  0.33302482764E+02  0.51100000000E-03 0.  1.
        -12    1    3    3    0    0  0.44186381410E+01  0.31314875105E+01  0.76575174776E+00  0.54696391826E+01  0.00000000000E+00 0.  1.
</event>
<event>
 7    1  0.1246400E-009  0.4778727E+02  0.7816164E-02  0.1312668E+00
        -11   -1    0    0    0    0  0.00000000000E+00  0.00000000000E+00  0.45593999997E+02  0.45594000000E+02  0.51100000000E-03 0.  1.
         11   -1    0    0    0    0 -0.00000000000E+00 -0.00000000000E+00 -0.45593999997E+02  0.45594000000E+02  0.51100000000E-03 0. -1.
    9900012    2    1    2    0    0 -0.90681599139E+01 -0.36316006227E+02  0.21966784820E+02  0.47787268810E+02  0.19999989814E+02 0.  0.
         12    1    1    2    0    0  0.90681599139E+01  0.36316006227E+02 -0.21966784820E+02  0.43400731190E+02  0.00000000000E+00 0. -1.
         11    1    3    3    0    0 -0.75457214167E+01 -0.89227394590E+01  0.14032742825E+01  0.11769552673E+02  0.51100000000E-03 0. -1.
        -11    1    3    3    0    0 -0.45046259789E+01 -0.16958300327E+02  0.76285804019E+01  0.19132977928E+02  0.51100000000E-03 0.  1.
        -12    1    3    3    0    0  0.29821874817E+01 -0.10434966441E+02  0.12934930135E+02  0.16884738209E+02  0.00000000000E+00 0.  1.
</event>
<event>
 7    1  0.1246400E-009  0.4778727E+02  0.7816164E-02  0.1312668E+00
        -11   -1    0    0    0    0  0.00000000000E+00  0.00000000000E+00  0.45593999997E+02  0.45594000000E+02  0.51100000000E-03 0.  1.
         11   -1    0    0    0    0 -0.00000000000E+00 -0.00000000000E+00 -0.45593999997E+02  0.45594000000E+02  0.51100000000E-03 0. -1.
    9900012    2    1    2    0    0 -0.12644149647E+02  0.20071481238E+02  0.36343969836E+02  0.47787273937E+02  0.20000013187E+02 0.  0.
         12    1    1    2    0    0  0.12644149647E+02 -0.20071481238E+02 -0.36343969836E+02  0.43400726063E+02  0.00000000000E+00 0. -1.
         11    1    3    3    0    0 -0.18621925002E+01  0.15708979293E+02  0.24317320171E+02  0.29009857840E+02  0.51100000000E-03 0.  1.
        -11    1    3    3    0    0  0.29633727445E+00 -0.12340343194E+01 -0.27904470204E+00  0.12994316791E+01  0.51100000000E-03 0. -1.
         12    1    3    3    0    0 -0.11078294422E+02  0.55965362648E+01  0.12305694366E+02  0.17477984417E+02  0.00000000000E+00 0. -1.
</event>
<event>
 7    1  0.1246400E-009  0.4778727E+02  0.7816164E-02  0.1312668E+00
        -11   -1    0    0    0    0  0.00000000000E+00  0.00000000000E+00  0.45593999997E+02  0.45594000000E+02  0.51100000000E-03 0.  1.
         11   -1    0    0    0    0 -0.00000000000E+00 -0.00000000000E+00 -0.45593999997E+02  0.45594000000E+02  0.51100000000E-03 0. -1.
    9900012    2    1    2    0    0 -0.24202853053E+00  0.29169377269E+02  0.32135846742E+02  0.47787265054E+02  0.19999972687E+02 0.  0.
         12    1    1    2    0    0  0.24202853053E+00 -0.29169377269E+02 -0.32135846742E+02  0.43400734946E+02  0.00000000000E+00 0. -1.
         11    1    3    3    0    0 -0.55929390608E+01  0.19944682190E+01  0.76699218697E+01  0.96998233264E+01  0.51100000000E-03 0. -1.
        -11    1    3    3    0    0  0.24861785047E+01  0.95906225238E+01  0.33478268293E+01  0.10457966757E+02  0.51100000000E-03 0.  1.
        -12    1    3    3    0    0  0.28647320256E+01  0.17584286526E+02  0.21118098043E+02  0.27629474971E+02  0.00000000000E+00 0.  1.
</event>
<event>
 7    1  0.1246400E-009  0.4778728E+02  0.7816164E-02  0.1312668E+00
        -11   -1    0    0    0    0  0.00000000000E+00  0.00000000000E+00  0.45593999997E+02  0.45594000000E+02  0.51100000000E-03 0.  1.
         11   -1    0    0    0    0 -0.00000000000E+00 -0.00000000000E+00 -0.45593999997E+02  0.45594000000E+02  0.51100000000E-03 0. -1.
    9900012    2    1    2    0    0 -0.16720946943E+02 -0.38055588089E+02  0.12482163700E+02  0.47787282701E+02  0.20000053145E+02 0.  0.
         12    1    1    2    0    0  0.16720946943E+02  0.38055588089E+02 -0.12482163700E+02  0.43400717299E+02  0.00000000000E+00 0. -1.
         11    1    3    3    0    0 -0.70640257206E+01 -0.87601182118E+01  0.11730615597E+02  0.16255690481E+02  0.51100000000E-03 0.  1.
        -11    1    3    3    0    0 -0.69306903338E+01 -0.10904035333E+02 -0.82501293349E-01  0.12920497737E+02  0.51100000000E-03 0. -1.
        -12    1    3    3    0    0 -0.27262308883E+01 -0.18391434544E+02  0.83404939666E+00  0.18611094483E+02  0.00000000000E+00 0.  1.
</event>
<event>
 7    1  0.1246400E-009  0.4778727E+02  0.7816164E-02  0.1312668E+00
        -11   -1    0    0    0    0  0.00000000000E+00  0.00000000000E+00  0.45593999997E+02  0.45594000000E+02  0.51100000000E-03 0.  1.
         11   -1    0    0    0    0 -0.00000000000E+00 -0.00000000000E+00 -0.45593999997E+02  0.45594000000E+02  0.51100000000E-03 0. -1.
    9900012    2    1    2    0    0  0.11894002900E+02  0.25464429963E+02  0.33071421355E+02  0.47787269490E+02  0.19999992914E+02 0.  0.
         12    1    1    2    0    0 -0.11894002900E+02 -0.25464429963E+02 -0.33071421355E+02  0.43400730510E+02  0.00000000000E+00 0. -1.
         11    1    3    3    0    0 -0.21495198216E+01  0.17775235618E+01  0.61847616430E+01  0.67846372282E+01  0.51100000000E-03 0. -1.
        -11    1    3    3    0    0  0.13365567340E+02  0.24746859460E+02  0.21312837339E+02  0.35288560174E+02  0.51100000000E-03 0.  1.
         12    1    3    3    0    0  0.67795538155E+00 -0.10599530583E+01  0.55738223727E+01  0.57140720881E+01  0.00000000000E+00 0. -1.
</event>
<event>
 7    1  0.1246400E-009  0.4778728E+02  0.7816164E-02  0.1312668E+00
        -11   -1    0    0    0    0  0.00000000000E+00  0.00000000000E+00  0.45593999997E+02  0.45594000000E+02  0.51100000000E-03 0.  1.
         11   -1    0    0    0    0 -0.00000000000E+00 -0.00000000000E+00 -0.45593999997E+02  0.45594000000E+02  0.51100000000E-03 0. -1.
    9900012    2    1    2    0    0  0.14563045076E+02  0.20006989275E+02  0.35654742105E+02  0.47787279541E+02  0.20000038740E+02 0.  0.
         12    1    1    2    0    0 -0.14563045076E+02 -0.20006989275E+02 -0.35654742105E+02  0.43400720459E+02  0.00000000000E+00 0. -1.
         11    1    3    3    0    0  0.80560133081E+00  0.70594555383E+01  0.17025014742E+02  0.18448198644E+02  0.51100000000E-03 0. -1.
        -11    1    3    3    0    0 -0.24168927643E+00  0.20030294619E+01  0.88073041996E+01  0.90354384652E+01  0.51100000000E-03 0.  1.
         12    1    3    3    0    0  0.13999133022E+02  0.10944504275E+02  0.98224231637E+01  0.20303642432E+02  0.00000000000E+00 0. -1.
</event>
<event>
 7    1  0.1246400E-009  0.4778727E+02  0.7816164E-02  0.1312668E+00
        -11   -1    0    0    0    0  0.00000000000E+00  0.00000000000E+00  0.45593999997E+02  0.45594000000E+02  0.51100000000E-03 0.  1.
         11   -1    0    0    0    0 -0.00000000000E+00 -0.00000000000E+00 -0.45593999997E+02  0.45594000000E+02  0.51100000000E-03 0. -1.
    9900012    2    1    2    0    0 -0.18177720793E+02  0.39059496998E+02 -0.52487677719E+01  0.47787269568E+02  0.19999993266E+02 0.  0.
         12    1    1    2    0    0  0.18177720793E+02 -0.39059496998E+02  0.52487677719E+01  0.43400730432E+02  0.00000000000E+00 0. -1.
         11    1    3    3    0    0 -0.67290627528E+00  0.81326064129E+01  0.92425494848E+00  0.82125719110E+01  0.51100000000E-03 0. -1.
        -11    1    3    3    0    0 -0.13754372462E+02  0.30837976984E+02 -0.18017594983E+01  0.33814344942E+02  0.51100000000E-03 0.  1.
         12    1    3    3    0    0 -0.37504420557E+01  0.88913600756E-01 -0.43712632220E+01  0.57603527147E+01  0.00000000000E+00 0. -1.
</event>
<event>
 7    1  0.1246400E-009  0.4778727E+02  0.7816164E-02  0.1312668E+00
        -11   -1    0    0    0    0  0.00000000000E+00  0.00000000000E+00  0.45593999997E+02  0.45594000000E+02  0.51100000000E-03 0.  1.
         11   -1    0    0    0    0 -0.00000000000E+00 -0.00000000000E+00 -0.45593999997E+02  0.45594000000E+02  0.51100000000E-03 0. -1.
    9900012    2    1    2    0    0 -0.32920128831E+02  0.25797503858E+02  0.11592131000E+02  0.47787267417E+02  0.19999983463E+02 0.  0.
         12    1    1    2    0    0  0.32920128831E+02 -0.25797503858E+02 -0.11592131000E+02  0.43400732583E+02  0.00000000000E+00 0. -1.
         11    1    3    3    0    0 -0.15643227664E+02  0.15269830309E+02  0.36388075567E+01  0.22161209582E+02  0.51100000000E-03 0. -1.
        -11    1    3    3    0    0 -0.14745885546E+02  0.37293206996E+01  0.98587387657E+01  0.18125774569E+02  0.51100000000E-03 0.  1.
         12    1    3    3    0    0 -0.25310156214E+01  0.67983528490E+01 -0.19054153219E+01  0.75002832669E+01  0.00000000000E+00 0. -1.
</event>
<event>
 7    1  0.1246400E-009  0.4778728E+02  0.7816164E-02  0.1312668E+00
        -11   -1    0    0    0    0  0.00000000000E+00  0.00000000000E+00  0.45593999997E+02  0.45594000000E+02  0.51100000000E-03 0.  1.
         11   -1    0    0    0    0 -0.00000000000E+00 -0.00000000000E+00 -0.45593999997E+02  0.45594000000E+02  0.51100000000E-03 0. -1.
    9900012    2    1    2    0    0 -0.16221836565E+02  0.25932156753E+02  0.30789575393E+02  0.47787277791E+02  0.20000030759E+02 0.  0.
         12    1    1    2    0    0  0.16221836565E+02 -0.25932156753E+02 -0.30789575393E+02  0.43400722209E+02  0.00000000000E+00 0. -1.
         11    1    3    3    0    0 -0.84502553601E+01  0.12107544637E+02  0.17797421193E+02  0.23124611439E+02  0.51100000000E-03 0. -1.
        -11    1    3    3    0    0 -0.10873718155E+02  0.12282956402E+02  0.13390431404E+02  0.21175750705E+02  0.51100000000E-03 0.  1.
         12    1    3    3    0    0  0.31021369502E+01  0.15416557130E+01 -0.39827720384E+00  0.34869156465E+01  0.00000000000E+00 0. -1.
</event>
<event>
 7    1  0.1246400E-009  0.4778727E+02  0.7816164E-02  0.1312668E+00
        -11   -1    0    0    0    0  0.00000000000E+00  0.00000000000E+00  0.45593999997E+02  0.45594000000E+02  0.51100000000E-03 0. -1.
         11   -1    0    0    0    0 -0.00000000000E+00 -0.00000000000E+00 -0.45593999997E+02  0.45594000000E+02  0.51100000000E-03 0.  1.
    9900012    2    1    2    0    0  0.20222834977E+02  0.35711856621E+02 -0.14118207644E+02  0.47787267922E+02  0.19999985764E+02 0.  0.
         12    1    1    2    0    0 -0.20222834977E+02 -0.35711856621E+02  0.14118207644E+02  0.43400732078E+02  0.00000000000E+00 0. -1.
         11    1    3    3    0    0  0.94686472114E+01  0.87602761022E+01 -0.85561214735E+00  0.12927868726E+02  0.51100000000E-03 0. -1.
        -11    1    3    3    0    0  0.10943783613E+00 -0.14394272587E+00 -0.44353558617E+01  0.44390402149E+01  0.51100000000E-03 0.  1.
         12    1    3    3    0    0  0.10644749929E+02  0.27095523244E+02 -0.88272396351E+01  0.30420358981E+02  0.00000000000E+00 0. -1.
</event>
<event>
 7    1  0.1246400E-009  0.4778727E+02  0.7816164E-02  0.1312668E+00
        -11   -1    0    0    0    0  0.00000000000E+00  0.00000000000E+00  0.45593999997E+02  0.45594000000E+02  0.51100000000E-03 0.  1.
         11   -1    0    0    0    0 -0.00000000000E+00 -0.00000000000E+00 -0.45593999997E+02  0.45594000000E+02  0.51100000000E-03 0. -1.
    9900012    2    1    2    0    0  0.33780662026E+02  0.11929259254E+02  0.24498637015E+02  0.47787267647E+02  0.19999984508E+02 0.  0.
         12    1    1    2    0    0 -0.33780662026E+02 -0.11929259254E+02 -0.24498637015E+02  0.43400732353E+02  0.00000000000E+00 0. -1.
         11    1    3    3    0    0  0.48565481969E+01 -0.99972257703E+00  0.41360847469E+01  0.64569886878E+01  0.51100000000E-03 0. -1.
        -11    1    3    3    0    0  0.19379459667E+02  0.41696085586E+00  0.15620130537E+02  0.24894292350E+02  0.51100000000E-03 0.  1.
         12    1    3    3    0    0  0.95446541616E+01  0.12512020975E+02  0.47424217303E+01  0.16435986609E+02  0.00000000000E+00 0. -1.
</event>
<event>
 7    1  0.1246400E-009  0.4778727E+02  0.7816164E-02  0.1312668E+00
        -11   -1    0    0    0    0  0.00000000000E+00  0.00000000000E+00  0.45593999997E+02  0.45594000000E+02  0.51100000000E-03 0.  1.
         11   -1    0    0    0    0 -0.00000000000E+00 -0.00000000000E+00 -0.45593999997E+02  0.45594000000E+02  0.51100000000E-03 0. -1.
    9900012    2    1    2    0    0 -0.57884559821E+01  0.41237291089E+02  0.12231225901E+02  0.47787270904E+02  0.19999999359E+02 0.  0.
         12    1    1    2    0    0  0.57884559821E+01 -0.41237291089E+02 -0.12231225901E+02  0.43400729096E+02  0.00000000000E+00 0. -1.
         11    1    3    3    0    0  0.36745763694E+01  0.87380937899E+01  0.29874219845E+01  0.99388875107E+01  0.51100000000E-03 0. -1.
        -11    1    3    3    0    0  0.70489793590E+00  0.31914621052E+01 -0.30588283554E+01  0.44764654179E+01  0.51100000000E-03 0.  1.
        -12    1    3    3    0    0 -0.10167930287E+02  0.29307735194E+02  0.12302632272E+02  0.33371917975E+02  0.00000000000E+00 0.  1.
</event>
<event>
 7    1  0.1246400E-009  0.4778728E+02  0.7816164E-02  0.1312668E+00
        -11   -1    0    0    0    0  0.00000000000E+00  0.00000000000E+00  0.45593999997E+02  0.45594000000E+02  0.51100000000E-03 0.  1.
         11   -1    0    0    0    0 -0.00000000000E+00 -0.00000000000E+00 -0.45593999997E+02  0.45594000000E+02  0.51100000000E-03 0. -1.
    9900012    2    1    2    0    0  0.37398979951E+02  0.39854622118E+01  0.21657683805E+02  0.47787275603E+02  0.20000020784E+02 0.  0.
         12    1    1    2    0    0 -0.37398979951E+02 -0.39854622118E+01 -0.21657683805E+02  0.43400724397E+02  0.00000000000E+00 0. -1.
         11    1    3    3    0    0  0.29803820572E+02  0.66202056032E+01  0.10129947258E+02  0.32166918948E+02  0.51100000000E-03 0. -1.
        -11    1    3    3    0    0  0.82167466113E+01 -0.45362964665E+00  0.95947877835E+01  0.12640437398E+02  0.51100000000E-03 0.  1.
         12    1    3    3    0    0 -0.62158723289E+00 -0.21811137447E+01  0.19329487638E+01  0.29799192571E+01  0.00000000000E+00 0. -1.
</event>
<event>
 7    1  0.1246400E-009  0.4778727E+02  0.7816164E-02  0.1312668E+00
        -11   -1    0    0    0    0  0.00000000000E+00  0.00000000000E+00  0.45593999997E+02  0.45594000000E+02  0.51100000000E-03 0.  1.
         11   -1    0    0    0    0 -0.00000000000E+00 -0.00000000000E+00 -0.45593999997E+02  0.45594000000E+02  0.51100000000E-03 0. -1.
    9900012    2    1    2    0    0  0.98736784294E+01  0.27300032099E+02  0.32262085140E+02  0.47787269408E+02  0.19999992538E+02 0.  0.
         12    1    1    2    0    0 -0.98736784294E+01 -0.27300032099E+02 -0.32262085140E+02  0.43400730592E+02  0.00000000000E+00 0. -1.
         11    1    3    3    0    0 -0.29791324095E+01  0.15116608923E+02  0.10313246200E+02  0.18540500066E+02  0.51100000000E-03 0. -1.
        -11    1    3    3    0    0  0.32009919287E+01  0.40748059014E+01  0.12379500639E+02  0.13420224618E+02  0.51100000000E-03 0.  1.
         12    1    3    3    0    0  0.96518189102E+01  0.81086172746E+01  0.95693383008E+01  0.15826544724E+02  0.00000000000E+00 0. -1.
</event>
<event>
 7    1  0.1246400E-009  0.4778727E+02  0.7816164E-02  0.1312668E+00
        -11   -1    0    0    0    0  0.00000000000E+00  0.00000000000E+00  0.45593999997E+02  0.45594000000E+02  0.51100000000E-03 0.  1.
         11   -1    0    0    0    0 -0.00000000000E+00 -0.00000000000E+00 -0.45593999997E+02  0.45594000000E+02  0.51100000000E-03 0. -1.
    9900012    2    1    2    0    0 -0.26444614630E+02  0.24019723477E+02  0.24644645770E+02  0.47787270467E+02  0.19999997368E+02 0.  0.
         12    1    1    2    0    0  0.26444614630E+02 -0.24019723477E+02 -0.24644645770E+02  0.43400729533E+02  0.00000000000E+00 0. -1.
         11    1    3    3    0    0 -0.13062840086E+02  0.16072665281E+02  0.15777472315E+02  0.26036455083E+02  0.51100000000E-03 0. -1.
        -11    1    3    3    0    0 -0.96089045186E+01  0.65158466100E+00  0.94809717791E+01  0.13514600799E+02  0.51100000000E-03 0.  1.
         12    1    3    3    0    0 -0.37728700258E+01  0.72954735341E+01 -0.61379832389E+00  0.82362145856E+01  0.00000000000E+00 0. -1.
</event>
<event>
 7    1  0.1246400E-009  0.4778727E+02  0.7816164E-02  0.1312668E+00
        -11   -1    0    0    0    0  0.00000000000E+00  0.00000000000E+00  0.45593999997E+02  0.45594000000E+02  0.51100000000E-03 0.  1.
         11   -1    0    0    0    0 -0.00000000000E+00 -0.00000000000E+00 -0.45593999997E+02  0.45594000000E+02  0.51100000000E-03 0. -1.
    9900012    2    1    2    0    0 -0.37994701370E+02 -0.20852251055E+02  0.22824241177E+01  0.47787272286E+02  0.20000005661E+02 0.  0.
         12    1    1    2    0    0  0.37994701370E+02  0.20852251055E+02 -0.22824241177E+01  0.43400727714E+02  0.00000000000E+00 0. -1.
         11    1    3    3    0    0 -0.48546638488E+01  0.14058597364E+01  0.19038169830E+01  0.54008075367E+01  0.51100000000E-03 0. -1.
        -11    1    3    3    0    0 -0.13911473047E+02 -0.14095779954E+02  0.61092194283E+01  0.20725410904E+02  0.51100000000E-03 0.  1.
         12    1    3    3    0    0 -0.19228564474E+02 -0.81623308373E+01 -0.57306122936E+01  0.21661053846E+02  0.00000000000E+00 0. -1.
</event>
<event>
 7    1  0.1246400E-009  0.4778727E+02  0.7816164E-02  0.1312668E+00
        -11   -1    0    0    0    0  0.00000000000E+00  0.00000000000E+00  0.45593999997E+02  0.45594000000E+02  0.51100000000E-03 0.  1.
         11   -1    0    0    0    0 -0.00000000000E+00 -0.00000000000E+00 -0.45593999997E+02  0.45594000000E+02  0.51100000000E-03 0. -1.
    9900012    2    1    2    0    0  0.28179351139E+02 -0.12001405742E+02  0.30749205936E+02  0.47787271479E+02  0.20000001982E+02 0.  0.
         12    1    1    2    0    0 -0.28179351139E+02  0.12001405742E+02 -0.30749205936E+02  0.43400728521E+02  0.00000000000E+00 0. -1.
         11    1    3    3    0    0  0.10565685821E+01 -0.35972427820E+01  0.10172297405E+01  0.38847457327E+01  0.51100000000E-03 0. -1.
        -11    1    3    3    0    0  0.28541115946E+02 -0.88053922759E+01  0.30077565508E+02  0.42388561897E+02  0.51100000000E-03 0.  1.
         12    1    3    3    0    0 -0.14183333884E+01  0.40122931630E+00 -0.34558931200E+00  0.15139638494E+01  0.00000000000E+00 0. -1.
</event>
<event>
 7    1  0.1246400E-009  0.4778726E+02  0.7816164E-02  0.1312668E+00
        -11   -1    0    0    0    0  0.00000000000E+00  0.00000000000E+00  0.45593999997E+02  0.45594000000E+02  0.51100000000E-03 0. -1.
         11   -1    0    0    0    0 -0.00000000000E+00 -0.00000000000E+00 -0.45593999997E+02  0.45594000000E+02  0.51100000000E-03 0.  1.
    9900012    2    1    2    0    0  0.39517325573E-01  0.19871269953E+02 -0.38584394500E+02  0.47787257724E+02  0.19999939267E+02 0.  0.
         12    1    1    2    0    0 -0.39517325573E-01 -0.19871269953E+02  0.38584394500E+02  0.43400742276E+02  0.00000000000E+00 0. -1.
         11    1    3    3    0    0  0.18402407828E+00 -0.21463979879E+01  0.30200754584E+00  0.21753385950E+01  0.51100000000E-03 0. -1.
        -11    1    3    3    0    0  0.15153115009E+00  0.61317286663E+01 -0.20060709334E+02  0.20977443061E+02  0.51100000000E-03 0.  1.
         12    1    3    3    0    0 -0.29603790279E+00  0.15885939274E+02 -0.18825692712E+02  0.24634476068E+02  0.00000000000E+00 0. -1.
</event>
<event>
 7    1  0.1246400E-009  0.4778727E+02  0.7816164E-02  0.1312668E+00
        -11   -1    0    0    0    0  0.00000000000E+00  0.00000000000E+00  0.45593999997E+02  0.45594000000E+02  0.51100000000E-03 0. -1.
         11   -1    0    0    0    0 -0.00000000000E+00 -0.00000000000E+00 -0.45593999997E+02  0.45594000000E+02  0.51100000000E-03 0.  1.
    9900012    2    1    2    0    0 -0.10293158071E+00  0.17377805183E+02 -0.39769642751E+02  0.47787271982E+02  0.20000004277E+02 0.  0.
         12    1    1    2    0    0  0.10293158071E+00 -0.17377805183E+02  0.39769642751E+02  0.43400728018E+02  0.00000000000E+00 0. -1.
         11    1    3    3    0    0 -0.25296596973E+01  0.10492544834E+02 -0.16968935157E+02  0.20110629923E+02  0.51100000000E-03 0. -1.
        -11    1    3    3    0    0  0.31164173335E+01  0.99167810211E+01 -0.22195810932E+02  0.24509357927E+02  0.51100000000E-03 0.  1.
         12    1    3    3    0    0 -0.68968921688E+00 -0.30315206720E+01 -0.60489666186E+00  0.31672841319E+01  0.00000000000E+00 0. -1.
</event>
<event>
 7    1  0.1246400E-009  0.4778729E+02  0.7816164E-02  0.1312668E+00
        -11   -1    0    0    0    0  0.00000000000E+00  0.00000000000E+00  0.45593999997E+02  0.45594000000E+02  0.51100000000E-03 0.  1.
         11   -1    0    0    0    0 -0.00000000000E+00 -0.00000000000E+00 -0.45593999997E+02  0.45594000000E+02  0.51100000000E-03 0. -1.
    9900012    2    1    2    0    0  0.40871165482E+02 -0.90543274029E+01  0.11453771400E+02  0.47787286966E+02  0.20000072591E+02 0.  0.
         12    1    1    2    0    0 -0.40871165482E+02  0.90543274029E+01 -0.11453771400E+02  0.43400713034E+02  0.00000000000E+00 0. -1.
         11    1    3    3    0    0  0.72154565334E+01  0.20816298186E+01  0.33350995137E+01  0.82169875693E+01  0.51100000000E-03 0. -1.
        -11    1    3    3    0    0  0.19594075662E+02 -0.12260294778E+02 -0.35118956175E+00  0.23116357055E+02  0.51100000000E-03 0.  1.
        -12    1    3    3    0    0  0.14061633287E+02  0.11243375569E+01  0.84698614481E+01  0.16453942342E+02  0.00000000000E+00 0.  1.
</event>
<event>
 7    1  0.1246400E-009  0.4778727E+02  0.7816164E-02  0.1312668E+00
        -11   -1    0    0    0    0  0.00000000000E+00  0.00000000000E+00  0.45593999997E+02  0.45594000000E+02  0.51100000000E-03 0. -1.
         11   -1    0    0    0    0 -0.00000000000E+00 -0.00000000000E+00 -0.45593999997E+02  0.45594000000E+02  0.51100000000E-03 0.  1.
    9900012    2    1    2    0    0  0.12129598860E+02 -0.36779513155E+02 -0.19589881596E+02  0.47787271696E+02  0.20000002970E+02 0.  0.
         12    1    1    2    0    0 -0.12129598860E+02  0.36779513155E+02  0.19589881596E+02  0.43400728304E+02  0.00000000000E+00 0. -1.
         11    1    3    3    0    0 -0.53397077043E+00  0.13048656687E-01 -0.47887409163E+01  0.48184369744E+01  0.51100000000E-03 0. -1.
        -11    1    3    3    0    0  0.16418578143E+01 -0.13325567923E+02 -0.67373765705E+00  0.13443228044E+02  0.51100000000E-03 0.  1.
        -12    1    3    3    0    0  0.11021711816E+02 -0.23466993888E+02 -0.14127403023E+02  0.29525606677E+02  0.00000000000E+00 0.  1.
</event>
<event>
 7    1  0.1246400E-009  0.4778727E+02  0.7816164E-02  0.1312668E+00
        -11   -1    0    0    0    0  0.00000000000E+00  0.00000000000E+00  0.45593999997E+02  0.45594000000E+02  0.51100000000E-03 0.  1.
         11   -1    0    0    0    0 -0.00000000000E+00 -0.00000000000E+00 -0.45593999997E+02  0.45594000000E+02  0.51100000000E-03 0. -1.
    9900012    2    1    2    0    0 -0.21712595626E+02  0.32368349568E+02 -0.19091263396E+02  0.47787271888E+02  0.20000003848E+02 0.  0.
         12    1    1    2    0    0  0.21712595626E+02 -0.32368349568E+02  0.19091263396E+02  0.43400728112E+02  0.00000000000E+00 0. -1.
         11    1    3    3    0    0 -0.48615978762E+01  0.47378213920E+01 -0.71010240207E+01  0.98237786954E+01  0.51100000000E-03 0. -1.
        -11    1    3    3    0    0 -0.11739974015E+01  0.14654407453E+02 -0.76261003278E+00  0.14721124347E+02  0.51100000000E-03 0.  1.
        -12    1    3    3    0    0 -0.15677000348E+02  0.12976120723E+02 -0.11227629342E+02  0.23242368846E+02  0.00000000000E+00 0.  1.
</event>
<event>
 7    1  0.1246400E-009  0.4778727E+02  0.7816164E-02  0.1312668E+00
        -11   -1    0    0    0    0  0.00000000000E+00  0.00000000000E+00  0.45593999997E+02  0.45594000000E+02  0.51100000000E-03 0.  1.
         11   -1    0    0    0    0 -0.00000000000E+00 -0.00000000000E+00 -0.45593999997E+02  0.45594000000E+02  0.51100000000E-03 0. -1.
    9900012    2    1    2    0    0 -0.23321479607E+02 -0.41682959035E+01  0.36364228255E+02  0.47787271914E+02  0.20000003967E+02 0.  0.
         12    1    1    2    0    0  0.23321479607E+02  0.41682959035E+01 -0.36364228255E+02  0.43400728086E+02  0.00000000000E+00 0. -1.
         11    1    3    3    0    0 -0.29422502102E+01  0.24573040101E-01  0.41176788199E+01  0.50609010323E+01  0.51100000000E-03 0. -1.
        -11    1    3    3    0    0 -0.15243592093E+02 -0.75394077336E+01  0.32403012592E+02  0.36594603348E+02  0.51100000000E-03 0.  1.
         12    1    3    3    0    0 -0.51356373030E+01  0.33465387900E+01 -0.15646315662E+00  0.61317675347E+01  0.00000000000E+00 0. -1.
</event>
<event>
 7    1  0.1246400E-009  0.4778727E+02  0.7816164E-02  0.1312668E+00
        -11   -1    0    0    0    0  0.00000000000E+00  0.00000000000E+00  0.45593999997E+02  0.45594000000E+02  0.51100000000E-03 0. -1.
         11   -1    0    0    0    0 -0.00000000000E+00 -0.00000000000E+00 -0.45593999997E+02  0.45594000000E+02  0.51100000000E-03 0.  1.
    9900012    2    1    2    0    0  0.37889648184E+02 -0.38765625487E+01 -0.20807940336E+02  0.47787267775E+02  0.19999985091E+02 0.  0.
         12    1    1    2    0    0 -0.37889648184E+02  0.38765625487E+01  0.20807940336E+02  0.43400732225E+02  0.00000000000E+00 0. -1.
         11    1    3    3    0    0  0.36137803630E+01  0.39749648509E+01 -0.17711889084E+01  0.56565771000E+01  0.51100000000E-03 0. -1.
        -11    1    3    3    0    0  0.28362471828E+02 -0.34312019481E+01 -0.95787414134E+01  0.30132295670E+02  0.51100000000E-03 0.  1.
         12    1    3    3    0    0  0.59133959928E+01 -0.44203254515E+01 -0.94580100139E+01  0.11998395005E+02  0.00000000000E+00 0. -1.
</event>
<event>
 7    1  0.1246400E-009  0.4778727E+02  0.7816164E-02  0.1312668E+00
        -11   -1    0    0    0    0  0.00000000000E+00  0.00000000000E+00  0.45593999997E+02  0.45594000000E+02  0.51100000000E-03 0.  1.
         11   -1    0    0    0    0 -0.00000000000E+00 -0.00000000000E+00 -0.45593999997E+02  0.45594000000E+02  0.51100000000E-03 0. -1.
    9900012    2    1    2    0    0  0.39026184823E+02  0.18963056827E+02 -0.99126771845E+00  0.47787271461E+02  0.20000001898E+02 0.  0.
         12    1    1    2    0    0 -0.39026184823E+02 -0.18963056827E+02  0.99126771845E+00  0.43400728539E+02  0.00000000000E+00 0. -1.
         11    1    3    3    0    0  0.24697230479E+02  0.10774813439E+02 -0.27284193173E+00  0.26946692580E+02  0.51100000000E-03 0. -1.
        -11    1    3    3    0    0  0.58251735773E+01  0.77763299002E+01  0.46541793305E+01  0.10773362494E+02  0.51100000000E-03 0.  1.
         12    1    3    3    0    0  0.85037807662E+01  0.41191348776E+00 -0.53726051172E+01  0.10067216387E+02  0.00000000000E+00 0. -1.
</event>
<event>
 7    1  0.1246400E-009  0.4778728E+02  0.7816164E-02  0.1312668E+00
        -11   -1    0    0    0    0  0.00000000000E+00  0.00000000000E+00  0.45593999997E+02  0.45594000000E+02  0.51100000000E-03 0.  1.
         11   -1    0    0    0    0 -0.00000000000E+00 -0.00000000000E+00 -0.45593999997E+02  0.45594000000E+02  0.51100000000E-03 0. -1.
    9900012    2    1    2    0    0  0.15568979115E+02  0.36880449528E+01  0.40343873050E+02  0.47787275594E+02  0.20000020745E+02 0.  0.
         12    1    1    2    0    0 -0.15568979115E+02 -0.36880449528E+01 -0.40343873050E+02  0.43400724406E+02  0.00000000000E+00 0. -1.
         11    1    3    3    0    0  0.16358544833E+01  0.27510570210E+01 -0.20568375322E+00  0.32072793284E+01  0.51100000000E-03 0. -1.
        -11    1    3    3    0    0  0.49970407069E+01 -0.55113461228E+01  0.14552611152E+02  0.16343923749E+02  0.51100000000E-03 0.  1.
         12    1    3    3    0    0  0.89360839249E+01  0.64483340547E+01  0.25996945651E+02  0.28236072517E+02  0.00000000000E+00 0. -1.
</event>
<event>
 7    1  0.1246400E-009  0.4778727E+02  0.7816164E-02  0.1312668E+00
        -11   -1    0    0    0    0  0.00000000000E+00  0.00000000000E+00  0.45593999997E+02  0.45594000000E+02  0.51100000000E-03 0.  1.
         11   -1    0    0    0    0 -0.00000000000E+00 -0.00000000000E+00 -0.45593999997E+02  0.45594000000E+02  0.51100000000E-03 0. -1.
    9900012    2    1    2    0    0  0.22013634826E+02  0.67605637239E+00  0.37397406651E+02  0.47787271957E+02  0.20000004161E+02 0.  0.
         12    1    1    2    0    0 -0.22013634826E+02 -0.67605637239E+00 -0.37397406651E+02  0.43400728043E+02  0.00000000000E+00 0. -1.
         11    1    3    3    0    0  0.18378097371E+02 -0.29335407916E+01  0.18343155738E+02  0.26131044511E+02  0.51100000000E-03 0. -1.
        -11    1    3    3    0    0  0.40298641824E+01  0.53053222846E+01  0.77557350387E+01  0.10224366784E+02  0.51100000000E-03 0.  1.
        -12    1    3    3    0    0 -0.39432672721E+00 -0.16957251207E+01  0.11298515874E+02  0.11431860663E+02  0.00000000000E+00 0.  1.
</event>
<event>
 7    1  0.1246400E-009  0.4778727E+02  0.7816164E-02  0.1312668E+00
        -11   -1    0    0    0    0  0.00000000000E+00  0.00000000000E+00  0.45593999997E+02  0.45594000000E+02  0.51100000000E-03 0.  1.
         11   -1    0    0    0    0 -0.00000000000E+00 -0.00000000000E+00 -0.45593999997E+02  0.45594000000E+02  0.51100000000E-03 0. -1.
    9900012    2    1    2    0    0  0.26866932846E+02 -0.68852234124E+01  0.33382405361E+02  0.47787269941E+02  0.19999994969E+02 0.  0.
         12    1    1    2    0    0 -0.26866932846E+02  0.68852234124E+01 -0.33382405361E+02  0.43400730059E+02  0.00000000000E+00 0. -1.
         11    1    3    3    0    0  0.30986847100E+01  0.19956763578E+01  0.11474173623E+02  0.12051607015E+02  0.51100000000E-03 0.  1.
        -11    1    3    3    0    0  0.17844390230E+02 -0.44867110734E+00  0.15146539600E+02  0.23410280446E+02  0.51100000000E-03 0. -1.
        -12    1    3    3    0    0  0.59238579060E+01 -0.84322286629E+01  0.67616921378E+01  0.12325382480E+02  0.00000000000E+00 0.  1.
</event>
<event>
 7    1  0.1449638E-009  0.4778727E+02  0.7816164E-02  0.1312668E+00
        -11   -1    0    0    0    0  0.00000000000E+00  0.00000000000E+00  0.45593999997E+02  0.45594000000E+02  0.51100000000E-03 0. -1.
         11   -1    0    0    0    0 -0.00000000000E+00 -0.00000000000E+00 -0.45593999997E+02  0.45594000000E+02  0.51100000000E-03 0.  1.
    9900012    2    1    2    0    0 -0.11759938044E+02 -0.20693190143E+02 -0.36292131948E+02  0.47787273019E+02  0.20000009004E+02 0.  0.
         12    1    1    2    0    0  0.11759938044E+02  0.20693190143E+02  0.36292131948E+02  0.43400726981E+02  0.00000000000E+00 0. -1.
         11    1    3    3    0    0  0.18154234548E+01 -0.37626545268E+01  0.59688006990E-01  0.41781448428E+01  0.51100000000E-03 0. -1.
        -11    1    3    3    0    0 -0.95954205235E+01 -0.87436107909E+01 -0.12263804029E+02  0.17858435380E+02  0.51100000000E-03 0.  1.
        -12    1    3    3    0    0 -0.39799409754E+01 -0.81869248257E+01 -0.24088015926E+02  0.25750692797E+02  0.00000000000E+00 0.  1.
</event>
<event>
 7    1  0.1246400E-009  0.4778727E+02  0.7816164E-02  0.1312668E+00
        -11   -1    0    0    0    0  0.00000000000E+00  0.00000000000E+00  0.45593999997E+02  0.45594000000E+02  0.51100000000E-03 0.  1.
         11   -1    0    0    0    0 -0.00000000000E+00 -0.00000000000E+00 -0.45593999997E+02  0.45594000000E+02  0.51100000000E-03 0. -1.
    9900012    2    1    2    0    0  0.30527076312E+02  0.18559985476E+02  0.24642402752E+02  0.47787268872E+02  0.19999990096E+02 0.  0.
         12    1    1    2    0    0 -0.30527076312E+02 -0.18559985476E+02 -0.24642402752E+02  0.43400731128E+02  0.00000000000E+00 0. -1.
         11    1    3    3    0    0  0.19342193452E+02  0.16739463235E+02  0.10928171586E+02  0.27816452171E+02  0.51100000000E-03 0. -1.
        -11    1    3    3    0    0 -0.24495080124E+00  0.12667202377E+01 -0.77705241274E+00  0.15061181125E+01  0.51100000000E-03 0.  1.
        -12    1    3    3    0    0  0.11429833662E+02  0.55380200292E+00  0.14491283579E+02  0.18464698589E+02  0.00000000000E+00 0.  1.
</event>
<event>
 7    1  0.1246400E-009  0.4778728E+02  0.7816164E-02  0.1312668E+00
        -11   -1    0    0    0    0  0.00000000000E+00  0.00000000000E+00  0.45593999997E+02  0.45594000000E+02  0.51100000000E-03 0. -1.
         11   -1    0    0    0    0 -0.00000000000E+00 -0.00000000000E+00 -0.45593999997E+02  0.45594000000E+02  0.51100000000E-03 0.  1.
    9900012    2    1    2    0    0 -0.14854965542E+02  0.31075082821E+02 -0.26406283256E+02  0.47787279165E+02  0.20000037024E+02 0.  0.
         12    1    1    2    0    0  0.14854965542E+02 -0.31075082821E+02  0.26406283256E+02  0.43400720835E+02  0.00000000000E+00 0. -1.
         11    1    3    3    0    0 -0.67806697879E+01  0.21317195216E+02 -0.16743880016E+02  0.27942043822E+02  0.51100000000E-03 0. -1.
        -11    1    3    3    0    0 -0.10793990055E+02  0.59027254158E+01 -0.85964330427E+01  0.15008365999E+02  0.51100000000E-03 0.  1.
         12    1    3    3    0    0  0.27196943003E+01  0.38551621891E+01 -0.10659701972E+01  0.48368693442E+01  0.00000000000E+00 0. -1.
</event>
<event>
 7    1  0.1246400E-009  0.4778727E+02  0.7816164E-02  0.1312668E+00
        -11   -1    0    0    0    0  0.00000000000E+00  0.00000000000E+00  0.45593999997E+02  0.45594000000E+02  0.51100000000E-03 0.  1.
         11   -1    0    0    0    0 -0.00000000000E+00 -0.00000000000E+00 -0.45593999997E+02  0.45594000000E+02  0.51100000000E-03 0. -1.
    9900012    2    1    2    0    0 -0.34956154159E+02  0.27753497526E+01  0.25573189471E+02  0.47787270748E+02  0.19999998650E+02 0.  0.
         12    1    1    2    0    0  0.34956154159E+02 -0.27753497526E+01 -0.25573189471E+02  0.43400729252E+02  0.00000000000E+00 0. -1.
         11    1    3    3    0    0 -0.44087559971E+01 -0.29539055337E+01 -0.71707511151E+00  0.53550802347E+01  0.51100000000E-03 0. -1.
        -11    1    3    3    0    0 -0.17533174079E+02 -0.25142252033E+01  0.16298963542E+02  0.24070515875E+02  0.51100000000E-03 0.  1.
        -12    1    3    3    0    0 -0.13014224083E+02  0.82434804897E+01  0.99913010402E+01  0.18361674639E+02  0.00000000000E+00 0.  1.
</event>
<event>
 7    1  0.1246400E-009  0.4778727E+02  0.7816164E-02  0.1312668E+00
        -11   -1    0    0    0    0  0.00000000000E+00  0.00000000000E+00  0.45593999997E+02  0.45594000000E+02  0.51100000000E-03 0. -1.
         11   -1    0    0    0    0 -0.00000000000E+00 -0.00000000000E+00 -0.45593999997E+02  0.45594000000E+02  0.51100000000E-03 0.  1.
    9900012    2    1    2    0    0 -0.24664915843E+02 -0.35146211746E+02  0.63252731844E+01  0.47787270116E+02  0.19999995765E+02 0.  0.
         12    1    1    2    0    0  0.24664915843E+02  0.35146211746E+02 -0.63252731844E+01  0.43400729884E+02  0.00000000000E+00 0. -1.
         11    1    3    3    0    0 -0.97744218246E+01 -0.13444997071E+02  0.53576816088E+01  0.17464593345E+02  0.51100000000E-03 0. -1.
        -11    1    3    3    0    0 -0.17934227785E+02 -0.17804978873E+02 -0.65626956840E-01  0.25271685858E+02  0.51100000000E-03 0.  1.
         12    1    3    3    0    0  0.30437337665E+01 -0.38962358017E+01  0.10332185325E+01  0.50509909126E+01  0.00000000000E+00 0. -1.
</event>
<event>
 7    1  0.1246400E-009  0.4778727E+02  0.7816164E-02  0.1312668E+00
        -11   -1    0    0    0    0  0.00000000000E+00  0.00000000000E+00  0.45593999997E+02  0.45594000000E+02  0.51100000000E-03 0. -1.
         11   -1    0    0    0    0 -0.00000000000E+00 -0.00000000000E+00 -0.45593999997E+02  0.45594000000E+02  0.51100000000E-03 0.  1.
    9900012    2    1    2    0    0 -0.19285516548E+02  0.37036617544E+02 -0.11831365025E+02  0.47787269753E+02  0.19999994112E+02 0.  0.
         12    1    1    2    0    0  0.19285516548E+02 -0.37036617544E+02  0.11831365025E+02  0.43400730247E+02  0.00000000000E+00 0. -1.
         11    1    3    3    0    0 -0.12323049082E+02  0.22933023596E+02 -0.92829288867E+01  0.27639715608E+02  0.51100000000E-03 0.  1.
        -11    1    3    3    0    0 -0.18558249675E+01  0.13380212432E+02  0.14992874315E+01  0.13591248438E+02  0.51100000000E-03 0. -1.
        -12    1    3    3    0    0 -0.51066424991E+01  0.72338151630E+00 -0.40477235694E+01  0.65563057072E+01  0.00000000000E+00 0.  1.
</event>
<event>
 7    1  0.1246400E-009  0.4778727E+02  0.7816164E-02  0.1312668E+00
        -11   -1    0    0    0    0  0.00000000000E+00  0.00000000000E+00  0.45593999997E+02  0.45594000000E+02  0.51100000000E-03 0.  1.
         11   -1    0    0    0    0 -0.00000000000E+00 -0.00000000000E+00 -0.45593999997E+02  0.45594000000E+02  0.51100000000E-03 0. -1.
    9900012    2    1    2    0    0 -0.26908230170E+02  0.37435313030E+01  0.33846066447E+02  0.47787273146E+02  0.20000009584E+02 0.  0.
         12    1    1    2    0    0  0.26908230170E+02 -0.37435313030E+01 -0.33846066447E+02  0.43400726854E+02  0.00000000000E+00 0. -1.
         11    1    3    3    0    0 -0.15440365895E+02  0.41382508357E+01  0.92037079775E+01  0.18445548508E+02  0.51100000000E-03 0. -1.
        -11    1    3    3    0    0 -0.30338926419E+01  0.19606868031E+01  0.48312030010E+00  0.36444756534E+01  0.51100000000E-03 0.  1.
         12    1    3    3    0    0 -0.84339716332E+01 -0.23554063359E+01  0.24159238169E+02  0.25697248986E+02  0.00000000000E+00 0. -1.
</event>
<event>
 7    1  0.1246400E-009  0.4778727E+02  0.7816164E-02  0.1312668E+00
        -11   -1    0    0    0    0  0.00000000000E+00  0.00000000000E+00  0.45593999997E+02  0.45594000000E+02  0.51100000000E-03 0.  1.
         11   -1    0    0    0    0 -0.00000000000E+00 -0.00000000000E+00 -0.45593999997E+02  0.45594000000E+02  0.51100000000E-03 0. -1.
    9900012    2    1    2    0    0 -0.37496672118E+02 -0.31056829999E+01  0.21632793085E+02  0.47787269321E+02  0.19999992141E+02 0.  0.
         12    1    1    2    0    0  0.37496672118E+02  0.31056829999E+01 -0.21632793085E+02  0.43400730679E+02  0.00000000000E+00 0. -1.
         11    1    3    3    0    0 -0.33070988860E+02 -0.66105618200E+01  0.17966087645E+02  0.38212172633E+02  0.51100000000E-03 0.  1.
        -11    1    3    3    0    0 -0.13080595073E+01 -0.10942425699E+01 -0.12828423172E+01  0.21340269793E+01  0.51100000000E-03 0. -1.
        -12    1    3    3    0    0 -0.31176237504E+01  0.45991213900E+01  0.49495477575E+01  0.74410697089E+01  0.00000000000E+00 0.  1.
</event>
<event>
 7    1  0.1246400E-009  0.4778727E+02  0.7816164E-02  0.1312668E+00
        -11   -1    0    0    0    0  0.00000000000E+00  0.00000000000E+00  0.45593999997E+02  0.45594000000E+02  0.51100000000E-03 0.  1.
         11   -1    0    0    0    0 -0.00000000000E+00 -0.00000000000E+00 -0.45593999997E+02  0.45594000000E+02  0.51100000000E-03 0. -1.
    9900012    2    1    2    0    0  0.20430978436E+02  0.25119980307E+02  0.28899564996E+02  0.47787272501E+02  0.20000006641E+02 0.  0.
         12    1    1    2    0    0 -0.20430978436E+02 -0.25119980307E+02 -0.28899564996E+02  0.43400727499E+02  0.00000000000E+00 0. -1.
         11    1    3    3    0    0  0.48795121011E+01  0.24119760216E+01 -0.20655322779E+01  0.58218287956E+01  0.51100000000E-03 0. -1.
        -11    1    3    3    0    0  0.10473427491E+02  0.93783113087E+01  0.15577440487E+02  0.20983375772E+02  0.51100000000E-03 0.  1.
         12    1    3    3    0    0  0.50780388448E+01  0.13329692976E+02  0.15387656787E+02  0.20982067933E+02  0.00000000000E+00 0. -1.
</event>
<event>
 7    1  0.1246400E-009  0.4778728E+02  0.7816164E-02  0.1312668E+00
        -11   -1    0    0    0    0  0.00000000000E+00  0.00000000000E+00  0.45593999997E+02  0.45594000000E+02  0.51100000000E-03 0. -1.
         11   -1    0    0    0    0 -0.00000000000E+00 -0.00000000000E+00 -0.45593999997E+02  0.45594000000E+02  0.51100000000E-03 0.  1.
    9900012    2    1    2    0    0  0.56321980554E+01  0.95341859150E+01 -0.41964275782E+02  0.47787276528E+02  0.20000025001E+02 0.  0.
         12    1    1    2    0    0 -0.56321980554E+01 -0.95341859150E+01  0.41964275782E+02  0.43400723472E+02  0.00000000000E+00 0. -1.
         11    1    3    3    0    0  0.26587477550E+01  0.44549476535E+01 -0.22213125067E+02  0.22810927726E+02  0.51100000000E-03 0. -1.
        -11    1    3    3    0    0  0.77434611526E+01  0.12600958394E+01 -0.15963418691E+02  0.17787067457E+02  0.51100000000E-03 0.  1.
         12    1    3    3    0    0 -0.47700108523E+01  0.38191424222E+01 -0.37877320244E+01  0.71892813451E+01  0.00000000000E+00 0. -1.
</event>
<event>
 7    1  0.1246400E-009  0.4778727E+02  0.7816164E-02  0.1312668E+00
        -11   -1    0    0    0    0  0.00000000000E+00  0.00000000000E+00  0.45593999997E+02  0.45594000000E+02  0.51100000000E-03 0.  1.
         11   -1    0    0    0    0 -0.00000000000E+00 -0.00000000000E+00 -0.45593999997E+02  0.45594000000E+02  0.51100000000E-03 0. -1.
    9900012    2    1    2    0    0 -0.15538336252E+02  0.10907846242E+02  0.39028222156E+02  0.47787272728E+02  0.20000007675E+02 0.  0.
         12    1    1    2    0    0  0.15538336252E+02 -0.10907846242E+02 -0.39028222156E+02  0.43400727272E+02  0.00000000000E+00 0. -1.
         11    1    3    3    0    0 -0.31304663741E+01 -0.22232030161E+01  0.11809894904E+01  0.40171118740E+01  0.51100000000E-03 0. -1.
        -11    1    3    3    0    0 -0.40733296841E+01  0.32470454592E+01  0.25024068658E+02  0.25560503348E+02  0.51100000000E-03 0.  1.
        -12    1    3    3    0    0 -0.83345401941E+01  0.98840037985E+01  0.12823164007E+02  0.18209657506E+02  0.00000000000E+00 0.  1.
</event>
<event>
 7    1  0.1246400E-009  0.4778727E+02  0.7816164E-02  0.1312668E+00
        -11   -1    0    0    0    0  0.00000000000E+00  0.00000000000E+00  0.45593999997E+02  0.45594000000E+02  0.51100000000E-03 0. -1.
         11   -1    0    0    0    0 -0.00000000000E+00 -0.00000000000E+00 -0.45593999997E+02  0.45594000000E+02  0.51100000000E-03 0.  1.
    9900012    2    1    2    0    0  0.39158743749E+01 -0.28102784389E+02 -0.32840869177E+02  0.47787271310E+02  0.20000001209E+02 0.  0.
         12    1    1    2    0    0 -0.39158743749E+01  0.28102784389E+02  0.32840869177E+02  0.43400728690E+02  0.00000000000E+00 0. -1.
         11    1    3    3    0    0  0.48891446778E+00 -0.11439738789E+02 -0.17552689863E+02  0.20957184511E+02  0.51100000000E-03 0.  1.
        -11    1    3    3    0    0 -0.37679300342E+01 -0.13062480637E+02 -0.12017600189E+02  0.18145203545E+02  0.51100000000E-03 0. -1.
         12    1    3    3    0    0  0.71948899413E+01 -0.36005649629E+01 -0.32705791254E+01  0.86848832540E+01  0.00000000000E+00 0. -1.
</event>
<event>
 7    1  0.1246400E-009  0.4778727E+02  0.7816164E-02  0.1312668E+00
        -11   -1    0    0    0    0  0.00000000000E+00  0.00000000000E+00  0.45593999997E+02  0.45594000000E+02  0.51100000000E-03 0.  1.
         11   -1    0    0    0    0 -0.00000000000E+00 -0.00000000000E+00 -0.45593999997E+02  0.45594000000E+02  0.51100000000E-03 0. -1.
    9900012    2    1    2    0    0 -0.45225439024E+01 -0.35477693001E+02  0.24586656603E+02  0.47787265134E+02  0.19999973050E+02 0.  0.
         12    1    1    2    0    0  0.45225439024E+01  0.35477693001E+02 -0.24586656603E+02  0.43400734866E+02  0.00000000000E+00 0. -1.
         11    1    3    3    0    0 -0.73073911230E+01 -0.12489293917E+02  0.99303619463E+01  0.17549715559E+02  0.51100000000E-03 0. -1.
        -11    1    3    3    0    0  0.64837542942E+01 -0.93829473405E+01  0.26267341712E+01  0.11703781577E+02  0.51100000000E-03 0.  1.
         12    1    3    3    0    0 -0.36989070736E+01 -0.13605451744E+02  0.12029560486E+02  0.18533767997E+02  0.00000000000E+00 0. -1.
</event>
<event>
 7    1  0.1499549E-009  0.4778727E+02  0.7816164E-02  0.1312668E+00
        -11   -1    0    0    0    0  0.00000000000E+00  0.00000000000E+00  0.45593999997E+02  0.45594000000E+02  0.51100000000E-03 0.  1.
         11   -1    0    0    0    0 -0.00000000000E+00 -0.00000000000E+00 -0.45593999997E+02  0.45594000000E+02  0.51100000000E-03 0. -1.
    9900012    2    1    2    0    0 -0.32327783488E+02  0.28144914702E+02 -0.68118564886E+01  0.47787271923E+02  0.20000004005E+02 0.  0.
         12    1    1    2    0    0  0.32327783488E+02 -0.28144914702E+02  0.68118564886E+01  0.43400728077E+02  0.00000000000E+00 0. -1.
         11    1    3    3    0    0 -0.38984363107E+00  0.54468189206E+01  0.25432847026E+00  0.54666715323E+01  0.51100000000E-03 0.  1.
        -11    1    3    3    0    0 -0.28792040291E+02  0.24551396246E+02 -0.51207456637E+01  0.38183434604E+02  0.51100000000E-03 0. -1.
         12    1    3    3    0    0 -0.31458995663E+01 -0.18533004650E+01 -0.19454392951E+01  0.41371657866E+01  0.00000000000E+00 0. -1.
</event>
<event>
 7    1  0.1246400E-009  0.4778726E+02  0.7816164E-02  0.1312668E+00
        -11   -1    0    0    0    0  0.00000000000E+00  0.00000000000E+00  0.45593999997E+02  0.45594000000E+02  0.51100000000E-03 0.  1.
         11   -1    0    0    0    0 -0.00000000000E+00 -0.00000000000E+00 -0.45593999997E+02  0.45594000000E+02  0.51100000000E-03 0. -1.
    9900012    2    1    2    0    0 -0.33086209175E+02  0.60985540543E+01  0.27417777478E+02  0.47787261285E+02  0.19999955503E+02 0.  0.
         12    1    1    2    0    0  0.33086209175E+02 -0.60985540543E+01 -0.27417777478E+02  0.43400738715E+02  0.00000000000E+00 0. -1.
         11    1    3    3    0    0 -0.10722224346E+02 -0.52372735935E+01  0.74401493521E+01  0.14062394969E+02  0.51100000000E-03 0. -1.
        -11    1    3    3    0    0 -0.16471615476E+02  0.57361330935E+01  0.78546071293E+01  0.19128831451E+02  0.51100000000E-03 0.  1.
         12    1    3    3    0    0 -0.58923693534E+01  0.55996945543E+01  0.12123020997E+02  0.14596034865E+02  0.00000000000E+00 0. -1.
</event>
<event>
 7    1  0.1246400E-009  0.4778727E+02  0.7816164E-02  0.1312668E+00
        -11   -1    0    0    0    0  0.00000000000E+00  0.00000000000E+00  0.45593999997E+02  0.45594000000E+02  0.51100000000E-03 0.  1.
         11   -1    0    0    0    0 -0.00000000000E+00 -0.00000000000E+00 -0.45593999997E+02  0.45594000000E+02  0.51100000000E-03 0. -1.
    9900012    2    1    2    0    0  0.16080348538E+02 -0.26245741976E+02  0.30597492337E+02  0.47787272837E+02  0.20000008172E+02 0.  0.
         12    1    1    2    0    0 -0.16080348538E+02  0.26245741976E+02 -0.30597492337E+02  0.43400727163E+02  0.00000000000E+00 0. -1.
         11    1    3    3    0    0  0.97920624524E+00 -0.15184362308E+02  0.18899413466E+02  0.24263378438E+02  0.51100000000E-03 0.  1.
        -11    1    3    3    0    0  0.22541487088E+01 -0.41666708906E+01 -0.14543200092E+00  0.47395657438E+01  0.51100000000E-03 0. -1.
        -12    1    3    3    0    0  0.12846993584E+02 -0.68947087771E+01  0.11843510872E+02  0.18784328655E+02  0.00000000000E+00 0.  1.
</event>
<event>
 7    1  0.1246400E-009  0.4778727E+02  0.7816164E-02  0.1312668E+00
        -11   -1    0    0    0    0  0.00000000000E+00  0.00000000000E+00  0.45593999997E+02  0.45594000000E+02  0.51100000000E-03 0.  1.
         11   -1    0    0    0    0 -0.00000000000E+00 -0.00000000000E+00 -0.45593999997E+02  0.45594000000E+02  0.51100000000E-03 0. -1.
    9900012    2    1    2    0    0 -0.11607116323E+02 -0.59217614164E+01  0.41398440254E+02  0.47787271169E+02  0.20000000568E+02 0.  0.
         12    1    1    2    0    0  0.11607116323E+02  0.59217614164E+01 -0.41398440254E+02  0.43400728831E+02  0.00000000000E+00 0. -1.
         11    1    3    3    0    0 -0.88485922699E+01 -0.96216378190E+01  0.21107370005E+02  0.24827294824E+02  0.51100000000E-03 0. -1.
        -11    1    3    3    0    0  0.21527577379E+01  0.84336185468E+00  0.49465411834E+00  0.23643832291E+01  0.51100000000E-03 0.  1.
        -12    1    3    3    0    0 -0.49112817914E+01  0.28565145480E+01  0.19796416131E+02  0.20595593116E+02  0.00000000000E+00 0.  1.
</event>
<event>
 7    1  0.1246400E-009  0.4778727E+02  0.7816164E-02  0.1312668E+00
        -11   -1    0    0    0    0  0.00000000000E+00  0.00000000000E+00  0.45593999997E+02  0.45594000000E+02  0.51100000000E-03 0.  1.
         11   -1    0    0    0    0 -0.00000000000E+00 -0.00000000000E+00 -0.45593999997E+02  0.45594000000E+02  0.51100000000E-03 0. -1.
    9900012    2    1    2    0    0 -0.15223924791E+02  0.36581400908E+02  0.17710347249E+02  0.47787272147E+02  0.20000005029E+02 0.  0.
         12    1    1    2    0    0  0.15223924791E+02 -0.36581400908E+02 -0.17710347249E+02  0.43400727853E+02  0.00000000000E+00 0. -1.
         11    1    3    3    0    0 -0.75799779841E+01  0.18123486105E+02  0.76736364544E+00  0.19659747254E+02  0.51100000000E-03 0. -1.
        -11    1    3    3    0    0 -0.91023939680E+01  0.96879990134E+01  0.79869589854E+01  0.15508140280E+02  0.51100000000E-03 0.  1.
        -12    1    3    3    0    0  0.14584471613E+01  0.87699157893E+01  0.89560246186E+01  0.12619384614E+02  0.00000000000E+00 0.  1.
</event>
<event>
 7    1  0.1246400E-009  0.4778727E+02  0.7816164E-02  0.1312668E+00
        -11   -1    0    0    0    0  0.00000000000E+00  0.00000000000E+00  0.45593999997E+02  0.45594000000E+02  0.51100000000E-03 0. -1.
         11   -1    0    0    0    0 -0.00000000000E+00 -0.00000000000E+00 -0.45593999997E+02  0.45594000000E+02  0.51100000000E-03 0.  1.
    9900012    2    1    2    0    0 -0.17386782699E+02  0.12521928419E+01 -0.39746135255E+02  0.47787268817E+02  0.19999989843E+02 0.  0.
         12    1    1    2    0    0  0.17386782699E+02 -0.12521928419E+01  0.39746135255E+02  0.43400731183E+02  0.00000000000E+00 0. -1.
         11    1    3    3    0    0  0.29596968312E+01  0.16145376558E+01 -0.10789622197E+02  0.11304091498E+02  0.51100000000E-03 0. -1.
        -11    1    3    3    0    0 -0.11214248374E+02  0.37673555700E+01 -0.12466462803E+02  0.17186187177E+02  0.51100000000E-03 0.  1.
        -12    1    3    3    0    0 -0.91322311558E+01 -0.41297003840E+01 -0.16490050255E+02  0.19296990142E+02  0.00000000000E+00 0.  1.
</event>
<event>
 7    1  0.1246400E-009  0.4778727E+02  0.7816164E-02  0.1312668E+00
        -11   -1    0    0    0    0  0.00000000000E+00  0.00000000000E+00  0.45593999997E+02  0.45594000000E+02  0.51100000000E-03 0. -1.
         11   -1    0    0    0    0 -0.00000000000E+00 -0.00000000000E+00 -0.45593999997E+02  0.45594000000E+02  0.51100000000E-03 0.  1.
    9900012    2    1    2    0    0 -0.12638188506E+02 -0.41300770557E+02 -0.42598043812E+01  0.47787269699E+02  0.19999993864E+02 0.  0.
         12    1    1    2    0    0  0.12638188506E+02  0.41300770557E+02  0.42598043812E+01  0.43400730301E+02  0.00000000000E+00 0. -1.
         11    1    3    3    0    0 -0.42719855867E+01 -0.30402956489E+01 -0.40761838931E+01  0.66414255907E+01  0.51100000000E-03 0. -1.
        -11    1    3    3    0    0 -0.42327676421E+01 -0.40844448772E+01  0.29463704076E+01  0.65787620954E+01  0.51100000000E-03 0.  1.
        -12    1    3    3    0    0 -0.41334352771E+01 -0.34176030031E+02 -0.31299908956E+01  0.34567082013E+02  0.00000000000E+00 0.  1.
</event>
<event>
 7    1  0.1246400E-009  0.4778726E+02  0.7816164E-02  0.1312668E+00
        -11   -1    0    0    0    0  0.00000000000E+00  0.00000000000E+00  0.45593999997E+02  0.45594000000E+02  0.51100000000E-03 0.  1.
         11   -1    0    0    0    0 -0.00000000000E+00 -0.00000000000E+00 -0.45593999997E+02  0.45594000000E+02  0.51100000000E-03 0. -1.
    9900012    2    1    2    0    0 -0.48955691742E+01  0.34485718899E+02  0.25891943371E+02  0.47787261100E+02  0.19999954661E+02 0.  0.
         12    1    1    2    0    0  0.48955691742E+01 -0.34485718899E+02 -0.25891943371E+02  0.43400738900E+02  0.00000000000E+00 0. -1.
         11    1    3    3    0    0 -0.28711454728E+01  0.38449250891E+01  0.77473555735E+01  0.91130918963E+01  0.51100000000E-03 0. -1.
        -11    1    3    3    0    0 -0.17001067501E+01  0.24968219040E+02  0.67166616707E+01  0.25911693678E+02  0.51100000000E-03 0.  1.
        -12    1    3    3    0    0 -0.32431695126E+00  0.56725747700E+01  0.11427926127E+02  0.12762475527E+02  0.00000000000E+00 0.  1.
</event>
<event>
 7    1  0.1246400E-009  0.4778727E+02  0.7816164E-02  0.1312668E+00
        -11   -1    0    0    0    0  0.00000000000E+00  0.00000000000E+00  0.45593999997E+02  0.45594000000E+02  0.51100000000E-03 0.  1.
         11   -1    0    0    0    0 -0.00000000000E+00 -0.00000000000E+00 -0.45593999997E+02  0.45594000000E+02  0.51100000000E-03 0. -1.
    9900012    2    1    2    0    0 -0.27186667326E+02  0.28858127010E+02  0.17655516037E+02  0.47787267042E+02  0.19999981750E+02 0.  0.
         12    1    1    2    0    0  0.27186667326E+02 -0.28858127010E+02 -0.17655516037E+02  0.43400732958E+02  0.00000000000E+00 0. -1.
         11    1    3    3    0    0 -0.69393846213E+01  0.15496046764E+02  0.11105287890E+02  0.20288172506E+02  0.51100000000E-03 0. -1.
        -11    1    3    3    0    0  0.23328468692E+00  0.35559224164E+00  0.29397797608E+01  0.29703826169E+01  0.51100000000E-03 0.  1.
        -12    1    3    3    0    0 -0.20480567391E+02  0.13006488005E+02  0.36104483857E+01  0.24528711919E+02  0.00000000000E+00 0.  1.
</event>
<event>
 7    1  0.1246400E-009  0.4778727E+02  0.7816164E-02  0.1312668E+00
        -11   -1    0    0    0    0  0.00000000000E+00  0.00000000000E+00  0.45593999997E+02  0.45594000000E+02  0.51100000000E-03 0. -1.
         11   -1    0    0    0    0 -0.00000000000E+00 -0.00000000000E+00 -0.45593999997E+02  0.45594000000E+02  0.51100000000E-03 0.  1.
    9900012    2    1    2    0    0 -0.14412466087E+02 -0.24180617730E+01 -0.40866328569E+02  0.47787274060E+02  0.20000013747E+02 0.  0.
         12    1    1    2    0    0  0.14412466087E+02  0.24180617730E+01  0.40866328569E+02  0.43400725940E+02  0.00000000000E+00 0. -1.
         11    1    3    3    0    0  0.15266223309E+01 -0.77018089269E+01 -0.11301859982E+02  0.13761557899E+02  0.51100000000E-03 0. -1.
        -11    1    3    3    0    0 -0.74601322189E+01  0.21863658429E+01 -0.12484403626E+02  0.14706940623E+02  0.51100000000E-03 0.  1.
         12    1    3    3    0    0 -0.84789561994E+01  0.30973813110E+01 -0.17080064961E+02  0.19318775538E+02  0.00000000000E+00 0. -1.
</event>
<event>
 7    1  0.1246400E-009  0.4778727E+02  0.7816164E-02  0.1312668E+00
        -11   -1    0    0    0    0  0.00000000000E+00  0.00000000000E+00  0.45593999997E+02  0.45594000000E+02  0.51100000000E-03 0. -1.
         11   -1    0    0    0    0 -0.00000000000E+00 -0.00000000000E+00 -0.45593999997E+02  0.45594000000E+02  0.51100000000E-03 0.  1.
    9900012    2    1    2    0    0 -0.14499679009E+02  0.29883550911E+02  0.27934849662E+02  0.47787272678E+02  0.20000007450E+02 0.  0.
         12    1    1    2    0    0  0.14499679009E+02 -0.29883550911E+02 -0.27934849662E+02  0.43400727322E+02  0.00000000000E+00 0. -1.
         11    1    3    3    0    0 -0.33820021268E+01  0.38199681276E+01 -0.16875933243E+01  0.53738316285E+01  0.51100000000E-03 0. -1.
        -11    1    3    3    0    0 -0.39767694735E+01  0.76042009862E+00  0.35183047929E+01  0.53638981207E+01  0.51100000000E-03 0.  1.
        -12    1    3    3    0    0 -0.71409074091E+01  0.25303162685E+02  0.26104138193E+02  0.37049542929E+02  0.00000000000E+00 0.  1.
</event>
<event>
 7    1  0.1246400E-009  0.4778727E+02  0.7816164E-02  0.1312668E+00
        -11   -1    0    0    0    0  0.00000000000E+00  0.00000000000E+00  0.45593999997E+02  0.45594000000E+02  0.51100000000E-03 0.  1.
         11   -1    0    0    0    0 -0.00000000000E+00 -0.00000000000E+00 -0.45593999997E+02  0.45594000000E+02  0.51100000000E-03 0. -1.
    9900012    2    1    2    0    0 -0.38802649214E+02  0.16721859330E+02  0.99175397627E+01  0.47787265439E+02  0.19999974445E+02 0.  0.
         12    1    1    2    0    0  0.38802649214E+02 -0.16721859330E+02 -0.99175397627E+01  0.43400734561E+02  0.00000000000E+00 0. -1.
         11    1    3    3    0    0 -0.45077385334E+01 -0.13673747497E+01  0.62868219004E+01  0.78557972390E+01  0.51100000000E-03 0. -1.
        -11    1    3    3    0    0 -0.15455200874E+02  0.36938291057E+01 -0.32487664542E+00  0.15893808625E+02  0.51100000000E-03 0.  1.
        -12    1    3    3    0    0 -0.18839709806E+02  0.14395404974E+02  0.39555945076E+01  0.24037659575E+02  0.00000000000E+00 0.  1.
</event>
<event>
 7    1  0.1246400E-009  0.4778727E+02  0.7816164E-02  0.1312668E+00
        -11   -1    0    0    0    0  0.00000000000E+00  0.00000000000E+00  0.45593999997E+02  0.45594000000E+02  0.51100000000E-03 0.  1.
         11   -1    0    0    0    0 -0.00000000000E+00 -0.00000000000E+00 -0.45593999997E+02  0.45594000000E+02  0.51100000000E-03 0. -1.
    9900012    2    1    2    0    0 -0.41548910687E+02 -0.53930959556E+00  0.12530788399E+02  0.47787268531E+02  0.19999988541E+02 0.  0.
         12    1    1    2    0    0  0.41548910687E+02  0.53930959556E+00 -0.12530788399E+02  0.43400731469E+02  0.00000000000E+00 0. -1.
         11    1    3    3    0    0 -0.14021262354E+02  0.74284423057E+01  0.10299902816E+02  0.18917334679E+02  0.51100000000E-03 0. -1.
        -11    1    3    3    0    0 -0.14025070488E+02 -0.30271474730E+01  0.20261719302E+01  0.14490396716E+02  0.51100000000E-03 0.  1.
         12    1    3    3    0    0 -0.13502577845E+02 -0.49406044284E+01  0.20471365314E+00  0.14379537137E+02  0.00000000000E+00 0. -1.
</event>
<event>
 7    1  0.1246400E-009  0.4778727E+02  0.7816164E-02  0.1312668E+00
        -11   -1    0    0    0    0  0.00000000000E+00  0.00000000000E+00  0.45593999997E+02  0.45594000000E+02  0.51100000000E-03 0.  1.
         11   -1    0    0    0    0 -0.00000000000E+00 -0.00000000000E+00 -0.45593999997E+02  0.45594000000E+02  0.51100000000E-03 0. -1.
    9900012    2    1    2    0    0 -0.77206235085E+01 -0.33537080313E+02  0.26443899947E+02  0.47787266968E+02  0.19999981416E+02 0.  0.
         12    1    1    2    0    0  0.77206235085E+01  0.33537080313E+02 -0.26443899947E+02  0.43400733032E+02  0.00000000000E+00 0. -1.
         11    1    3    3    0    0 -0.44031936355E+00 -0.11046050094E+02  0.27765199536E+01  0.11398165077E+02  0.51100000000E-03 0. -1.
        -11    1    3    3    0    0 -0.32451977413E+01  0.11506091132E+01  0.46211782836E+01  0.57628550825E+01  0.51100000000E-03 0.  1.
        -12    1    3    3    0    0 -0.40351064037E+01 -0.23641639332E+02  0.19046201710E+02  0.30626246809E+02  0.00000000000E+00 0.  1.
</event>
<event>
 7    1  0.1246400E-009  0.4778728E+02  0.7816164E-02  0.1312668E+00
        -11   -1    0    0    0    0  0.00000000000E+00  0.00000000000E+00  0.45593999997E+02  0.45594000000E+02  0.51100000000E-03 0.  1.
         11   -1    0    0    0    0 -0.00000000000E+00 -0.00000000000E+00 -0.45593999997E+02  0.45594000000E+02  0.51100000000E-03 0. -1.
    9900012    2    1    2    0    0 -0.52673167714E+01 -0.29299854653E+02  0.31581588341E+02  0.47787276149E+02  0.20000023273E+02 0.  0.
         12    1    1    2    0    0  0.52673167714E+01  0.29299854653E+02 -0.31581588341E+02  0.43400723851E+02  0.00000000000E+00 0. -1.
         11    1    3    3    0    0  0.39717577214E+01 -0.49221951279E+01  0.22480032495E+01  0.67124051685E+01  0.51100000000E-03 0. -1.
        -11    1    3    3    0    0 -0.36164341459E+01 -0.82237071342E+01  0.19190022580E+02  0.21188792364E+02  0.51100000000E-03 0.  1.
         12    1    3    3    0    0 -0.56226403469E+01 -0.16153952391E+02  0.10143562512E+02  0.19886078617E+02  0.00000000000E+00 0. -1.
</event>
<event>
 7    1  0.1246400E-009  0.4778727E+02  0.7816164E-02  0.1312668E+00
        -11   -1    0    0    0    0  0.00000000000E+00  0.00000000000E+00  0.45593999997E+02  0.45594000000E+02  0.51100000000E-03 0. -1.
         11   -1    0    0    0    0 -0.00000000000E+00 -0.00000000000E+00 -0.45593999997E+02  0.45594000000E+02  0.51100000000E-03 0.  1.
    9900012    2    1    2    0    0  0.39354286408E+02  0.17601540747E+02 -0.50049394604E+01  0.47787268274E+02  0.19999987370E+02 0.  0.
         12    1    1    2    0    0 -0.39354286408E+02 -0.17601540747E+02  0.50049394604E+01  0.43400731726E+02  0.00000000000E+00 0. -1.
         11    1    3    3    0    0  0.23963992473E+02  0.11314890328E+02 -0.72742579951E+00  0.26510919014E+02  0.51100000000E-03 0. -1.
        -11    1    3    3    0    0  0.13357958231E+02  0.33290561836E+01 -0.81489099037E+01  0.15997574693E+02  0.51100000000E-03 0.  1.
         12    1    3    3    0    0  0.20323357037E+01  0.29575942351E+01  0.38713962428E+01  0.52787745681E+01  0.00000000000E+00 0. -1.
</event>
<event>
 7    1  0.1246400E-009  0.4778729E+02  0.7816164E-02  0.1312668E+00
        -11   -1    0    0    0    0  0.00000000000E+00  0.00000000000E+00  0.45593999997E+02  0.45594000000E+02  0.51100000000E-03 0. -1.
         11   -1    0    0    0    0 -0.00000000000E+00 -0.00000000000E+00 -0.45593999997E+02  0.45594000000E+02  0.51100000000E-03 0.  1.
    9900012    2    1    2    0    0 -0.43199576735E+02  0.41621476777E+01  0.30830049908E+00  0.47787286267E+02  0.20000069406E+02 0.  0.
         12    1    1    2    0    0  0.43199576735E+02 -0.41621476777E+01 -0.30830049908E+00  0.43400713733E+02  0.00000000000E+00 0. -1.
         11    1    3    3    0    0 -0.17288117320E+02 -0.35197404393E+01 -0.24562508028E+01  0.17812937475E+02  0.51100000000E-03 0. -1.
        -11    1    3    3    0    0 -0.11185479164E+02  0.38764404273E+00 -0.44272926601E+01  0.12036034754E+02  0.51100000000E-03 0.  1.
         12    1    3    3    0    0 -0.14725980250E+02  0.72942440743E+01  0.71918439619E+01  0.17938314038E+02  0.00000000000E+00 0. -1.
</event>
<event>
 7    1  0.1246400E-009  0.4778726E+02  0.7816164E-02  0.1312668E+00
        -11   -1    0    0    0    0  0.00000000000E+00  0.00000000000E+00  0.45593999997E+02  0.45594000000E+02  0.51100000000E-03 0.  1.
         11   -1    0    0    0    0 -0.00000000000E+00 -0.00000000000E+00 -0.45593999997E+02  0.45594000000E+02  0.51100000000E-03 0. -1.
    9900012    2    1    2    0    0 -0.84760601931E+01  0.82856366726E+01  0.41750789594E+02  0.47787264947E+02  0.19999972197E+02 0.  0.
         12    1    1    2    0    0  0.84760601931E+01 -0.82856366726E+01 -0.41750789594E+02  0.43400735053E+02  0.00000000000E+00 0. -1.
         11    1    3    3    0    0  0.15342958186E+01  0.23672434610E+01  0.59715910640E+01  0.66043777420E+01  0.51100000000E-03 0.  1.
        -11    1    3    3    0    0 -0.66106175213E+00  0.99215444271E+01  0.21089468464E+02  0.23316083007E+02  0.51100000000E-03 0. -1.
         12    1    3    3    0    0 -0.93492942596E+01 -0.40031512155E+01  0.14689730066E+02  0.17866804197E+02  0.00000000000E+00 0. -1.
</event>
<event>
 7    1  0.1246400E-009  0.4778727E+02  0.7816164E-02  0.1312668E+00
        -11   -1    0    0    0    0  0.00000000000E+00  0.00000000000E+00  0.45593999997E+02  0.45594000000E+02  0.51100000000E-03 0.  1.
         11   -1    0    0    0    0 -0.00000000000E+00 -0.00000000000E+00 -0.45593999997E+02  0.45594000000E+02  0.51100000000E-03 0. -1.
    9900012    2    1    2    0    0 -0.29132884285E+02 -0.16916291459E+01  0.32125332481E+02  0.47787267944E+02  0.19999985866E+02 0.  0.
         12    1    1    2    0    0  0.29132884285E+02  0.16916291459E+01 -0.32125332481E+02  0.43400732056E+02  0.00000000000E+00 0. -1.
         11    1    3    3    0    0 -0.21414675907E+02  0.60369958600E+01  0.17671619421E+02  0.28413373549E+02  0.51100000000E-03 0. -1.
        -11    1    3    3    0    0  0.10983618661E+01 -0.93904342406E+00  0.33752414775E+01  0.36715741357E+01  0.51100000000E-03 0.  1.
        -12    1    3    3    0    0 -0.88165702442E+01 -0.67895815818E+01  0.11078471583E+02  0.15702320260E+02  0.00000000000E+00 0.  1.
</event>
<event>
 7    1  0.1246400E-009  0.4778727E+02  0.7816164E-02  0.1312668E+00
        -11   -1    0    0    0    0  0.00000000000E+00  0.00000000000E+00  0.45593999997E+02  0.45594000000E+02  0.51100000000E-03 0.  1.
         11   -1    0    0    0    0 -0.00000000000E+00 -0.00000000000E+00 -0.45593999997E+02  0.45594000000E+02  0.51100000000E-03 0. -1.
    9900012    2    1    2    0    0  0.42349539043E+02  0.81675030816E-01 -0.94938331752E+01  0.47787274242E+02  0.20000014579E+02 0.  0.
         12    1    1    2    0    0 -0.42349539043E+02 -0.81675030816E-01  0.94938331752E+01  0.43400725758E+02  0.00000000000E+00 0. -1.
         11    1    3    3    0    0  0.11901635516E+02 -0.34055371603E+01 -0.12278095533E+01  0.12440021216E+02  0.51100000000E-03 0. -1.
        -11    1    3    3    0    0  0.89383586415E-01  0.37695171410E+01 -0.22694664760E+01  0.44008780089E+01  0.51100000000E-03 0.  1.
        -12    1    3    3    0    0  0.30358519941E+02 -0.28230494991E+00 -0.59965571459E+01  0.30946375017E+02  0.00000000000E+00 0.  1.
</event>
<event>
 7    1  0.1246400E-009  0.4778726E+02  0.7816164E-02  0.1312668E+00
        -11   -1    0    0    0    0  0.00000000000E+00  0.00000000000E+00  0.45593999997E+02  0.45594000000E+02  0.51100000000E-03 0. -1.
         11   -1    0    0    0    0 -0.00000000000E+00 -0.00000000000E+00 -0.45593999997E+02  0.45594000000E+02  0.51100000000E-03 0.  1.
    9900012    2    1    2    0    0 -0.40235201611E+02 -0.14064835486E+02  0.81812513102E+01  0.47787263613E+02  0.19999966116E+02 0.  0.
         12    1    1    2    0    0  0.40235201611E+02  0.14064835486E+02 -0.81812513102E+01  0.43400736387E+02  0.00000000000E+00 0. -1.
         11    1    3    3    0    0 -0.57261756809E+01 -0.55550389706E+01 -0.12390026826E+01  0.80735787481E+01  0.51100000000E-03 0. -1.
        -11    1    3    3    0    0 -0.24713956575E+02 -0.12854420127E+02  0.71606207425E+01  0.28762653843E+02  0.51100000000E-03 0.  1.
        -12    1    3    3    0    0 -0.97950693553E+01  0.43446236122E+01  0.22596332503E+01  0.10951031021E+02  0.00000000000E+00 0.  1.
</event>
<event>
 7    1  0.1246400E-009  0.4778727E+02  0.7816164E-02  0.1312668E+00
        -11   -1    0    0    0    0  0.00000000000E+00  0.00000000000E+00  0.45593999997E+02  0.45594000000E+02  0.51100000000E-03 0.  1.
         11   -1    0    0    0    0 -0.00000000000E+00 -0.00000000000E+00 -0.45593999997E+02  0.45594000000E+02  0.51100000000E-03 0. -1.
    9900012    2    1    2    0    0 -0.25590585410E+02  0.23143604583E+02  0.26327155143E+02  0.47787267372E+02  0.19999983256E+02 0.  0.
         12    1    1    2    0    0  0.25590585410E+02 -0.23143604583E+02 -0.26327155143E+02  0.43400732628E+02  0.00000000000E+00 0. -1.
         11    1    3    3    0    0 -0.48238966978E+01  0.89053266732E+01  0.13678898107E+02  0.17020196127E+02  0.51100000000E-03 0.  1.
        -11    1    3    3    0    0 -0.18154428340E+01  0.42082264627E+01 -0.17866846361E+01  0.49190695151E+01  0.51100000000E-03 0. -1.
        -12    1    3    3    0    0 -0.18951245878E+02  0.10030051447E+02  0.14434941672E+02  0.25848001730E+02  0.00000000000E+00 0.  1.
</event>
<event>
 7    1  0.1246400E-009  0.4778727E+02  0.7816164E-02  0.1312668E+00
        -11   -1    0    0    0    0  0.00000000000E+00  0.00000000000E+00  0.45593999997E+02  0.45594000000E+02  0.51100000000E-03 0. -1.
         11   -1    0    0    0    0 -0.00000000000E+00 -0.00000000000E+00 -0.45593999997E+02  0.45594000000E+02  0.51100000000E-03 0.  1.
    9900012    2    1    2    0    0 -0.26792520890E+02  0.13595911850E+02 -0.31319888528E+02  0.47787269452E+02  0.19999992738E+02 0.  0.
         12    1    1    2    0    0  0.26792520890E+02 -0.13595911850E+02  0.31319888528E+02  0.43400730548E+02  0.00000000000E+00 0. -1.
         11    1    3    3    0    0 -0.48343690319E+01  0.57749845341E+01 -0.16858667225E+02  0.18464458594E+02  0.51100000000E-03 0. -1.
        -11    1    3    3    0    0 -0.45809008174E+01 -0.25180382202E+01 -0.21703363707E+01  0.56599937279E+01  0.51100000000E-03 0.  1.
        -12    1    3    3    0    0 -0.17377251041E+02  0.10338965536E+02 -0.12290884933E+02  0.23662817130E+02  0.00000000000E+00 0.  1.
</event>
<event>
 7    1  0.1246400E-009  0.4778727E+02  0.7816164E-02  0.1312668E+00
        -11   -1    0    0    0    0  0.00000000000E+00  0.00000000000E+00  0.45593999997E+02  0.45594000000E+02  0.51100000000E-03 0.  1.
         11   -1    0    0    0    0 -0.00000000000E+00 -0.00000000000E+00 -0.45593999997E+02  0.45594000000E+02  0.51100000000E-03 0. -1.
    9900012    2    1    2    0    0 -0.25200436452E+02  0.26245866110E+02 -0.23658320282E+02  0.47787267243E+02  0.19999982670E+02 0.  0.
         12    1    1    2    0    0  0.25200436452E+02 -0.26245866110E+02  0.23658320282E+02  0.43400732757E+02  0.00000000000E+00 0. -1.
         11    1    3    3    0    0 -0.20342464532E+02  0.18426123406E+02 -0.19505139990E+02  0.33671774133E+02  0.51100000000E-03 0. -1.
        -11    1    3    3    0    0 -0.46811474133E+00  0.78907856564E+01 -0.53740750106E+01  0.95584680868E+01  0.51100000000E-03 0.  1.
         12    1    3    3    0    0 -0.43898571789E+01 -0.71042952350E-01  0.12208947180E+01  0.45570250235E+01  0.00000000000E+00 0. -1.
</event>
<event>
 7    1  0.1246400E-009  0.4778727E+02  0.7816164E-02  0.1312668E+00
        -11   -1    0    0    0    0  0.00000000000E+00  0.00000000000E+00  0.45593999997E+02  0.45594000000E+02  0.51100000000E-03 0.  1.
         11   -1    0    0    0    0 -0.00000000000E+00 -0.00000000000E+00 -0.45593999997E+02  0.45594000000E+02  0.51100000000E-03 0. -1.
    9900012    2    1    2    0    0  0.31130225811E+02  0.16187348855E+02  0.25544125176E+02  0.47787267829E+02  0.19999985339E+02 0.  0.
         12    1    1    2    0    0 -0.31130225811E+02 -0.16187348855E+02 -0.25544125176E+02  0.43400732171E+02  0.00000000000E+00 0. -1.
         11    1    3    3    0    0  0.10294351931E+02  0.92089602078E+01  0.68432341922E+01  0.15414554299E+02  0.51100000000E-03 0. -1.
        -11    1    3    3    0    0  0.13128393163E+02  0.44370309037E-01  0.17585230341E+02  0.21945318457E+02  0.51100000000E-03 0.  1.
         12    1    3    3    0    0  0.77074807175E+01  0.69340183379E+01  0.11156606420E+01  0.10427395072E+02  0.00000000000E+00 0. -1.
</event>
<event>
 7    1  0.1246400E-009  0.4778727E+02  0.7816164E-02  0.1312668E+00
        -11   -1    0    0    0    0  0.00000000000E+00  0.00000000000E+00  0.45593999997E+02  0.45594000000E+02  0.51100000000E-03 0. -1.
         11   -1    0    0    0    0 -0.00000000000E+00 -0.00000000000E+00 -0.45593999997E+02  0.45594000000E+02  0.51100000000E-03 0.  1.
    9900012    2    1    2    0    0  0.21767924619E+02  0.18892377313E+02 -0.32447791064E+02  0.47787267198E+02  0.19999982464E+02 0.  0.
         12    1    1    2    0    0 -0.21767924619E+02 -0.18892377313E+02  0.32447791064E+02  0.43400732802E+02  0.00000000000E+00 0. -1.
         11    1    3    3    0    0  0.44696195986E+00  0.68366187112E+00 -0.46816813439E+01  0.47524003424E+01  0.51100000000E-03 0. -1.
        -11    1    3    3    0    0  0.28765073546E+01  0.89965468569E+01 -0.17765730374E+02  0.20120470320E+02  0.51100000000E-03 0.  1.
         12    1    3    3    0    0  0.18444455305E+02  0.92121685854E+01 -0.10000379346E+02  0.22914396536E+02  0.00000000000E+00 0. -1.
</event>
<event>
 7    1  0.1462151E-009  0.4778727E+02  0.7816164E-02  0.1312668E+00
        -11   -1    0    0    0    0  0.00000000000E+00  0.00000000000E+00  0.45593999997E+02  0.45594000000E+02  0.51100000000E-03 0.  1.
         11   -1    0    0    0    0 -0.00000000000E+00 -0.00000000000E+00 -0.45593999997E+02  0.45594000000E+02  0.51100000000E-03 0. -1.
    9900012    2    1    2    0    0  0.30299483376E+02  0.30980463406E+02  0.24032492871E+01  0.47787269444E+02  0.19999992701E+02 0.  0.
         12    1    1    2    0    0 -0.30299483376E+02 -0.30980463406E+02 -0.24032492871E+01  0.43400730556E+02  0.00000000000E+00 0. -1.
         11    1    3    3    0    0 -0.18583659283E+01  0.24401107257E+01  0.10505403211E+01  0.32421134318E+01  0.51100000000E-03 0. -1.
        -11    1    3    3    0    0  0.14417440140E+02  0.16354652584E+02 -0.44554427623E+01  0.22252824805E+02  0.51100000000E-03 0.  1.
        -12    1    3    3    0    0  0.17740409164E+02  0.12185700097E+02  0.58081517283E+01  0.22292331207E+02  0.00000000000E+00 0.  1.
</event>
<event>
 7    1  0.1246400E-009  0.4778727E+02  0.7816164E-02  0.1312668E+00
        -11   -1    0    0    0    0  0.00000000000E+00  0.00000000000E+00  0.45593999997E+02  0.45594000000E+02  0.51100000000E-03 0. -1.
         11   -1    0    0    0    0 -0.00000000000E+00 -0.00000000000E+00 -0.45593999997E+02  0.45594000000E+02  0.51100000000E-03 0.  1.
    9900012    2    1    2    0    0 -0.24365760977E+02 -0.11394756319E+02 -0.34060130771E+02  0.47787270885E+02  0.19999999272E+02 0.  0.
         12    1    1    2    0    0  0.24365760977E+02  0.11394756319E+02  0.34060130771E+02  0.43400729115E+02  0.00000000000E+00 0. -1.
         11    1    3    3    0    0 -0.17475438500E+02 -0.54916207007E+01 -0.17400323950E+02  0.25264997972E+02  0.51100000000E-03 0. -1.
        -11    1    3    3    0    0 -0.38463812338E+01  0.23104281920E+01 -0.11527571084E+02  0.12370029199E+02  0.51100000000E-03 0.  1.
         12    1    3    3    0    0 -0.30439412433E+01 -0.82135638104E+01 -0.51322357373E+01  0.10152243714E+02  0.00000000000E+00 0. -1.
</event>
<event>
 7    1  0.1246400E-009  0.4778727E+02  0.7816164E-02  0.1312668E+00
        -11   -1    0    0    0    0  0.00000000000E+00  0.00000000000E+00  0.45593999997E+02  0.45594000000E+02  0.51100000000E-03 0.  1.
         11   -1    0    0    0    0 -0.00000000000E+00 -0.00000000000E+00 -0.45593999997E+02  0.45594000000E+02  0.51100000000E-03 0. -1.
    9900012    2    1    2    0    0  0.62907230053E+01  0.42694406212E+02  0.46084522579E+01  0.47787270168E+02  0.19999996004E+02 0.  0.
         12    1    1    2    0    0 -0.62907230053E+01 -0.42694406212E+02 -0.46084522579E+01  0.43400729832E+02  0.00000000000E+00 0. -1.
         11    1    3    3    0    0  0.36768009899E+01  0.53213045994E+01  0.31517419228E+01  0.71950417350E+01  0.51100000000E-03 0. -1.
        -11    1    3    3    0    0 -0.58181319203E+01  0.10298119565E+02 -0.20981578990E+01  0.12012667999E+02  0.51100000000E-03 0.  1.
        -12    1    3    3    0    0  0.84320539357E+01  0.27074982047E+02  0.35548682341E+01  0.28579560434E+02  0.00000000000E+00 0.  1.
</event>
<event>
 7    1  0.1246400E-009  0.4778727E+02  0.7816164E-02  0.1312668E+00
        -11   -1    0    0    0    0  0.00000000000E+00  0.00000000000E+00  0.45593999997E+02  0.45594000000E+02  0.51100000000E-03 0. -1.
         11   -1    0    0    0    0 -0.00000000000E+00 -0.00000000000E+00 -0.45593999997E+02  0.45594000000E+02  0.51100000000E-03 0.  1.
    9900012    2    1    2    0    0  0.42008262570E+02  0.78248350306E+01 -0.75961275423E+01  0.47787270501E+02  0.19999997522E+02 0.  0.
         12    1    1    2    0    0 -0.42008262570E+02 -0.78248350306E+01  0.75961275423E+01  0.43400729499E+02  0.00000000000E+00 0. -1.
         11    1    3    3    0    0  0.20382290048E+02  0.71801035291E+01  0.29769891970E+01  0.21814080298E+02  0.51100000000E-03 0. -1.
        -11    1    3    3    0    0  0.17722727193E+02 -0.13582437899E+01 -0.42475939892E+01  0.18275172785E+02  0.51100000000E-03 0.  1.
        -12    1    3    3    0    0  0.39032453290E+01  0.20029752915E+01 -0.63255227501E+01  0.76980174187E+01  0.00000000000E+00 0.  1.
</event>
<event>
 7    1  0.1246400E-009  0.4778726E+02  0.7816164E-02  0.1312668E+00
        -11   -1    0    0    0    0  0.00000000000E+00  0.00000000000E+00  0.45593999997E+02  0.45594000000E+02  0.51100000000E-03 0. -1.
         11   -1    0    0    0    0 -0.00000000000E+00 -0.00000000000E+00 -0.45593999997E+02  0.45594000000E+02  0.51100000000E-03 0.  1.
    9900012    2    1    2    0    0  0.19355531014E+02 -0.26873831348E+02 -0.28049686729E+02  0.47787259018E+02  0.19999945166E+02 0.  0.
         12    1    1    2    0    0 -0.19355531014E+02  0.26873831348E+02  0.28049686729E+02  0.43400740982E+02  0.00000000000E+00 0. -1.
         11    1    3    3    0    0 -0.10264497175E+00 -0.32701696548E+01 -0.90209163285E+01  0.95959094008E+01  0.51100000000E-03 0. -1.
        -11    1    3    3    0    0  0.17731999328E+02 -0.24013401833E+02 -0.20220040877E+02  0.36054366186E+02  0.51100000000E-03 0.  1.
         12    1    3    3    0    0  0.17261766582E+01  0.40974013982E+00  0.11912704759E+01  0.21369834310E+01  0.00000000000E+00 0. -1.
</event>
<event>
 7    1  0.1246400E-009  0.4778727E+02  0.7816164E-02  0.1312668E+00
        -11   -1    0    0    0    0  0.00000000000E+00  0.00000000000E+00  0.45593999997E+02  0.45594000000E+02  0.51100000000E-03 0.  1.
         11   -1    0    0    0    0 -0.00000000000E+00 -0.00000000000E+00 -0.45593999997E+02  0.45594000000E+02  0.51100000000E-03 0. -1.
    9900012    2    1    2    0    0  0.23547383987E+02  0.56093641825E+01  0.36023312496E+02  0.47787270716E+02  0.19999998503E+02 0.  0.
         12    1    1    2    0    0 -0.23547383987E+02 -0.56093641825E+01 -0.36023312496E+02  0.43400729284E+02  0.00000000000E+00 0. -1.
         11    1    3    3    0    0  0.40285275837E+01  0.55081028347E+01  0.40286550694E+01  0.79245374162E+01  0.51100000000E-03 0. -1.
        -11    1    3    3    0    0  0.14453563911E+02 -0.49127834992E+01  0.14856165400E+02  0.21301328646E+02  0.51100000000E-03 0.  1.
         12    1    3    3    0    0  0.50652924927E+01  0.50140448469E+01  0.17138492027E+02  0.18561404654E+02  0.00000000000E+00 0. -1.
</event>
<event>
 7    1  0.1246400E-009  0.4778727E+02  0.7816164E-02  0.1312668E+00
        -11   -1    0    0    0    0  0.00000000000E+00  0.00000000000E+00  0.45593999997E+02  0.45594000000E+02  0.51100000000E-03 0.  1.
         11   -1    0    0    0    0 -0.00000000000E+00 -0.00000000000E+00 -0.45593999997E+02  0.45594000000E+02  0.51100000000E-03 0. -1.
    9900012    2    1    2    0    0 -0.23509330496E+02  0.23752858272E+02  0.27690013457E+02  0.47787265654E+02  0.19999975425E+02 0.  0.
         12    1    1    2    0    0  0.23509330496E+02 -0.23752858272E+02 -0.27690013457E+02  0.43400734346E+02  0.00000000000E+00 0. -1.
         11    1    3    3    0    0  0.32247712928E+00  0.12290109973E-01 -0.45963669905E+00  0.56161259062E+00  0.51100000000E-03 0. -1.
        -11    1    3    3    0    0 -0.22129285568E+02  0.14256276702E+02  0.13221433824E+02  0.29457647865E+02  0.51100000000E-03 0.  1.
         12    1    3    3    0    0 -0.17025220576E+01  0.94842914604E+01  0.14928216332E+02  0.17768005198E+02  0.00000000000E+00 0. -1.
</event>
<event>
 7    1  0.1246400E-009  0.4778727E+02  0.7816164E-02  0.1312668E+00
        -11   -1    0    0    0    0  0.00000000000E+00  0.00000000000E+00  0.45593999997E+02  0.45594000000E+02  0.51100000000E-03 0.  1.
         11   -1    0    0    0    0 -0.00000000000E+00 -0.00000000000E+00 -0.45593999997E+02  0.45594000000E+02  0.51100000000E-03 0. -1.
    9900012    2    1    2    0    0  0.23873578600E+02 -0.16865600047E+02  0.32081573826E+02  0.47787267296E+02  0.19999982909E+02 0.  0.
         12    1    1    2    0    0 -0.23873578600E+02  0.16865600047E+02 -0.32081573826E+02  0.43400732704E+02  0.00000000000E+00 0. -1.
         11    1    3    3    0    0  0.14657133749E+01 -0.43421987400E+00  0.88637398933E+01  0.89945954747E+01  0.51100000000E-03 0. -1.
        -11    1    3    3    0    0  0.23269430607E+02 -0.12827178190E+02  0.22893074086E+02  0.35072720774E+02  0.51100000000E-03 0.  1.
         12    1    3    3    0    0 -0.86156538210E+00 -0.36042019826E+01  0.32475984668E+00  0.37199510477E+01  0.00000000000E+00 0. -1.
</event>
<event>
 7    1  0.1246400E-009  0.4778727E+02  0.7816164E-02  0.1312668E+00
        -11   -1    0    0    0    0  0.00000000000E+00  0.00000000000E+00  0.45593999997E+02  0.45594000000E+02  0.51100000000E-03 0.  1.
         11   -1    0    0    0    0 -0.00000000000E+00 -0.00000000000E+00 -0.45593999997E+02  0.45594000000E+02  0.51100000000E-03 0. -1.
    9900012    2    1    2    0    0  0.33092286984E+02 -0.21208121807E+02  0.18404866381E+02  0.47787274259E+02  0.20000014655E+02 0.  0.
         12    1    1    2    0    0 -0.33092286984E+02  0.21208121807E+02 -0.18404866381E+02  0.43400725741E+02  0.00000000000E+00 0. -1.
         11    1    3    3    0    0  0.19543448052E+02 -0.40331423132E+01  0.70163022816E+01  0.21152803517E+02  0.51100000000E-03 0. -1.
        -11    1    3    3    0    0  0.10945307130E+02 -0.10350289980E+02  0.12063212166E+02  0.19298946574E+02  0.51100000000E-03 0.  1.
         12    1    3    3    0    0  0.26035318016E+01 -0.68246895136E+01 -0.67464806685E+00  0.73355241675E+01  0.00000000000E+00 0. -1.
</event>
<event>
 7    1  0.1246400E-009  0.4778727E+02  0.7816164E-02  0.1312668E+00
        -11   -1    0    0    0    0  0.00000000000E+00  0.00000000000E+00  0.45593999997E+02  0.45594000000E+02  0.51100000000E-03 0.  1.
         11   -1    0    0    0    0 -0.00000000000E+00 -0.00000000000E+00 -0.45593999997E+02  0.45594000000E+02  0.51100000000E-03 0. -1.
    9900012    2    1    2    0    0  0.15094636105E+02  0.31118946198E+02  0.26218064726E+02  0.47787265333E+02  0.19999973960E+02 0.  0.
         12    1    1    2    0    0 -0.15094636105E+02 -0.31118946198E+02 -0.26218064726E+02  0.43400734667E+02  0.00000000000E+00 0. -1.
         11    1    3    3    0    0  0.89155791427E+01  0.11226660226E+02  0.21768532236E+02  0.26065196091E+02  0.51100000000E-03 0.  1.
        -11    1    3    3    0    0  0.56559610821E+01  0.11141878719E+02  0.26595218444E+01  0.12775148291E+02  0.51100000000E-03 0. -1.
        -12    1    3    3    0    0  0.52309587989E+00  0.87504072534E+01  0.17900106455E+01  0.89469209514E+01  0.00000000000E+00 0.  1.
</event>
<event>
 7    1  0.1246400E-009  0.4778727E+02  0.7816164E-02  0.1312668E+00
        -11   -1    0    0    0    0  0.00000000000E+00  0.00000000000E+00  0.45593999997E+02  0.45594000000E+02  0.51100000000E-03 0. -1.
         11   -1    0    0    0    0 -0.00000000000E+00 -0.00000000000E+00 -0.45593999997E+02  0.45594000000E+02  0.51100000000E-03 0.  1.
    9900012    2    1    2    0    0 -0.39917973809E+02 -0.12766245390E+02 -0.11278362782E+02  0.47787272801E+02  0.20000008010E+02 0.  0.
         12    1    1    2    0    0  0.39917973809E+02  0.12766245390E+02  0.11278362782E+02  0.43400727199E+02  0.00000000000E+00 0. -1.
         11    1    3    3    0    0 -0.12857469017E+02  0.58971652909E+00 -0.11974128349E+02  0.17579591152E+02  0.51100000000E-03 0. -1.
        -11    1    3    3    0    0 -0.83805533831E+01 -0.46472677196E+01 -0.72887400679E-01  0.95831145823E+01  0.51100000000E-03 0.  1.
         12    1    3    3    0    0 -0.18679951409E+02 -0.87086941990E+01  0.76865296844E+00  0.20624567067E+02  0.00000000000E+00 0. -1.
</event>
<event>
 7    1  0.1246400E-009  0.4778727E+02  0.7816164E-02  0.1312668E+00
        -11   -1    0    0    0    0  0.00000000000E+00  0.00000000000E+00  0.45593999997E+02  0.45594000000E+02  0.51100000000E-03 0. -1.
         11   -1    0    0    0    0 -0.00000000000E+00 -0.00000000000E+00 -0.45593999997E+02  0.45594000000E+02  0.51100000000E-03 0.  1.
    9900012    2    1    2    0    0  0.20941910214E+02  0.29177322945E+02 -0.24366852217E+02  0.47787271151E+02  0.20000000486E+02 0.  0.
         12    1    1    2    0    0 -0.20941910214E+02 -0.29177322945E+02  0.24366852217E+02  0.43400728849E+02  0.00000000000E+00 0. -1.
         11    1    3    3    0    0  0.97892153094E+01  0.15191796786E+02 -0.81339646454E+01  0.19818698420E+02  0.51100000000E-03 0.  1.
        -11    1    3    3    0    0 -0.20328648195E+00 -0.15162254170E+01  0.12606503763E+01  0.19822977933E+01  0.51100000000E-03 0. -1.
         12    1    3    3    0    0  0.11355981386E+02  0.15501751576E+02 -0.17493537948E+02  0.25986274937E+02  0.00000000000E+00 0. -1.
</event>
<event>
 7    1  0.1246400E-009  0.4778728E+02  0.7816164E-02  0.1312668E+00
        -11   -1    0    0    0    0  0.00000000000E+00  0.00000000000E+00  0.45593999997E+02  0.45594000000E+02  0.51100000000E-03 0.  1.
         11   -1    0    0    0    0 -0.00000000000E+00 -0.00000000000E+00 -0.45593999997E+02  0.45594000000E+02  0.51100000000E-03 0. -1.
    9900012    2    1    2    0    0 -0.31585598239E+02 -0.12307433164E+02  0.27101658036E+02  0.47787276556E+02  0.20000025130E+02 0.  0.
         12    1    1    2    0    0  0.31585598239E+02  0.12307433164E+02 -0.27101658036E+02  0.43400723444E+02  0.00000000000E+00 0. -1.
         11    1    3    3    0    0 -0.17476355054E+01 -0.10457525608E+01 -0.19683723771E+00  0.20461117852E+01  0.51100000000E-03 0. -1.
        -11    1    3    3    0    0 -0.29489834839E+02 -0.13683734109E+02  0.28295332360E+02  0.43098964856E+02  0.51100000000E-03 0.  1.
         12    1    3    3    0    0 -0.34812789425E+00  0.24220535057E+01 -0.99683708682E+00  0.26421999154E+01  0.00000000000E+00 0. -1.
</event>
<event>
 7    1  0.1246400E-009  0.4778726E+02  0.7816164E-02  0.1312668E+00
        -11   -1    0    0    0    0  0.00000000000E+00  0.00000000000E+00  0.45593999997E+02  0.45594000000E+02  0.51100000000E-03 0. -1.
         11   -1    0    0    0    0 -0.00000000000E+00 -0.00000000000E+00 -0.45593999997E+02  0.45594000000E+02  0.51100000000E-03 0.  1.
    9900012    2    1    2    0    0 -0.40703174318E+02  0.14904205534E+02 -0.21771884803E+01  0.47787263925E+02  0.19999967541E+02 0.  0.
         12    1    1    2    0    0  0.40703174318E+02 -0.14904205534E+02  0.21771884803E+01  0.43400736075E+02  0.00000000000E+00 0. -1.
         11    1    3    3    0    0 -0.92043112087E+01  0.53665534822E+01  0.47539289263E+01  0.11667008254E+02  0.51100000000E-03 0. -1.
        -11    1    3    3    0    0  0.53596272341E+00  0.26218161665E+01 -0.54986786439E+00  0.27319463723E+01  0.51100000000E-03 0.  1.
        -12    1    3    3    0    0 -0.32034825833E+02  0.69158358853E+01 -0.63812495423E+01  0.33388309299E+02  0.00000000000E+00 0.  1.
</event>
<event>
 7    1  0.1246400E-009  0.4778726E+02  0.7816164E-02  0.1312668E+00
        -11   -1    0    0    0    0  0.00000000000E+00  0.00000000000E+00  0.45593999997E+02  0.45594000000E+02  0.51100000000E-03 0. -1.
         11   -1    0    0    0    0 -0.00000000000E+00 -0.00000000000E+00 -0.45593999997E+02  0.45594000000E+02  0.51100000000E-03 0.  1.
    9900012    2    1    2    0    0 -0.37445788328E+02 -0.15664543283E+02 -0.15364214933E+02  0.47787261754E+02  0.19999957642E+02 0.  0.
         12    1    1    2    0    0  0.37445788328E+02  0.15664543283E+02  0.15364214933E+02  0.43400738246E+02  0.00000000000E+00 0. -1.
         11    1    3    3    0    0 -0.24606787106E+02 -0.67957951619E+01 -0.10310887078E+02  0.27531639910E+02  0.51100000000E-03 0. -1.
        -11    1    3    3    0    0 -0.13564181191E+02 -0.49487419119E+01 -0.85185382633E+00  0.14463841575E+02  0.51100000000E-03 0.  1.
         12    1    3    3    0    0  0.72517996889E+00 -0.39200062093E+01 -0.42014740294E+01  0.57917802693E+01  0.00000000000E+00 0. -1.
</event>
<event>
 7    1  0.1246400E-009  0.4778727E+02  0.7816164E-02  0.1312668E+00
        -11   -1    0    0    0    0  0.00000000000E+00  0.00000000000E+00  0.45593999997E+02  0.45594000000E+02  0.51100000000E-03 0.  1.
         11   -1    0    0    0    0 -0.00000000000E+00 -0.00000000000E+00 -0.45593999997E+02  0.45594000000E+02  0.51100000000E-03 0. -1.
    9900012    2    1    2    0    0  0.37557199351E+02  0.17612298141E+02 -0.12762737794E+02  0.47787265618E+02  0.19999975260E+02 0.  0.
         12    1    1    2    0    0 -0.37557199351E+02 -0.17612298141E+02  0.12762737794E+02  0.43400734382E+02  0.00000000000E+00 0. -1.
         11    1    3    3    0    0  0.14070085213E+02  0.91775287307E+01 -0.10928675166E+01  0.16834152523E+02  0.51100000000E-03 0. -1.
        -11    1    3    3    0    0  0.90876850766E+01  0.19166668661E+01  0.26147581253E+01  0.96486575357E+01  0.51100000000E-03 0.  1.
         12    1    3    3    0    0  0.14399429061E+02  0.65181025442E+01 -0.14284628403E+02  0.21304455559E+02  0.00000000000E+00 0. -1.
</event>
<event>
 7    1  0.1246400E-009  0.4778727E+02  0.7816164E-02  0.1312668E+00
        -11   -1    0    0    0    0  0.00000000000E+00  0.00000000000E+00  0.45593999997E+02  0.45594000000E+02  0.51100000000E-03 0.  1.
         11   -1    0    0    0    0 -0.00000000000E+00 -0.00000000000E+00 -0.45593999997E+02  0.45594000000E+02  0.51100000000E-03 0. -1.
    9900012    2    1    2    0    0 -0.14317362636E+02 -0.40955486376E+02 -0.11334170060E+01  0.47787269923E+02  0.19999994886E+02 0.  0.
         12    1    1    2    0    0  0.14317362636E+02  0.40955486376E+02  0.11334170060E+01  0.43400730077E+02  0.00000000000E+00 0. -1.
         11    1    3    3    0    0 -0.41262908256E+01 -0.32211896475E+01  0.26820397285E+01  0.58818089130E+01  0.51100000000E-03 0. -1.
        -11    1    3    3    0    0 -0.90022057222E+00 -0.26712818983E+02 -0.58126722988E+01  0.27352737607E+02  0.51100000000E-03 0.  1.
        -12    1    3    3    0    0 -0.92908512385E+01 -0.11021477745E+02  0.19972155642E+01  0.14552723402E+02  0.00000000000E+00 0.  1.
</event>
<event>
 7    1  0.1967307E-009  0.4778727E+02  0.7816164E-02  0.1312668E+00
        -11   -1    0    0    0    0  0.00000000000E+00  0.00000000000E+00  0.45593999997E+02  0.45594000000E+02  0.51100000000E-03 0. -1.
         11   -1    0    0    0    0 -0.00000000000E+00 -0.00000000000E+00 -0.45593999997E+02  0.45594000000E+02  0.51100000000E-03 0.  1.
    9900012    2    1    2    0    0  0.18474768142E+02  0.34425019828E+02 -0.18900375583E+02  0.47787271374E+02  0.20000001504E+02 0.  0.
         12    1    1    2    0    0 -0.18474768142E+02 -0.34425019828E+02  0.18900375583E+02  0.43400728626E+02  0.00000000000E+00 0. -1.
         11    1    3    3    0    0 -0.59248317030E+00 -0.15131364072E+01  0.33049786367E+00  0.16582663215E+01  0.51100000000E-03 0. -1.
        -11    1    3    3    0    0  0.76408091325E+01  0.11780895886E+02 -0.11932286910E+02  0.18426908131E+02  0.51100000000E-03 0.  1.
        -12    1    3    3    0    0  0.11426442180E+02  0.24157260349E+02 -0.72985865361E+01  0.27702096922E+02  0.00000000000E+00 0.  1.
</event>
<event>
 7    1  0.1246400E-009  0.4778726E+02  0.7816164E-02  0.1312668E+00
        -11   -1    0    0    0    0  0.00000000000E+00  0.00000000000E+00  0.45593999997E+02  0.45594000000E+02  0.51100000000E-03 0.  1.
         11   -1    0    0    0    0 -0.00000000000E+00 -0.00000000000E+00 -0.45593999997E+02  0.45594000000E+02  0.51100000000E-03 0. -1.
    9900012    2    1    2    0    0 -0.18119251782E+02 -0.18970545265E+02  0.34575062671E+02  0.47787264620E+02  0.19999970709E+02 0.  0.
         12    1    1    2    0    0  0.18119251782E+02  0.18970545265E+02 -0.34575062671E+02  0.43400735380E+02  0.00000000000E+00 0. -1.
         11    1    3    3    0    0 -0.11210816650E+02 -0.18239915731E+02  0.33458951825E+02  0.39722517459E+02  0.51100000000E-03 0.  1.
        -11    1    3    3    0    0 -0.55891144087E+01 -0.20103645411E+01  0.16242908579E+01  0.61577663576E+01  0.51100000000E-03 0. -1.
        -12    1    3    3    0    0 -0.13193207234E+01  0.12797350070E+01 -0.50818001153E+00  0.19069808031E+01  0.00000000000E+00 0.  1.
</event>
<event>
 7    1  0.1246400E-009  0.4778727E+02  0.7816164E-02  0.1312668E+00
        -11   -1    0    0    0    0  0.00000000000E+00  0.00000000000E+00  0.45593999997E+02  0.45594000000E+02  0.51100000000E-03 0.  1.
         11   -1    0    0    0    0 -0.00000000000E+00 -0.00000000000E+00 -0.45593999997E+02  0.45594000000E+02  0.51100000000E-03 0. -1.
    9900012    2    1    2    0    0 -0.24266018059E+02  0.32013283301E+02  0.16429650839E+02  0.47787269973E+02  0.19999995117E+02 0.  0.
         12    1    1    2    0    0  0.24266018059E+02 -0.32013283301E+02 -0.16429650839E+02  0.43400730027E+02  0.00000000000E+00 0. -1.
         11    1    3    3    0    0 -0.35172749516E+01  0.59248580393E+01 -0.20811624284E+01  0.71976665097E+01  0.51100000000E-03 0. -1.
        -11    1    3    3    0    0 -0.22057696394E+01  0.11201852895E+02  0.18774694061E+01  0.11570299029E+02  0.51100000000E-03 0.  1.
         12    1    3    3    0    0 -0.18542973468E+02  0.14886572366E+02  0.16633343861E+02  0.29019304435E+02  0.00000000000E+00 0. -1.
</event>
<event>
 7    1  0.1246400E-009  0.4778727E+02  0.7816164E-02  0.1312668E+00
        -11   -1    0    0    0    0  0.00000000000E+00  0.00000000000E+00  0.45593999997E+02  0.45594000000E+02  0.51100000000E-03 0.  1.
         11   -1    0    0    0    0 -0.00000000000E+00 -0.00000000000E+00 -0.45593999997E+02  0.45594000000E+02  0.51100000000E-03 0. -1.
    9900012    2    1    2    0    0  0.12605467647E+02 -0.34644913501E+02 -0.22900992424E+02  0.47787270742E+02  0.19999998622E+02 0.  0.
         12    1    1    2    0    0 -0.12605467647E+02  0.34644913501E+02  0.22900992424E+02  0.43400729258E+02  0.00000000000E+00 0. -1.
         11    1    3    3    0    0 -0.25970806166E+01 -0.15811116091E+02 -0.12500543062E+02  0.20322396436E+02  0.51100000000E-03 0. -1.
        -11    1    3    3    0    0  0.76778144872E+01 -0.13387550042E+02 -0.95231632308E+01  0.18134662103E+02  0.51100000000E-03 0.  1.
         12    1    3    3    0    0  0.75247337760E+01 -0.54462473683E+01 -0.87728613064E+00  0.93302122029E+01  0.00000000000E+00 0. -1.
</event>
<event>
 7    1  0.1246400E-009  0.4778727E+02  0.7816164E-02  0.1312668E+00
        -11   -1    0    0    0    0  0.00000000000E+00  0.00000000000E+00  0.45593999997E+02  0.45594000000E+02  0.51100000000E-03 0.  1.
         11   -1    0    0    0    0 -0.00000000000E+00 -0.00000000000E+00 -0.45593999997E+02  0.45594000000E+02  0.51100000000E-03 0. -1.
    9900012    2    1    2    0    0 -0.19493913365E+02  0.28754304056E+02  0.26015391175E+02  0.47787271458E+02  0.20000001884E+02 0.  0.
         12    1    1    2    0    0  0.19493913365E+02 -0.28754304056E+02 -0.26015391175E+02  0.43400728542E+02  0.00000000000E+00 0. -1.
         11    1    3    3    0    0 -0.43514409652E+01 -0.25359576843E+01  0.47576675752E+01  0.69283129885E+01  0.51100000000E-03 0. -1.
        -11    1    3    3    0    0 -0.49249977855E+01  0.12310701578E+02  0.94443005692E+01  0.16278937006E+02  0.51100000000E-03 0.  1.
         12    1    3    3    0    0 -0.10217474614E+02  0.18979560162E+02  0.11813423031E+02  0.24580021463E+02  0.00000000000E+00 0. -1.
</event>
<event>
 7    1  0.1246400E-009  0.4778727E+02  0.7816164E-02  0.1312668E+00
        -11   -1    0    0    0    0  0.00000000000E+00  0.00000000000E+00  0.45593999997E+02  0.45594000000E+02  0.51100000000E-03 0. -1.
         11   -1    0    0    0    0 -0.00000000000E+00 -0.00000000000E+00 -0.45593999997E+02  0.45594000000E+02  0.51100000000E-03 0.  1.
    9900012    2    1    2    0    0  0.24988801714E+02  0.23474417911E+02 -0.26610802637E+02  0.47787270463E+02  0.19999997350E+02 0.  0.
         12    1    1    2    0    0 -0.24988801714E+02 -0.23474417911E+02  0.26610802637E+02  0.43400729537E+02  0.00000000000E+00 0. -1.
         11    1    3    3    0    0  0.10922955994E+02  0.34326314230E+01 -0.12226432548E+02  0.16750509821E+02  0.51100000000E-03 0. -1.
        -11    1    3    3    0    0  0.10006675682E+02  0.17984428987E+02 -0.16144387545E+02  0.26157494025E+02  0.51100000000E-03 0.  1.
        -12    1    3    3    0    0  0.40591700372E+01  0.20573575015E+01  0.17600174564E+01  0.48792666177E+01  0.00000000000E+00 0.  1.
</event>
<event>
 7    1  0.1246400E-009  0.4778728E+02  0.7816164E-02  0.1312668E+00
        -11   -1    0    0    0    0  0.00000000000E+00  0.00000000000E+00  0.45593999997E+02  0.45594000000E+02  0.51100000000E-03 0. -1.
         11   -1    0    0    0    0 -0.00000000000E+00 -0.00000000000E+00 -0.45593999997E+02  0.45594000000E+02  0.51100000000E-03 0.  1.
    9900012    2    1    2    0    0 -0.19447622902E+02 -0.34006551923E+02 -0.18680645177E+02  0.47787284402E+02  0.20000060900E+02 0.  0.
         12    1    1    2    0    0  0.19447622902E+02  0.34006551923E+02  0.18680645177E+02  0.43400715598E+02  0.00000000000E+00 0. -1.
         11    1    3    3    0    0  0.25548957071E+01 -0.66188218522E+01 -0.34199539307E+01  0.78760637335E+01  0.51100000000E-03 0. -1.
        -11    1    3    3    0    0 -0.81156358357E+01 -0.31466081190E+01 -0.56041847364E+01  0.10352370477E+02  0.51100000000E-03 0.  1.
         12    1    3    3    0    0 -0.13886882774E+02 -0.24241121951E+02 -0.96565065103E+01  0.29558850191E+02  0.00000000000E+00 0. -1.
</event>
<event>
 7    1  0.1246400E-009  0.4778727E+02  0.7816164E-02  0.1312668E+00
        -11   -1    0    0    0    0  0.00000000000E+00  0.00000000000E+00  0.45593999997E+02  0.45594000000E+02  0.51100000000E-03 0.  1.
         11   -1    0    0    0    0 -0.00000000000E+00 -0.00000000000E+00 -0.45593999997E+02  0.45594000000E+02  0.51100000000E-03 0. -1.
    9900012    2    1    2    0    0  0.12703157917E+02  0.51995701426E+01  0.41173019905E+02  0.47787270527E+02  0.19999997640E+02 0.  0.
         12    1    1    2    0    0 -0.12703157917E+02 -0.51995701426E+01 -0.41173019905E+02  0.43400729473E+02  0.00000000000E+00 0. -1.
         11    1    3    3    0    0 -0.62089809767E+00  0.50221646792E+01  0.11135025137E+01  0.51814612439E+01  0.51100000000E-03 0. -1.
        -11    1    3    3    0    0  0.39973399175E+01  0.44122265436E+00  0.21040296331E+02  0.21421192166E+02  0.51100000000E-03 0.  1.
        -12    1    3    3    0    0  0.93267160971E+01 -0.26381719096E+00  0.19019221060E+02  0.21184617117E+02  0.00000000000E+00 0.  1.
</event>
<event>
 7    1  0.1246400E-009  0.4778727E+02  0.7816164E-02  0.1312668E+00
        -11   -1    0    0    0    0  0.00000000000E+00  0.00000000000E+00  0.45593999997E+02  0.45594000000E+02  0.51100000000E-03 0.  1.
         11   -1    0    0    0    0 -0.00000000000E+00 -0.00000000000E+00 -0.45593999997E+02  0.45594000000E+02  0.51100000000E-03 0. -1.
    9900012    2    1    2    0    0  0.67081688265E+01  0.40588389497E+02  0.13827735822E+02  0.47787272253E+02  0.20000005511E+02 0.  0.
         12    1    1    2    0    0 -0.67081688265E+01 -0.40588389497E+02 -0.13827735822E+02  0.43400727747E+02  0.00000000000E+00 0. -1.
         11    1    3    3    0    0  0.66595955979E+01  0.23303516737E+01  0.10258791322E+01  0.71297391751E+01  0.51100000000E-03 0. -1.
        -11    1    3    3    0    0  0.14521055488E+01  0.14044063026E+02  0.68011953020E+01  0.15671648751E+02  0.51100000000E-03 0.  1.
        -12    1    3    3    0    0 -0.14035323202E+01  0.24213974798E+02  0.60006613878E+01  0.24985884327E+02  0.00000000000E+00 0.  1.
</event>
<event>
 7    1  0.1246400E-009  0.4778728E+02  0.7816164E-02  0.1312668E+00
        -11   -1    0    0    0    0  0.00000000000E+00  0.00000000000E+00  0.45593999997E+02  0.45594000000E+02  0.51100000000E-03 0.  1.
         11   -1    0    0    0    0 -0.00000000000E+00 -0.00000000000E+00 -0.45593999997E+02  0.45594000000E+02  0.51100000000E-03 0. -1.
    9900012    2    1    2    0    0 -0.18353314210E+02 -0.17438561783E+02  0.35251600202E+02  0.47787275394E+02  0.20000019829E+02 0.  0.
         12    1    1    2    0    0  0.18353314210E+02  0.17438561783E+02 -0.35251600202E+02  0.43400724606E+02  0.00000000000E+00 0. -1.
         11    1    3    3    0    0  0.62197450962E+00  0.15668408145E+01  0.23490605793E+01  0.28913540591E+01  0.51100000000E-03 0. -1.
        -11    1    3    3    0    0 -0.14613816951E+02 -0.14339548437E+02  0.13638517964E+02  0.24600720879E+02  0.51100000000E-03 0.  1.
         12    1    3    3    0    0 -0.43614717682E+01 -0.46658541603E+01  0.19264021659E+02  0.20295200455E+02  0.00000000000E+00 0. -1.
</event>
<event>
 7    1  0.1246400E-009  0.4778727E+02  0.7816164E-02  0.1312668E+00
        -11   -1    0    0    0    0  0.00000000000E+00  0.00000000000E+00  0.45593999997E+02  0.45594000000E+02  0.51100000000E-03 0.  1.
         11   -1    0    0    0    0 -0.00000000000E+00 -0.00000000000E+00 -0.45593999997E+02  0.45594000000E+02  0.51100000000E-03 0. -1.
    9900012    2    1    2    0    0 -0.29736571808E+02  0.10696830661E+02  0.29747901579E+02  0.47787268008E+02  0.19999986156E+02 0.  0.
         12    1    1    2    0    0  0.29736571808E+02 -0.10696830661E+02 -0.29747901579E+02  0.43400731992E+02  0.00000000000E+00 0. -1.
         11    1    3    3    0    0 -0.17626138782E+02  0.36875558546E+01  0.71294736235E+01  0.19367711041E+02  0.51100000000E-03 0. -1.
        -11    1    3    3    0    0  0.13417652605E+01 -0.88652605383E+00  0.21764605467E+01  0.27061491517E+01  0.51100000000E-03 0.  1.
         12    1    3    3    0    0 -0.13452198286E+02  0.78958008598E+01  0.20441967409E+02  0.25713407816E+02  0.00000000000E+00 0. -1.
</event>
<event>
 7    1  0.1246400E-009  0.4778727E+02  0.7816164E-02  0.1312668E+00
        -11   -1    0    0    0    0  0.00000000000E+00  0.00000000000E+00  0.45593999997E+02  0.45594000000E+02  0.51100000000E-03 0.  1.
         11   -1    0    0    0    0 -0.00000000000E+00 -0.00000000000E+00 -0.45593999997E+02  0.45594000000E+02  0.51100000000E-03 0. -1.
    9900012    2    1    2    0    0  0.12684750238E+02  0.19438157259E+02  0.36672590677E+02  0.47787265522E+02  0.19999974822E+02 0.  0.
         12    1    1    2    0    0 -0.12684750238E+02 -0.19438157259E+02 -0.36672590677E+02  0.43400734478E+02  0.00000000000E+00 0. -1.
         11    1    3    3    0    0  0.74881251859E+01  0.50840290694E+01  0.25908434936E+02  0.27443876757E+02  0.51100000000E-03 0. -1.
        -11    1    3    3    0    0  0.45642784615E+00  0.11851820164E+02  0.80572931928E+01  0.14338547397E+02  0.51100000000E-03 0.  1.
         12    1    3    3    0    0  0.47401972058E+01  0.25023080254E+01  0.27068625485E+01  0.60048413685E+01  0.00000000000E+00 0. -1.
</event>
<event>
 7    1  0.1246400E-009  0.4778725E+02  0.7816164E-02  0.1312668E+00
        -11   -1    0    0    0    0  0.00000000000E+00  0.00000000000E+00  0.45593999997E+02  0.45594000000E+02  0.51100000000E-03 0.  1.
         11   -1    0    0    0    0 -0.00000000000E+00 -0.00000000000E+00 -0.45593999997E+02  0.45594000000E+02  0.51100000000E-03 0. -1.
    9900012    2    1    2    0    0 -0.59961900757E+01  0.37378050462E+02  0.21226209231E+02  0.47787252195E+02  0.19999914058E+02 0.  0.
         12    1    1    2    0    0  0.59961900757E+01 -0.37378050462E+02 -0.21226209231E+02  0.43400747805E+02  0.00000000000E+00 0. -1.
         11    1    3    3    0    0 -0.26465675580E+01  0.15732121766E+02  0.22121156402E+01  0.16105819786E+02  0.51100000000E-03 0. -1.
        -11    1    3    3    0    0 -0.63951927497E+01  0.21341364350E+02  0.16604485836E+02  0.27785990584E+02  0.51100000000E-03 0.  1.
         12    1    3    3    0    0  0.30455702320E+01  0.30456434507E+00  0.24096077547E+01  0.38954418247E+01  0.00000000000E+00 0. -1.
</event>
<event>
 7    1  0.1246400E-009  0.4778727E+02  0.7816164E-02  0.1312668E+00
        -11   -1    0    0    0    0  0.00000000000E+00  0.00000000000E+00  0.45593999997E+02  0.45594000000E+02  0.51100000000E-03 0.  1.
         11   -1    0    0    0    0 -0.00000000000E+00 -0.00000000000E+00 -0.45593999997E+02  0.45594000000E+02  0.51100000000E-03 0. -1.
    9900012    2    1    2    0    0  0.11080162067E+02 -0.23772647700E+02  0.34579110512E+02  0.47787266666E+02  0.19999980039E+02 0.  0.
         12    1    1    2    0    0 -0.11080162067E+02  0.23772647700E+02 -0.34579110512E+02  0.43400733334E+02  0.00000000000E+00 0. -1.
         11    1    3    3    0    0  0.59848883808E+01 -0.18365298634E+01  0.16554360527E+01  0.64755076755E+01  0.51100000000E-03 0. -1.
        -11    1    3    3    0    0  0.73304098213E+01 -0.16621727408E+02  0.19229961603E+02  0.26453887308E+02  0.51100000000E-03 0.  1.
        -12    1    3    3    0    0 -0.22351361355E+01 -0.53143904292E+01  0.13693712856E+02  0.14857871683E+02  0.00000000000E+00 0.  1.
</event>
<event>
 7    1  0.1246400E-009  0.4778726E+02  0.7816164E-02  0.1312668E+00
        -11   -1    0    0    0    0  0.00000000000E+00  0.00000000000E+00  0.45593999997E+02  0.45594000000E+02  0.51100000000E-03 0. -1.
         11   -1    0    0    0    0 -0.00000000000E+00 -0.00000000000E+00 -0.45593999997E+02  0.45594000000E+02  0.51100000000E-03 0.  1.
    9900012    2    1    2    0    0 -0.41511199794E+01 -0.23863241719E+02 -0.36013024896E+02  0.47787261935E+02  0.19999958465E+02 0.  0.
         12    1    1    2    0    0  0.41511199794E+01  0.23863241719E+02  0.36013024896E+02  0.43400738065E+02  0.00000000000E+00 0. -1.
         11    1    3    3    0    0  0.30285235293E+01 -0.81498217225E+01 -0.12509626905E+02  0.15234248076E+02  0.51100000000E-03 0. -1.
        -11    1    3    3    0    0  0.33114564222E+01  0.17774042406E+00 -0.50146323646E+01  0.60119774873E+01  0.51100000000E-03 0.  1.
        -12    1    3    3    0    0 -0.10491099931E+02 -0.15891160421E+02 -0.18488765627E+02  0.26541036372E+02  0.00000000000E+00 0.  1.
</event>
<event>
 7    1  0.1246400E-009  0.4778727E+02  0.7816164E-02  0.1312668E+00
        -11   -1    0    0    0    0  0.00000000000E+00  0.00000000000E+00  0.45593999997E+02  0.45594000000E+02  0.51100000000E-03 0. -1.
         11   -1    0    0    0    0 -0.00000000000E+00 -0.00000000000E+00 -0.45593999997E+02  0.45594000000E+02  0.51100000000E-03 0.  1.
    9900012    2    1    2    0    0 -0.18415202492E+02  0.34866891337E+02 -0.18132939460E+02  0.47787270884E+02  0.19999999266E+02 0.  0.
         12    1    1    2    0    0  0.18415202492E+02 -0.34866891337E+02  0.18132939460E+02  0.43400729116E+02  0.00000000000E+00 0. -1.
         11    1    3    3    0    0  0.58410020465E+00  0.11533200737E+02 -0.36341504246E+01  0.12106318262E+02  0.51100000000E-03 0. -1.
        -11    1    3    3    0    0 -0.88524995967E+01  0.18378811472E+02 -0.51973791951E+01  0.21051370763E+02  0.51100000000E-03 0.  1.
        -12    1    3    3    0    0 -0.10146803100E+02  0.49548791279E+01 -0.93014098408E+01  0.14629581858E+02  0.00000000000E+00 0.  1.
</event>
<event>
 7    1  0.1246400E-009  0.4778727E+02  0.7816164E-02  0.1312668E+00
        -11   -1    0    0    0    0  0.00000000000E+00  0.00000000000E+00  0.45593999997E+02  0.45594000000E+02  0.51100000000E-03 0. -1.
         11   -1    0    0    0    0 -0.00000000000E+00 -0.00000000000E+00 -0.45593999997E+02  0.45594000000E+02  0.51100000000E-03 0.  1.
    9900012    2    1    2    0    0  0.15138475204E+02  0.35600291339E+02 -0.19674073395E+02  0.47787270295E+02  0.19999996584E+02 0.  0.
         12    1    1    2    0    0 -0.15138475204E+02 -0.35600291339E+02  0.19674073395E+02  0.43400729705E+02  0.00000000000E+00 0. -1.
         11    1    3    3    0    0 -0.15284986164E+01  0.92697024542E+01 -0.33610735856E+01  0.99780011786E+01  0.51100000000E-03 0. -1.
        -11    1    3    3    0    0  0.79452936341E+01  0.20070761122E+01 -0.28792809334E+01  0.86859832147E+01  0.51100000000E-03 0.  1.
        -12    1    3    3    0    0  0.87216801866E+01  0.24323512773E+02 -0.13433718876E+02  0.29123285902E+02  0.00000000000E+00 0.  1.
</event>
<event>
 7    1  0.1246400E-009  0.4778727E+02  0.7816164E-02  0.1312668E+00
        -11   -1    0    0    0    0  0.00000000000E+00  0.00000000000E+00  0.45593999997E+02  0.45594000000E+02  0.51100000000E-03 0. -1.
         11   -1    0    0    0    0 -0.00000000000E+00 -0.00000000000E+00 -0.45593999997E+02  0.45594000000E+02  0.51100000000E-03 0.  1.
    9900012    2    1    2    0    0 -0.34205455371E+02 -0.26391279077E+02 -0.41364822541E+01  0.47787271044E+02  0.19999999999E+02 0.  0.
         12    1    1    2    0    0  0.34205455371E+02  0.26391279077E+02  0.41364822541E+01  0.43400728956E+02  0.00000000000E+00 0. -1.
         11    1    3    3    0    0 -0.10096664729E+02 -0.12868174317E+02  0.23416841410E+00  0.16358098422E+02  0.51100000000E-03 0. -1.
        -11    1    3    3    0    0 -0.15921468713E+02 -0.15446935607E+02 -0.54603577120E+00  0.22190068521E+02  0.51100000000E-03 0.  1.
         12    1    3    3    0    0 -0.81873219282E+01  0.19238308459E+01 -0.38246148970E+01  0.92391041011E+01  0.00000000000E+00 0. -1.
</event>
<event>
 7    1  0.1246400E-009  0.4778727E+02  0.7816164E-02  0.1312668E+00
        -11   -1    0    0    0    0  0.00000000000E+00  0.00000000000E+00  0.45593999997E+02  0.45594000000E+02  0.51100000000E-03 0. -1.
         11   -1    0    0    0    0 -0.00000000000E+00 -0.00000000000E+00 -0.45593999997E+02  0.45594000000E+02  0.51100000000E-03 0.  1.
    9900012    2    1    2    0    0  0.40839139352E+02  0.13990722517E+02  0.44774566064E+01  0.47787271467E+02  0.20000001925E+02 0.  0.
         12    1    1    2    0    0 -0.40839139352E+02 -0.13990722517E+02 -0.44774566064E+01  0.43400728533E+02  0.00000000000E+00 0. -1.
         11    1    3    3    0    0  0.18435865124E+02  0.14746309932E+02 -0.18991342881E+01  0.23684203402E+02  0.51100000000E-03 0. -1.
        -11    1    3    3    0    0  0.44723979235E+01 -0.15499124262E+01  0.35873696088E+01  0.59391744112E+01  0.51100000000E-03 0.  1.
        -12    1    3    3    0    0  0.17930876304E+02  0.79432501102E+00  0.27892212857E+01  0.18163893653E+02  0.00000000000E+00 0.  1.
</event>
<event>
 7    1  0.1246400E-009  0.4778726E+02  0.7816164E-02  0.1312668E+00
        -11   -1    0    0    0    0  0.00000000000E+00  0.00000000000E+00  0.45593999997E+02  0.45594000000E+02  0.51100000000E-03 0. -1.
         11   -1    0    0    0    0 -0.00000000000E+00 -0.00000000000E+00 -0.45593999997E+02  0.45594000000E+02  0.51100000000E-03 0.  1.
    9900012    2    1    2    0    0  0.34532882208E+02  0.71630324675E+01 -0.25294176676E+02  0.47787258515E+02  0.19999942873E+02 0.  0.
         12    1    1    2    0    0 -0.34532882208E+02 -0.71630324675E+01  0.25294176676E+02  0.43400741485E+02  0.00000000000E+00 0. -1.
         11    1    3    3    0    0  0.14877351856E+02 -0.39841839701E+01 -0.13696260371E+02  0.20610600878E+02  0.51100000000E-03 0.  1.
        -11    1    3    3    0    0  0.16655851692E+01 -0.16009168107E+01 -0.10591490281E+00  0.23126449833E+01  0.51100000000E-03 0. -1.
        -12    1    3    3    0    0  0.17989945183E+02  0.12748133248E+02 -0.11492001403E+02  0.24864012653E+02  0.00000000000E+00 0.  1.
</event>
<event>
 7    1  0.1246400E-009  0.4778727E+02  0.7816164E-02  0.1312668E+00
        -11   -1    0    0    0    0  0.00000000000E+00  0.00000000000E+00  0.45593999997E+02  0.45594000000E+02  0.51100000000E-03 0. -1.
         11   -1    0    0    0    0 -0.00000000000E+00 -0.00000000000E+00 -0.45593999997E+02  0.45594000000E+02  0.51100000000E-03 0.  1.
    9900012    2    1    2    0    0 -0.20508863427E+02  0.31826241404E+02 -0.21215565176E+02  0.47787270435E+02  0.19999997224E+02 0.  0.
         12    1    1    2    0    0  0.20508863427E+02 -0.31826241404E+02  0.21215565176E+02  0.43400729565E+02  0.00000000000E+00 0. -1.
         11    1    3    3    0    0 -0.42649105036E+01 -0.70159305040E+00 -0.12094519896E+01  0.44882589930E+01  0.51100000000E-03 0. -1.
        -11    1    3    3    0    0 -0.17241574559E+01  0.17763093465E+01 -0.60550366913E+01  0.65415184339E+01  0.51100000000E-03 0.  1.
        -12    1    3    3    0    0 -0.14519795467E+02  0.30751525108E+02 -0.13951076496E+02  0.36757493009E+02  0.00000000000E+00 0.  1.
</event>
<event>
 7    1  0.1246400E-009  0.4778727E+02  0.7816164E-02  0.1312668E+00
        -11   -1    0    0    0    0  0.00000000000E+00  0.00000000000E+00  0.45593999997E+02  0.45594000000E+02  0.51100000000E-03 0. -1.
         11   -1    0    0    0    0 -0.00000000000E+00 -0.00000000000E+00 -0.45593999997E+02  0.45594000000E+02  0.51100000000E-03 0.  1.
    9900012    2    1    2    0    0  0.23183890546E+02  0.36479716369E+02 -0.39192749797E+01  0.47787271855E+02  0.20000003694E+02 0.  0.
         12    1    1    2    0    0 -0.23183890546E+02 -0.36479716369E+02  0.39192749797E+01  0.43400728145E+02  0.00000000000E+00 0. -1.
         11    1    3    3    0    0  0.13439355380E+02  0.23465862536E+02 -0.10352698496E+02  0.28955851636E+02  0.51100000000E-03 0. -1.
        -11    1    3    3    0    0  0.86687816153E+01  0.62193353594E+01  0.27038474121E+01  0.11006302653E+02  0.51100000000E-03 0.  1.
        -12    1    3    3    0    0  0.10757535509E+01  0.67945184736E+01  0.37295761045E+01  0.78251175652E+01  0.00000000000E+00 0.  1.
</event>
<event>
 7    1  0.1246400E-009  0.4778727E+02  0.7816164E-02  0.1312668E+00
        -11   -1    0    0    0    0  0.00000000000E+00  0.00000000000E+00  0.45593999997E+02  0.45594000000E+02  0.51100000000E-03 0. -1.
         11   -1    0    0    0    0 -0.00000000000E+00 -0.00000000000E+00 -0.45593999997E+02  0.45594000000E+02  0.51100000000E-03 0.  1.
    9900012    2    1    2    0    0 -0.73567305266E+01  0.40525847587E+02 -0.13680550817E+02  0.47787271004E+02  0.19999999818E+02 0.  0.
         12    1    1    2    0    0  0.73567305266E+01 -0.40525847587E+02  0.13680550817E+02  0.43400728996E+02  0.00000000000E+00 0. -1.
         11    1    3    3    0    0  0.71502231763E+00  0.14745798796E+02  0.16200213990E+01  0.14851744296E+02  0.51100000000E-03 0. -1.
        -11    1    3    3    0    0 -0.35892196987E+00  0.32995410328E+01 -0.70242621376E+01  0.77689159377E+01  0.51100000000E-03 0.  1.
        -12    1    3    3    0    0 -0.77128308744E+01  0.22480507758E+02 -0.82763100786E+01  0.25166610771E+02  0.00000000000E+00 0.  1.
</event>
<event>
 7    1  0.1246400E-009  0.4778727E+02  0.7816164E-02  0.1312668E+00
        -11   -1    0    0    0    0  0.00000000000E+00  0.00000000000E+00  0.45593999997E+02  0.45594000000E+02  0.51100000000E-03 0. -1.
         11   -1    0    0    0    0 -0.00000000000E+00 -0.00000000000E+00 -0.45593999997E+02  0.45594000000E+02  0.51100000000E-03 0.  1.
    9900012    2    1    2    0    0 -0.13358047270E+02  0.35900194458E+02 -0.20404951676E+02  0.47787269109E+02  0.19999991176E+02 0.  0.
         12    1    1    2    0    0  0.13358047270E+02 -0.35900194458E+02  0.20404951676E+02  0.43400730891E+02  0.00000000000E+00 0. -1.
         11    1    3    3    0    0 -0.17593316297E+01  0.66713988946E+01 -0.13277263572E+02  0.14962905440E+02  0.51100000000E-03 0. -1.
        -11    1    3    3    0    0 -0.21131930116E+01  0.13293936937E+02 -0.37658756550E+01  0.13977702375E+02  0.51100000000E-03 0.  1.
         12    1    3    3    0    0 -0.94855226286E+01  0.15934858626E+02 -0.33618124493E+01  0.18846661294E+02  0.00000000000E+00 0. -1.
</event>
<event>
 7    1  0.1246400E-009  0.4778727E+02  0.7816164E-02  0.1312668E+00
        -11   -1    0    0    0    0  0.00000000000E+00  0.00000000000E+00  0.45593999997E+02  0.45594000000E+02  0.51100000000E-03 0.  1.
         11   -1    0    0    0    0 -0.00000000000E+00 -0.00000000000E+00 -0.45593999997E+02  0.45594000000E+02  0.51100000000E-03 0. -1.
    9900012    2    1    2    0    0  0.58655663197E+01  0.32507174292E+02  0.28151410601E+02  0.47787272270E+02  0.20000005587E+02 0.  0.
         12    1    1    2    0    0 -0.58655663197E+01 -0.32507174292E+02 -0.28151410601E+02  0.43400727730E+02  0.00000000000E+00 0. -1.
         11    1    3    3    0    0  0.11938296168E+01 -0.13747948555E+01  0.16631795030E+01  0.24660609013E+01  0.51100000000E-03 0. -1.
        -11    1    3    3    0    0  0.26944477014E+01  0.57698301601E+01 -0.38631755841E+00  0.63796731898E+01  0.51100000000E-03 0.  1.
         12    1    3    3    0    0  0.19772890014E+01  0.28112138987E+02  0.26874548657E+02  0.38941538179E+02  0.00000000000E+00 0. -1.
</event>
<event>
 7    1  0.1246400E-009  0.4778727E+02  0.7816164E-02  0.1312668E+00
        -11   -1    0    0    0    0  0.00000000000E+00  0.00000000000E+00  0.45593999997E+02  0.45594000000E+02  0.51100000000E-03 0.  1.
         11   -1    0    0    0    0 -0.00000000000E+00 -0.00000000000E+00 -0.45593999997E+02  0.45594000000E+02  0.51100000000E-03 0. -1.
    9900012    2    1    2    0    0 -0.28222793568E+02 -0.16939351373E+02  0.28287025082E+02  0.47787268558E+02  0.19999988663E+02 0.  0.
         12    1    1    2    0    0  0.28222793568E+02  0.16939351373E+02 -0.28287025082E+02  0.43400731442E+02  0.00000000000E+00 0. -1.
         11    1    3    3    0    0 -0.32288265190E+01 -0.46921911477E+01 -0.71049108168E+00  0.57399282483E+01  0.51100000000E-03 0. -1.
        -11    1    3    3    0    0 -0.72544159697E+01 -0.91475856504E+01  0.16140647870E+02  0.19920476606E+02  0.51100000000E-03 0.  1.
        -12    1    3    3    0    0 -0.17739551079E+02 -0.30995745753E+01  0.12856868294E+02  0.22126863703E+02  0.00000000000E+00 0.  1.
</event>
<event>
 7    1  0.1246400E-009  0.4778727E+02  0.7816164E-02  0.1312668E+00
        -11   -1    0    0    0    0  0.00000000000E+00  0.00000000000E+00  0.45593999997E+02  0.45594000000E+02  0.51100000000E-03 0.  1.
         11   -1    0    0    0    0 -0.00000000000E+00 -0.00000000000E+00 -0.45593999997E+02  0.45594000000E+02  0.51100000000E-03 0. -1.
    9900012    2    1    2    0    0 -0.14181171759E+02 -0.19165182404E+02  0.36265870167E+02  0.47787272033E+02  0.20000004509E+02 0.  0.
         12    1    1    2    0    0  0.14181171759E+02  0.19165182404E+02 -0.36265870167E+02  0.43400727967E+02  0.00000000000E+00 0. -1.
         11    1    3    3    0    0 -0.13221322156E+02 -0.15558495786E+02  0.20784043318E+02  0.29134972243E+02  0.51100000000E-03 0. -1.
        -11    1    3    3    0    0 -0.14571348458E+01 -0.30298689386E+01  0.21759352277E+00  0.33690792431E+01  0.51100000000E-03 0.  1.
        -12    1    3    3    0    0  0.49728524347E+00 -0.57681767895E+00  0.15264233327E+02  0.15283220547E+02  0.00000000000E+00 0.  1.
</event>
<event>
 7    1  0.1246400E-009  0.4778727E+02  0.7816164E-02  0.1312668E+00
        -11   -1    0    0    0    0  0.00000000000E+00  0.00000000000E+00  0.45593999997E+02  0.45594000000E+02  0.51100000000E-03 0. -1.
         11   -1    0    0    0    0 -0.00000000000E+00 -0.00000000000E+00 -0.45593999997E+02  0.45594000000E+02  0.51100000000E-03 0.  1.
    9900012    2    1    2    0    0  0.36081350550E+01  0.36652514876E+02 -0.22960785114E+02  0.47787272606E+02  0.20000007119E+02 0.  0.
         12    1    1    2    0    0 -0.36081350550E+01 -0.36652514876E+02  0.22960785114E+02  0.43400727394E+02  0.00000000000E+00 0. -1.
         11    1    3    3    0    0 -0.60026185806E+01  0.13606260962E+02 -0.12803219756E+02  0.19623562459E+02  0.51100000000E-03 0. -1.
        -11    1    3    3    0    0  0.39481856057E+01  0.20761664419E+01 -0.26120292482E+01  0.51692682003E+01  0.51100000000E-03 0.  1.
        -12    1    3    3    0    0  0.56625680298E+01  0.20970087472E+02 -0.75455361097E+01  0.22994441947E+02  0.00000000000E+00 0.  1.
</event>
<event>
 7    1  0.1246400E-009  0.4778727E+02  0.7816164E-02  0.1312668E+00
        -11   -1    0    0    0    0  0.00000000000E+00  0.00000000000E+00  0.45593999997E+02  0.45594000000E+02  0.51100000000E-03 0.  1.
         11   -1    0    0    0    0 -0.00000000000E+00 -0.00000000000E+00 -0.45593999997E+02  0.45594000000E+02  0.51100000000E-03 0. -1.
    9900012    2    1    2    0    0  0.40095806311E+02  0.99616740208E+01  0.13293406320E+02  0.47787270920E+02  0.19999999435E+02 0.  0.
         12    1    1    2    0    0 -0.40095806311E+02 -0.99616740208E+01 -0.13293406320E+02  0.43400729080E+02  0.00000000000E+00 0. -1.
         11    1    3    3    0    0  0.75001786589E+01  0.78608759165E+01  0.93593387903E+00  0.10905137440E+02  0.51100000000E-03 0. -1.
        -11    1    3    3    0    0  0.21560757252E+02  0.48555776685E+01  0.12725646648E+02  0.25502646346E+02  0.51100000000E-03 0.  1.
         12    1    3    3    0    0  0.11034870401E+02 -0.27547795641E+01 -0.36817420782E+00  0.11379487135E+02  0.00000000000E+00 0. -1.
</event>
<event>
 7    1  0.1246400E-009  0.4778727E+02  0.7816164E-02  0.1312668E+00
        -11   -1    0    0    0    0  0.00000000000E+00  0.00000000000E+00  0.45593999997E+02  0.45594000000E+02  0.51100000000E-03 0.  1.
         11   -1    0    0    0    0 -0.00000000000E+00 -0.00000000000E+00 -0.45593999997E+02  0.45594000000E+02  0.51100000000E-03 0. -1.
    9900012    2    1    2    0    0 -0.34344488386E+01  0.46568110113E+01  0.43013275483E+02  0.47787271949E+02  0.20000004123E+02 0.  0.
         12    1    1    2    0    0  0.34344488386E+01 -0.46568110113E+01 -0.43013275483E+02  0.43400728051E+02  0.00000000000E+00 0. -1.
         11    1    3    3    0    0  0.20546651759E+01 -0.36861334235E+00  0.11938881783E+01  0.24047648585E+01  0.51100000000E-03 0. -1.
        -11    1    3    3    0    0 -0.68044488679E+01  0.62367628104E+01  0.42483779331E+02  0.43474926581E+02  0.51100000000E-03 0.  1.
        -12    1    3    3    0    0  0.13153348533E+01 -0.12113384568E+01 -0.66439202646E+00  0.19075805089E+01  0.00000000000E+00 0.  1.
</event>
<event>
 7    1  0.1246400E-009  0.4778724E+02  0.7816164E-02  0.1312668E+00
        -11   -1    0    0    0    0  0.00000000000E+00  0.00000000000E+00  0.45593999997E+02  0.45594000000E+02  0.51100000000E-03 0. -1.
         11   -1    0    0    0    0 -0.00000000000E+00 -0.00000000000E+00 -0.45593999997E+02  0.45594000000E+02  0.51100000000E-03 0.  1.
    9900012    2    1    2    0    0 -0.35732543814E+02 -0.18540393407E+01 -0.24563660488E+02  0.47787244640E+02  0.19999879610E+02 0.  0.
         12    1    1    2    0    0  0.35732543814E+02  0.18540393407E+01  0.24563660488E+02  0.43400755360E+02  0.00000000000E+00 0. -1.
         11    1    3    3    0    0 -0.28395293088E+02 -0.31907164227E+01 -0.19546447734E+02  0.34619892550E+02  0.51100000000E-03 0. -1.
        -11    1    3    3    0    0 -0.87050826825E+01  0.34340002737E+01 -0.51089757500E+01  0.10661728559E+02  0.51100000000E-03 0.  1.
         12    1    3    3    0    0  0.13678319570E+01 -0.20973231917E+01  0.91762996092E-01  0.25056235312E+01  0.00000000000E+00 0. -1.
</event>
<event>
 7    1  0.1246400E-009  0.4778728E+02  0.7816164E-02  0.1312668E+00
        -11   -1    0    0    0    0  0.00000000000E+00  0.00000000000E+00  0.45593999997E+02  0.45594000000E+02  0.51100000000E-03 0.  1.
         11   -1    0    0    0    0 -0.00000000000E+00 -0.00000000000E+00 -0.45593999997E+02  0.45594000000E+02  0.51100000000E-03 0. -1.
    9900012    2    1    2    0    0 -0.75883835086E+01 -0.97433694963E+01  0.41606561260E+02  0.47787277042E+02  0.20000027345E+02 0.  0.
         12    1    1    2    0    0  0.75883835086E+01  0.97433694963E+01 -0.41606561260E+02  0.43400722958E+02  0.00000000000E+00 0. -1.
         11    1    3    3    0    0 -0.65418153459E+00 -0.56138274501E+01  0.13071526834E+02  0.14241061272E+02  0.51100000000E-03 0.  1.
        -11    1    3    3    0    0 -0.35862402270E+01 -0.92487004430E+01  0.23883964958E+02  0.25862006133E+02  0.51100000000E-03 0. -1.
         12    1    3    3    0    0 -0.33479617470E+01  0.51191583967E+01  0.46510694676E+01  0.76842096368E+01  0.00000000000E+00 0. -1.
</event>
<event>
 7    1  0.1246400E-009  0.4778727E+02  0.7816164E-02  0.1312668E+00
        -11   -1    0    0    0    0  0.00000000000E+00  0.00000000000E+00  0.45593999997E+02  0.45594000000E+02  0.51100000000E-03 0.  1.
         11   -1    0    0    0    0 -0.00000000000E+00 -0.00000000000E+00 -0.45593999997E+02  0.45594000000E+02  0.51100000000E-03 0. -1.
    9900012    2    1    2    0    0 -0.34328379039E+02 -0.17131874525E+02 -0.20290015397E+02  0.47787268935E+02  0.19999990380E+02 0.  0.
         12    1    1    2    0    0  0.34328379039E+02  0.17131874525E+02  0.20290015397E+02  0.43400731065E+02  0.00000000000E+00 0. -1.
         11    1    3    3    0    0 -0.27101046698E+00  0.13735766670E+01 -0.14052454808E+01  0.19836518484E+01  0.51100000000E-03 0. -1.
        -11    1    3    3    0    0 -0.32943471040E+02 -0.16049839453E+02 -0.21124840371E+02  0.42298091111E+02  0.51100000000E-03 0.  1.
        -12    1    3    3    0    0 -0.11138975323E+01 -0.24556117383E+01  0.22400704548E+01  0.35055259754E+01  0.00000000000E+00 0.  1.
</event>
<event>
 7    1  0.1246400E-009  0.4778728E+02  0.7816164E-02  0.1312668E+00
        -11   -1    0    0    0    0  0.00000000000E+00  0.00000000000E+00  0.45593999997E+02  0.45594000000E+02  0.51100000000E-03 0. -1.
         11   -1    0    0    0    0 -0.00000000000E+00 -0.00000000000E+00 -0.45593999997E+02  0.45594000000E+02  0.51100000000E-03 0.  1.
    9900012    2    1    2    0    0  0.11556041608E+02 -0.29674213183E+02  0.29487644522E+02  0.47787283357E+02  0.20000056137E+02 0.  0.
         12    1    1    2    0    0 -0.11556041608E+02  0.29674213183E+02 -0.29487644522E+02  0.43400716643E+02  0.00000000000E+00 0. -1.
         11    1    3    3    0    0 -0.68519652297E+00  0.77557541057E+00 -0.20522365160E+00  0.10550490514E+01  0.51100000000E-03 0. -1.
        -11    1    3    3    0    0  0.99024511039E+01 -0.24682670439E+02  0.30488926155E+02  0.40458217660E+02  0.51100000000E-03 0.  1.
         12    1    3    3    0    0  0.23387870266E+01 -0.57671181546E+01 -0.79605798073E+00  0.62740166459E+01  0.00000000000E+00 0. -1.
</event>
<event>
 7    1  0.1246400E-009  0.4778727E+02  0.7816164E-02  0.1312668E+00
        -11   -1    0    0    0    0  0.00000000000E+00  0.00000000000E+00  0.45593999997E+02  0.45594000000E+02  0.51100000000E-03 0. -1.
         11   -1    0    0    0    0 -0.00000000000E+00 -0.00000000000E+00 -0.45593999997E+02  0.45594000000E+02  0.51100000000E-03 0.  1.
    9900012    2    1    2    0    0  0.22082648487E+02  0.24662143896E+02 -0.28067032255E+02  0.47787274138E+02  0.20000014104E+02 0.  0.
         12    1    1    2    0    0 -0.22082648487E+02 -0.24662143896E+02  0.28067032255E+02  0.43400725862E+02  0.00000000000E+00 0. -1.
         11    1    3    3    0    0  0.82313756383E+01  0.12693702656E+02 -0.68609519821E+01  0.16611992487E+02  0.51100000000E-03 0. -1.
        -11    1    3    3    0    0  0.12679751091E+02  0.21230021739E+01 -0.13259806576E+02  0.18469046989E+02  0.51100000000E-03 0.  1.
        -12    1    3    3    0    0  0.11715217572E+01  0.98454390665E+01 -0.79462736966E+01  0.12706234663E+02  0.00000000000E+00 0.  1.
</event>
<event>
 7    1  0.1246400E-009  0.4778727E+02  0.7816164E-02  0.1312668E+00
        -11   -1    0    0    0    0  0.00000000000E+00  0.00000000000E+00  0.45593999997E+02  0.45594000000E+02  0.51100000000E-03 0.  1.
         11   -1    0    0    0    0 -0.00000000000E+00 -0.00000000000E+00 -0.45593999997E+02  0.45594000000E+02  0.51100000000E-03 0. -1.
    9900012    2    1    2    0    0  0.32002296166E+02  0.14769729669E+02  0.25324522318E+02  0.47787270686E+02  0.19999998365E+02 0.  0.
         12    1    1    2    0    0 -0.32002296166E+02 -0.14769729669E+02 -0.25324522318E+02  0.43400729314E+02  0.00000000000E+00 0. -1.
         11    1    3    3    0    0  0.19650326119E+00  0.26300904963E+01 -0.14562123315E+01  0.30127303507E+01  0.51100000000E-03 0. -1.
        -11    1    3    3    0    0  0.23532620404E+02  0.11573096225E+02  0.14528897965E+02  0.29980154363E+02  0.51100000000E-03 0.  1.
         12    1    3    3    0    0  0.82731725011E+01  0.56654294718E+00  0.12251836684E+02  0.14794385972E+02  0.00000000000E+00 0. -1.
</event>
<event>
 7    1  0.1246400E-009  0.4778728E+02  0.7816164E-02  0.1312668E+00
        -11   -1    0    0    0    0  0.00000000000E+00  0.00000000000E+00  0.45593999997E+02  0.45594000000E+02  0.51100000000E-03 0. -1.
         11   -1    0    0    0    0 -0.00000000000E+00 -0.00000000000E+00 -0.45593999997E+02  0.45594000000E+02  0.51100000000E-03 0.  1.
    9900012    2    1    2    0    0  0.30430501210E+02  0.30896636646E+02 -0.17335417019E+01  0.47787277348E+02  0.20000028739E+02 0.  0.
         12    1    1    2    0    0 -0.30430501210E+02 -0.30896636646E+02  0.17335417019E+01  0.43400722652E+02  0.00000000000E+00 0. -1.
         11    1    3    3    0    0  0.22144506143E+01  0.10820950783E+01  0.47876269434E+01  0.53848020662E+01  0.51100000000E-03 0. -1.
        -11    1    3    3    0    0  0.14154657896E+02  0.89909303694E+01 -0.28450057199E+01  0.17008386957E+02  0.51100000000E-03 0.  1.
        -12    1    3    3    0    0  0.14061392699E+02  0.20823611198E+02 -0.36761629254E+01  0.25394088325E+02  0.00000000000E+00 0.  1.
</event>
<event>
 7    1  0.1246400E-009  0.4778729E+02  0.7816164E-02  0.1312668E+00
        -11   -1    0    0    0    0  0.00000000000E+00  0.00000000000E+00  0.45593999997E+02  0.45594000000E+02  0.51100000000E-03 0.  1.
         11   -1    0    0    0    0 -0.00000000000E+00 -0.00000000000E+00 -0.45593999997E+02  0.45594000000E+02  0.51100000000E-03 0. -1.
    9900012    2    1    2    0    0 -0.30246279510E+02 -0.20905184263E+02  0.23059861920E+02  0.47787292805E+02  0.20000099213E+02 0.  0.
         12    1    1    2    0    0  0.30246279510E+02  0.20905184263E+02 -0.23059861920E+02  0.43400707195E+02  0.00000000000E+00 0. -1.
         11    1    3    3    0    0 -0.92419013012E+01 -0.10441927883E+02  0.14259225952E+01  0.14017127134E+02  0.51100000000E-03 0. -1.
        -11    1    3    3    0    0 -0.77865202996E+01 -0.94539606855E+01  0.13450811795E+02  0.18191525753E+02  0.51100000000E-03 0.  1.
        -12    1    3    3    0    0 -0.13217857909E+02 -0.10092956945E+01  0.81831275303E+01  0.15578639918E+02  0.00000000000E+00 0.  1.
</event>
<event>
 7    1  0.1246400E-009  0.4778727E+02  0.7816164E-02  0.1312668E+00
        -11   -1    0    0    0    0  0.00000000000E+00  0.00000000000E+00  0.45593999997E+02  0.45594000000E+02  0.51100000000E-03 0.  1.
         11   -1    0    0    0    0 -0.00000000000E+00 -0.00000000000E+00 -0.45593999997E+02  0.45594000000E+02  0.51100000000E-03 0. -1.
    9900012    2    1    2    0    0 -0.18573938148E+02 -0.33147635864E+02  0.20972999735E+02  0.47787266601E+02  0.19999979739E+02 0.  0.
         12    1    1    2    0    0  0.18573938148E+02  0.33147635864E+02 -0.20972999735E+02  0.43400733399E+02  0.00000000000E+00 0. -1.
         11    1    3    3    0    0 -0.10888463429E+02 -0.21797286078E+02  0.17452941661E+02  0.29971411196E+02  0.51100000000E-03 0.  1.
        -11    1    3    3    0    0  0.27493825712E+01 -0.31046724244E+01  0.11835660936E+01  0.43126470229E+01  0.51100000000E-03 0. -1.
         12    1    3    3    0    0 -0.10434857290E+02 -0.82456773623E+01  0.23364919810E+01  0.13503208382E+02  0.00000000000E+00 0. -1.
</event>
<event>
 7    1  0.1246400E-009  0.4778728E+02  0.7816164E-02  0.1312668E+00
        -11   -1    0    0    0    0  0.00000000000E+00  0.00000000000E+00  0.45593999997E+02  0.45594000000E+02  0.51100000000E-03 0. -1.
         11   -1    0    0    0    0 -0.00000000000E+00 -0.00000000000E+00 -0.45593999997E+02  0.45594000000E+02  0.51100000000E-03 0.  1.
    9900012    2    1    2    0    0  0.14615099672E+02  0.37334503673E+02 -0.16617959394E+02  0.47787275613E+02  0.20000020829E+02 0.  0.
         12    1    1    2    0    0 -0.14615099672E+02 -0.37334503673E+02  0.16617959394E+02  0.43400724387E+02  0.00000000000E+00 0. -1.
         11    1    3    3    0    0 -0.12632995274E+01  0.50789917818E+01  0.14400158946E+01  0.54282344509E+01  0.51100000000E-03 0. -1.
        -11    1    3    3    0    0  0.33385289693E+01  0.58251260622E+01 -0.99475133493E+01  0.12001287073E+02  0.51100000000E-03 0.  1.
        -12    1    3    3    0    0  0.12539870230E+02  0.26430385829E+02 -0.81104619396E+01  0.30357754089E+02  0.00000000000E+00 0.  1.
</event>
<event>
 7    1  0.1246400E-009  0.4778727E+02  0.7816164E-02  0.1312668E+00
        -11   -1    0    0    0    0  0.00000000000E+00  0.00000000000E+00  0.45593999997E+02  0.45594000000E+02  0.51100000000E-03 0. -1.
         11   -1    0    0    0    0 -0.00000000000E+00 -0.00000000000E+00 -0.45593999997E+02  0.45594000000E+02  0.51100000000E-03 0.  1.
    9900012    2    1    2    0    0  0.35551095869E+02 -0.10767986789E+02 -0.22445341862E+02  0.47787270417E+02  0.19999997140E+02 0.  0.
         12    1    1    2    0    0 -0.35551095869E+02  0.10767986789E+02  0.22445341862E+02  0.43400729583E+02  0.00000000000E+00 0. -1.
         11    1    3    3    0    0  0.81506193615E+01 -0.22560174061E+01  0.18960771206E-01  0.84571017663E+01  0.51100000000E-03 0. -1.
        -11    1    3    3    0    0  0.27672332407E+02 -0.76734539835E+01 -0.24088664314E+02  0.37482044042E+02  0.51100000000E-03 0.  1.
        -12    1    3    3    0    0 -0.27185589863E+00 -0.83851539921E+00  0.16243616799E+01  0.18481246093E+01  0.00000000000E+00 0.  1.
</event>
<event>
 7    1  0.1246400E-009  0.4778727E+02  0.7816164E-02  0.1312668E+00
        -11   -1    0    0    0    0  0.00000000000E+00  0.00000000000E+00  0.45593999997E+02  0.45594000000E+02  0.51100000000E-03 0.  1.
         11   -1    0    0    0    0 -0.00000000000E+00 -0.00000000000E+00 -0.45593999997E+02  0.45594000000E+02  0.51100000000E-03 0. -1.
    9900012    2    1    2    0    0  0.25698767802E+02  0.45405550038E+01  0.34678231321E+02  0.47787273810E+02  0.20000012608E+02 0.  0.
         12    1    1    2    0    0 -0.25698767802E+02 -0.45405550038E+01 -0.34678231321E+02  0.43400726190E+02  0.00000000000E+00 0. -1.
         11    1    3    3    0    0  0.59483177351E+01 -0.48682007624E+01  0.37614494594E+01  0.85574742090E+01  0.51100000000E-03 0. -1.
        -11    1    3    3    0    0  0.15755066138E+02  0.24511516275E+01  0.22751536462E+02  0.27782416471E+02  0.51100000000E-03 0.  1.
        -12    1    3    3    0    0  0.39953839293E+01  0.69576041387E+01  0.81652453993E+01  0.11447383130E+02  0.00000000000E+00 0.  1.
</event>
<event>
 7    1  0.1246400E-009  0.4778726E+02  0.7816164E-02  0.1312668E+00
        -11   -1    0    0    0    0  0.00000000000E+00  0.00000000000E+00  0.45593999997E+02  0.45594000000E+02  0.51100000000E-03 0. -1.
         11   -1    0    0    0    0 -0.00000000000E+00 -0.00000000000E+00 -0.45593999997E+02  0.45594000000E+02  0.51100000000E-03 0.  1.
    9900012    2    1    2    0    0  0.39953413032E+02  0.15871344766E+02  0.59539150245E+01  0.47787263812E+02  0.19999967023E+02 0.  0.
         12    1    1    2    0    0 -0.39953413032E+02 -0.15871344766E+02 -0.59539150245E+01  0.43400736188E+02  0.00000000000E+00 0. -1.
         11    1    3    3    0    0 -0.60373421590E-01 -0.10025763113E+01  0.94075706408E+00  0.13761643524E+01  0.51100000000E-03 0. -1.
        -11    1    3    3    0    0  0.11714551227E+01  0.33153115594E+01 -0.28493653870E+01  0.45257575289E+01  0.51100000000E-03 0.  1.
        -12    1    3    3    0    0  0.38842331331E+02  0.13558609517E+02  0.78625233474E+01  0.41885341931E+02  0.00000000000E+00 0.  1.
</event>
<event>
 7    1  0.1246400E-009  0.4778727E+02  0.7816164E-02  0.1312668E+00
        -11   -1    0    0    0    0  0.00000000000E+00  0.00000000000E+00  0.45593999997E+02  0.45594000000E+02  0.51100000000E-03 0.  1.
         11   -1    0    0    0    0 -0.00000000000E+00 -0.00000000000E+00 -0.45593999997E+02  0.45594000000E+02  0.51100000000E-03 0. -1.
    9900012    2    1    2    0    0 -0.17120743208E+02 -0.10367115964E+02  0.38510080726E+02  0.47787271217E+02  0.20000000785E+02 0.  0.
         12    1    1    2    0    0  0.17120743208E+02  0.10367115964E+02 -0.38510080726E+02  0.43400728783E+02  0.00000000000E+00 0. -1.
         11    1    3    3    0    0 -0.11406870015E+02 -0.18007465610E+01  0.10472373179E+02  0.15589418590E+02  0.51100000000E-03 0.  1.
        -11    1    3    3    0    0 -0.26148927186E+01  0.64689735261E+00  0.18089818441E+02  0.18289277503E+02  0.51100000000E-03 0. -1.
         12    1    3    3    0    0 -0.30989804751E+01 -0.92132667558E+01  0.99478891056E+01  0.13908575123E+02  0.00000000000E+00 0. -1.
</event>
<event>
 7    1  0.1246400E-009  0.4778728E+02  0.7816164E-02  0.1312668E+00
        -11   -1    0    0    0    0  0.00000000000E+00  0.00000000000E+00  0.45593999997E+02  0.45594000000E+02  0.51100000000E-03 0.  1.
         11   -1    0    0    0    0 -0.00000000000E+00 -0.00000000000E+00 -0.45593999997E+02  0.45594000000E+02  0.51100000000E-03 0. -1.
    9900012    2    1    2    0    0 -0.30938932478E+02 -0.25978827837E+02  0.15858935077E+02  0.47787275807E+02  0.20000021716E+02 0.  0.
         12    1    1    2    0    0  0.30938932478E+02  0.25978827837E+02 -0.15858935077E+02  0.43400724193E+02  0.00000000000E+00 0. -1.
         11    1    3    3    0    0  0.11539774027E+01 -0.11281489394E+01  0.11567060000E+01  0.19855359243E+01  0.51100000000E-03 0. -1.
        -11    1    3    3    0    0 -0.25153436409E+02 -0.24658249388E+02  0.79343085502E+01  0.36106479730E+02  0.51100000000E-03 0.  1.
         12    1    3    3    0    0 -0.69394734723E+01 -0.19242950985E+00  0.67679205264E+01  0.96952601533E+01  0.00000000000E+00 0. -1.
</event>
<event>
 7    1  0.1246400E-009  0.4778725E+02  0.7816164E-02  0.1312668E+00
        -11   -1    0    0    0    0  0.00000000000E+00  0.00000000000E+00  0.45593999997E+02  0.45594000000E+02  0.51100000000E-03 0. -1.
         11   -1    0    0    0    0 -0.00000000000E+00 -0.00000000000E+00 -0.45593999997E+02  0.45594000000E+02  0.51100000000E-03 0.  1.
    9900012    2    1    2    0    0  0.34077844174E+02 -0.26823151971E+02 -0.16864399286E+01  0.47787250872E+02  0.19999908027E+02 0.  0.
         12    1    1    2    0    0 -0.34077844174E+02  0.26823151971E+02  0.16864399286E+01  0.43400749128E+02  0.00000000000E+00 0. -1.
         11    1    3    3    0    0  0.16446480238E+02 -0.13841113359E+02  0.23589546939E+01  0.21624703438E+02  0.51100000000E-03 0. -1.
        -11    1    3    3    0    0  0.47752600871E+01 -0.96256725708E+01 -0.66308145817E+01  0.12626336904E+02  0.51100000000E-03 0.  1.
         12    1    3    3    0    0  0.12856103848E+02 -0.33563660413E+01  0.25854199592E+01  0.13536210531E+02  0.00000000000E+00 0. -1.
</event>
<event>
 7    1  0.1246400E-009  0.4778726E+02  0.7816164E-02  0.1312668E+00
        -11   -1    0    0    0    0  0.00000000000E+00  0.00000000000E+00  0.45593999997E+02  0.45594000000E+02  0.51100000000E-03 0. -1.
         11   -1    0    0    0    0 -0.00000000000E+00 -0.00000000000E+00 -0.45593999997E+02  0.45594000000E+02  0.51100000000E-03 0.  1.
    9900012    2    1    2    0    0 -0.20626543093E+02 -0.26863037980E+02 -0.27139395561E+02  0.47787264051E+02  0.19999968114E+02 0.  0.
         12    1    1    2    0    0  0.20626543093E+02  0.26863037980E+02  0.27139395561E+02  0.43400735949E+02  0.00000000000E+00 0. -1.
         11    1    3    3    0    0 -0.22451217439E+01 -0.10065498225E+01  0.18012801391E+01  0.30493154298E+01  0.51100000000E-03 0. -1.
        -11    1    3    3    0    0 -0.27226600987E+01 -0.70073185877E+01 -0.10162060821E+01  0.75860442172E+01  0.51100000000E-03 0.  1.
        -12    1    3    3    0    0 -0.15658761251E+02 -0.18849169570E+02 -0.27924469618E+02  0.37151904404E+02  0.00000000000E+00 0.  1.
</event>
<event>
 7    1  0.1246400E-009  0.4778729E+02  0.7816164E-02  0.1312668E+00
        -11   -1    0    0    0    0  0.00000000000E+00  0.00000000000E+00  0.45593999997E+02  0.45594000000E+02  0.51100000000E-03 0.  1.
         11   -1    0    0    0    0 -0.00000000000E+00 -0.00000000000E+00 -0.45593999997E+02  0.45594000000E+02  0.51100000000E-03 0. -1.
    9900012    2    1    2    0    0 -0.29604763072E+02  0.75910133648E+01  0.30814875852E+02  0.47787285096E+02  0.20000064065E+02 0.  0.
         12    1    1    2    0    0  0.29604763072E+02 -0.75910133648E+01 -0.30814875852E+02  0.43400714904E+02  0.00000000000E+00 0. -1.
         11    1    3    3    0    0 -0.49143135107E+01 -0.54437132463E+01  0.80329004649E+01  0.10877131117E+02  0.51100000000E-03 0. -1.
        -11    1    3    3    0    0 -0.18158031180E+02  0.53020110345E+01  0.15015499888E+02  0.24151411025E+02  0.51100000000E-03 0.  1.
        -12    1    3    3    0    0 -0.65324183807E+01  0.77327155766E+01  0.77664754993E+01  0.12758742954E+02  0.00000000000E+00 0.  1.
</event>
<event>
 7    1  0.1246400E-009  0.4778727E+02  0.7816164E-02  0.1312668E+00
        -11   -1    0    0    0    0  0.00000000000E+00  0.00000000000E+00  0.45593999997E+02  0.45594000000E+02  0.51100000000E-03 0.  1.
         11   -1    0    0    0    0 -0.00000000000E+00 -0.00000000000E+00 -0.45593999997E+02  0.45594000000E+02  0.51100000000E-03 0. -1.
    9900012    2    1    2    0    0 -0.41796168982E+02  0.89953685386E+01  0.74690641381E+01  0.47787270561E+02  0.19999997796E+02 0.  0.
         12    1    1    2    0    0  0.41796168982E+02 -0.89953685386E+01 -0.74690641381E+01  0.43400729439E+02  0.00000000000E+00 0. -1.
         11    1    3    3    0    0 -0.14937693796E+02  0.43631569518E+01  0.49145594885E+01  0.16319458623E+02  0.51100000000E-03 0. -1.
        -11    1    3    3    0    0 -0.28222870635E+02  0.64529550204E+01  0.31329321254E+01  0.29120204658E+02  0.51100000000E-03 0.  1.
        -12    1    3    3    0    0  0.13643954490E+01 -0.18207434336E+01 -0.57842747575E+00  0.23476072791E+01  0.00000000000E+00 0.  1.
</event>
<event>
 7    1  0.1246400E-009  0.4778727E+02  0.7816164E-02  0.1312668E+00
        -11   -1    0    0    0    0  0.00000000000E+00  0.00000000000E+00  0.45593999997E+02  0.45594000000E+02  0.51100000000E-03 0. -1.
         11   -1    0    0    0    0 -0.00000000000E+00 -0.00000000000E+00 -0.45593999997E+02  0.45594000000E+02  0.51100000000E-03 0.  1.
    9900012    2    1    2    0    0 -0.21651731527E+02  0.37311712466E+02  0.47604736504E+01  0.47787268731E+02  0.19999989453E+02 0.  0.
         12    1    1    2    0    0  0.21651731527E+02 -0.37311712466E+02 -0.47604736504E+01  0.43400731269E+02  0.00000000000E+00 0. -1.
         11    1    3    3    0    0 -0.17477553579E+02  0.22514227174E+02  0.11653307567E+02  0.30792123699E+02  0.51100000000E-03 0.  1.
        -11    1    3    3    0    0 -0.36496382295E+00  0.43555572688E+01 -0.13489332575E+01  0.45742429875E+01  0.51100000000E-03 0. -1.
        -12    1    3    3    0    0 -0.38092141250E+01  0.10441928023E+02 -0.55439006593E+01  0.12420902045E+02  0.00000000000E+00 0.  1.
</event>
<event>
 7    1  0.1246400E-009  0.4778728E+02  0.7816164E-02  0.1312668E+00
        -11   -1    0    0    0    0  0.00000000000E+00  0.00000000000E+00  0.45593999997E+02  0.45594000000E+02  0.51100000000E-03 0. -1.
         11   -1    0    0    0    0 -0.00000000000E+00 -0.00000000000E+00 -0.45593999997E+02  0.45594000000E+02  0.51100000000E-03 0.  1.
    9900012    2    1    2    0    0 -0.40657357333E+02  0.11612913286E+02 -0.97847959797E+01  0.47787277740E+02  0.20000030530E+02 0.  0.
         12    1    1    2    0    0  0.40657357333E+02 -0.11612913286E+02  0.97847959797E+01  0.43400722260E+02  0.00000000000E+00 0. -1.
         11    1    3    3    0    0 -0.25387034413E+02  0.79452124895E+01 -0.59941291297E+01  0.27268250807E+02  0.51100000000E-03 0. -1.
        -11    1    3    3    0    0 -0.14394736080E+02  0.74041643466E+01 -0.20911182867E+01  0.16321851992E+02  0.51100000000E-03 0.  1.
         12    1    3    3    0    0 -0.87558683965E+00 -0.37364635497E+01 -0.16995485634E+01  0.41971749417E+01  0.00000000000E+00 0. -1.
</event>
<event>
 7    1  0.1246400E-009  0.4778727E+02  0.7816164E-02  0.1312668E+00
        -11   -1    0    0    0    0  0.00000000000E+00  0.00000000000E+00  0.45593999997E+02  0.45594000000E+02  0.51100000000E-03 0.  1.
         11   -1    0    0    0    0 -0.00000000000E+00 -0.00000000000E+00 -0.45593999997E+02  0.45594000000E+02  0.51100000000E-03 0. -1.
    9900012    2    1    2    0    0  0.21835068717E+02 -0.26530719747E+02  0.26513655946E+02  0.47787271114E+02  0.20000000319E+02 0.  0.
         12    1    1    2    0    0 -0.21835068717E+02  0.26530719747E+02 -0.26513655946E+02  0.43400728886E+02  0.00000000000E+00 0. -1.
         11    1    3    3    0    0  0.24890288271E+01  0.95939759280E+00  0.21009161180E+01  0.33955201426E+01  0.51100000000E-03 0. -1.
        -11    1    3    3    0    0  0.12244732401E+02 -0.19954484707E+02  0.24701223338E+02  0.34033297903E+02  0.51100000000E-03 0.  1.
         12    1    3    3    0    0  0.71013074896E+01 -0.75356326329E+01 -0.28848351077E+00  0.10358453069E+02  0.00000000000E+00 0. -1.
</event>
<event>
 7    1  0.1246400E-009  0.4778729E+02  0.7816164E-02  0.1312668E+00
        -11   -1    0    0    0    0  0.00000000000E+00  0.00000000000E+00  0.45593999997E+02  0.45594000000E+02  0.51100000000E-03 0.  1.
         11   -1    0    0    0    0 -0.00000000000E+00 -0.00000000000E+00 -0.45593999997E+02  0.45594000000E+02  0.51100000000E-03 0. -1.
    9900012    2    1    2    0    0  0.27854758517E+02 -0.31712201470E+02  0.10103001560E+02  0.47787286474E+02  0.20000070349E+02 0.  0.
         12    1    1    2    0    0 -0.27854758517E+02  0.31712201470E+02 -0.10103001560E+02  0.43400713526E+02  0.00000000000E+00 0. -1.
         11    1    3    3    0    0 -0.19369918443E+01 -0.13700513644E+01  0.33487043924E+01  0.41039979915E+01  0.51100000000E-03 0. -1.
        -11    1    3    3    0    0  0.16557169583E+02 -0.21668713926E+02  0.54189343259E+01  0.27803558716E+02  0.51100000000E-03 0.  1.
        -12    1    3    3    0    0  0.13234580778E+02 -0.86734361794E+01  0.13353628413E+01  0.15879729766E+02  0.00000000000E+00 0.  1.
</event>
<event>
 7    1  0.1417005E-009  0.4778727E+02  0.7816164E-02  0.1312668E+00
        -11   -1    0    0    0    0  0.00000000000E+00  0.00000000000E+00  0.45593999997E+02  0.45594000000E+02  0.51100000000E-03 0. -1.
         11   -1    0    0    0    0 -0.00000000000E+00 -0.00000000000E+00 -0.45593999997E+02  0.45594000000E+02  0.51100000000E-03 0.  1.
    9900012    2    1    2    0    0 -0.42265109590E+02  0.87979078200E+01  0.44588032422E+01  0.47787267322E+02  0.19999983027E+02 0.  0.
         12    1    1    2    0    0  0.42265109590E+02 -0.87979078200E+01 -0.44588032422E+01  0.43400732678E+02  0.00000000000E+00 0. -1.
         11    1    3    3    0    0 -0.21732231413E+01 -0.27796523777E+01 -0.15826047906E+01  0.38670407739E+01  0.51100000000E-03 0. -1.
        -11    1    3    3    0    0 -0.30245733575E+02  0.38851074889E+01  0.11925665226E+01  0.30517547000E+02  0.51100000000E-03 0.  1.
        -12    1    3    3    0    0 -0.98461528732E+01  0.76924527089E+01  0.48488415102E+01  0.13402679548E+02  0.00000000000E+00 0.  1.
</event>
<event>
 7    1  0.1246400E-009  0.4778731E+02  0.7816164E-02  0.1312668E+00
        -11   -1    0    0    0    0  0.00000000000E+00  0.00000000000E+00  0.45593999997E+02  0.45594000000E+02  0.51100000000E-03 0.  1.
         11   -1    0    0    0    0 -0.00000000000E+00 -0.00000000000E+00 -0.45593999997E+02  0.45594000000E+02  0.51100000000E-03 0. -1.
    9900012    2    1    2    0    0  0.43254144299E+02  0.34449701911E+01  0.91183087371E+00  0.47787305833E+02  0.20000158615E+02 0.  0.
         12    1    1    2    0    0 -0.43254144299E+02 -0.34449701911E+01 -0.91183087371E+00  0.43400694167E+02  0.00000000000E+00 0. -1.
         11    1    3    3    0    0  0.54830318704E+01 -0.51165376120E+01  0.27883783461E+00  0.75046882964E+01  0.51100000000E-03 0. -1.
        -11    1    3    3    0    0  0.28209280837E+02  0.12437781796E+01  0.51304188729E+00  0.28241347732E+02  0.51100000000E-03 0.  1.
        -12    1    3    3    0    0  0.95618315916E+01  0.73177296235E+01  0.11995115181E+00  0.12041269805E+02  0.00000000000E+00 0.  1.
</event>
<event>
 7    1  0.1246400E-009  0.4778727E+02  0.7816164E-02  0.1312668E+00
        -11   -1    0    0    0    0  0.00000000000E+00  0.00000000000E+00  0.45593999997E+02  0.45594000000E+02  0.51100000000E-03 0.  1.
         11   -1    0    0    0    0 -0.00000000000E+00 -0.00000000000E+00 -0.45593999997E+02  0.45594000000E+02  0.51100000000E-03 0. -1.
    9900012    2    1    2    0    0 -0.13287645484E+02 -0.27245833855E+02  0.31060050171E+02  0.47787266117E+02  0.19999977532E+02 0.  0.
         12    1    1    2    0    0  0.13287645484E+02  0.27245833855E+02 -0.31060050171E+02  0.43400733883E+02  0.00000000000E+00 0. -1.
         11    1    3    3    0    0 -0.89949363968E+01 -0.10456746766E+02  0.63592785940E+01  0.15188576570E+02  0.51100000000E-03 0. -1.
        -11    1    3    3    0    0  0.36609395781E+01 -0.27364026632E+01  0.27011721597E+01  0.53091156917E+01  0.51100000000E-03 0.  1.
        -12    1    3    3    0    0 -0.79536486651E+01 -0.14052684426E+02  0.21999599418E+02  0.27289573855E+02  0.00000000000E+00 0.  1.
</event>
<event>
 7    1  0.1246400E-009  0.4778727E+02  0.7816164E-02  0.1312668E+00
        -11   -1    0    0    0    0  0.00000000000E+00  0.00000000000E+00  0.45593999997E+02  0.45594000000E+02  0.51100000000E-03 0. -1.
         11   -1    0    0    0    0 -0.00000000000E+00 -0.00000000000E+00 -0.45593999997E+02  0.45594000000E+02  0.51100000000E-03 0.  1.
    9900012    2    1    2    0    0 -0.52422190888E-01  0.38842907829E+02  0.19361019084E+02  0.47787270781E+02  0.19999998801E+02 0.  0.
         12    1    1    2    0    0  0.52422190888E-01 -0.38842907829E+02 -0.19361019084E+02  0.43400729219E+02  0.00000000000E+00 0. -1.
         11    1    3    3    0    0 -0.64751593930E+01  0.69575974888E+01  0.76404714516E+01  0.12194779877E+02  0.51100000000E-03 0. -1.
        -11    1    3    3    0    0  0.52744321067E+01  0.12225450407E+02  0.80527982453E+01  0.15560489438E+02  0.51100000000E-03 0.  1.
        -12    1    3    3    0    0  0.11483050954E+01  0.19659859933E+02  0.36677493870E+01  0.20032001467E+02  0.00000000000E+00 0.  1.
</event>
<event>
 7    1  0.1246400E-009  0.4778727E+02  0.7816164E-02  0.1312668E+00
        -11   -1    0    0    0    0  0.00000000000E+00  0.00000000000E+00  0.45593999997E+02  0.45594000000E+02  0.51100000000E-03 0. -1.
         11   -1    0    0    0    0 -0.00000000000E+00 -0.00000000000E+00 -0.45593999997E+02  0.45594000000E+02  0.51100000000E-03 0.  1.
    9900012    2    1    2    0    0 -0.64674536643E+01  0.14533349234E+01 -0.42891527089E+02  0.47787271488E+02  0.20000002023E+02 0.  0.
         12    1    1    2    0    0  0.64674536643E+01 -0.14533349234E+01  0.42891527089E+02  0.43400728512E+02  0.00000000000E+00 0. -1.
         11    1    3    3    0    0 -0.10958450998E+01 -0.45926676417E+01 -0.27706470466E+01  0.54744824292E+01  0.51100000000E-03 0. -1.
        -11    1    3    3    0    0  0.30050928583E+00 -0.28253814219E+01 -0.10428216470E+02  0.10808366436E+02  0.51100000000E-03 0.  1.
        -12    1    3    3    0    0 -0.56721178503E+01  0.88713839870E+01 -0.29692663573E+02  0.31504422623E+02  0.00000000000E+00 0.  1.
</event>
<event>
 7    1  0.1246400E-009  0.4778727E+02  0.7816164E-02  0.1312668E+00
        -11   -1    0    0    0    0  0.00000000000E+00  0.00000000000E+00  0.45593999997E+02  0.45594000000E+02  0.51100000000E-03 0.  1.
         11   -1    0    0    0    0 -0.00000000000E+00 -0.00000000000E+00 -0.45593999997E+02  0.45594000000E+02  0.51100000000E-03 0. -1.
    9900012    2    1    2    0    0 -0.37654594889E+02 -0.16187033034E+02 -0.14273579167E+02  0.47787267092E+02  0.19999981978E+02 0.  0.
         12    1    1    2    0    0  0.37654594889E+02  0.16187033034E+02  0.14273579167E+02  0.43400732908E+02  0.00000000000E+00 0. -1.
         11    1    3    3    0    0  0.19663096681E+01 -0.22326907353E+01 -0.52340605936E+00  0.30208005221E+01  0.51100000000E-03 0. -1.
        -11    1    3    3    0    0 -0.16048268854E+02 -0.39540834212E+01 -0.21931995134E+01  0.16673087095E+02  0.51100000000E-03 0.  1.
        -12    1    3    3    0    0 -0.23572635704E+02 -0.10000258878E+02 -0.11556973594E+02  0.28093379475E+02  0.00000000000E+00 0.  1.
</event>
<event>
 7    1  0.1246400E-009  0.4778727E+02  0.7816164E-02  0.1312668E+00
        -11   -1    0    0    0    0  0.00000000000E+00  0.00000000000E+00  0.45593999997E+02  0.45594000000E+02  0.51100000000E-03 0. -1.
         11   -1    0    0    0    0 -0.00000000000E+00 -0.00000000000E+00 -0.45593999997E+02  0.45594000000E+02  0.51100000000E-03 0.  1.
    9900012    2    1    2    0    0 -0.24335793411E+02 -0.23470020410E+02 -0.27213059247E+02  0.47787270829E+02  0.19999999016E+02 0.  0.
         12    1    1    2    0    0  0.24335793411E+02  0.23470020410E+02  0.27213059247E+02  0.43400729171E+02  0.00000000000E+00 0. -1.
         11    1    3    3    0    0 -0.58234303751E+01 -0.14765332690E+01  0.83479908565E+00  0.60654250966E+01  0.51100000000E-03 0. -1.
        -11    1    3    3    0    0 -0.45624713146E+00 -0.39124874819E+01 -0.90828485238E+01  0.99001948116E+01  0.51100000000E-03 0.  1.
        -12    1    3    3    0    0 -0.18056115905E+02 -0.18080999659E+02 -0.18965009809E+02  0.31821650920E+02  0.00000000000E+00 0.  1.
</event>
<event>
 7    1  0.1246400E-009  0.4778727E+02  0.7816164E-02  0.1312668E+00
        -11   -1    0    0    0    0  0.00000000000E+00  0.00000000000E+00  0.45593999997E+02  0.45594000000E+02  0.51100000000E-03 0. -1.
         11   -1    0    0    0    0 -0.00000000000E+00 -0.00000000000E+00 -0.45593999997E+02  0.45594000000E+02  0.51100000000E-03 0.  1.
    9900012    2    1    2    0    0 -0.16038535021E+02 -0.39741798911E+02 -0.68540604646E+01  0.47787270384E+02  0.19999996991E+02 0.  0.
         12    1    1    2    0    0  0.16038535021E+02  0.39741798911E+02  0.68540604646E+01  0.43400729616E+02  0.00000000000E+00 0. -1.
         11    1    3    3    0    0  0.18066414548E+01  0.40290466542E+00  0.20940746943E+01  0.27948943812E+01  0.51100000000E-03 0. -1.
        -11    1    3    3    0    0 -0.97113984455E+01 -0.22734657383E+02 -0.69022245274E+01  0.25667423123E+02  0.51100000000E-03 0.  1.
         12    1    3    3    0    0 -0.81337780303E+01 -0.17410046193E+02 -0.20459106315E+01  0.19324952880E+02  0.00000000000E+00 0. -1.
</event>
<event>
 7    1  0.1246400E-009  0.4778726E+02  0.7816164E-02  0.1312668E+00
        -11   -1    0    0    0    0  0.00000000000E+00  0.00000000000E+00  0.45593999997E+02  0.45594000000E+02  0.51100000000E-03 0.  1.
         11   -1    0    0    0    0 -0.00000000000E+00 -0.00000000000E+00 -0.45593999997E+02  0.45594000000E+02  0.51100000000E-03 0. -1.
    9900012    2    1    2    0    0 -0.12956015336E+01  0.42314954906E+02 -0.95598277496E+01  0.47787259238E+02  0.19999946171E+02 0.  0.
         12    1    1    2    0    0  0.12956015336E+01 -0.42314954906E+02  0.95598277496E+01  0.43400740762E+02  0.00000000000E+00 0. -1.
         11    1    3    3    0    0  0.77492627922E+00  0.10917978714E+01 -0.37427901239E+01  0.39750486164E+01  0.51100000000E-03 0. -1.
        -11    1    3    3    0    0 -0.15130676140E+01  0.44661434182E+00  0.17279115880E+01  0.23397685124E+01  0.51100000000E-03 0.  1.
        -12    1    3    3    0    0 -0.55746019882E+00  0.40776542693E+02 -0.75449492137E+01  0.41472442109E+02  0.00000000000E+00 0.  1.
</event>
<event>
 7    1  0.1246400E-009  0.4778727E+02  0.7816164E-02  0.1312668E+00
        -11   -1    0    0    0    0  0.00000000000E+00  0.00000000000E+00  0.45593999997E+02  0.45594000000E+02  0.51100000000E-03 0.  1.
         11   -1    0    0    0    0 -0.00000000000E+00 -0.00000000000E+00 -0.45593999997E+02  0.45594000000E+02  0.51100000000E-03 0. -1.
    9900012    2    1    2    0    0  0.33355976213E+02 -0.27381786008E+02  0.46086773248E+01  0.47787271195E+02  0.20000000687E+02 0.  0.
         12    1    1    2    0    0 -0.33355976213E+02  0.27381786008E+02 -0.46086773248E+01  0.43400728805E+02  0.00000000000E+00 0. -1.
         11    1    3    3    0    0  0.24147740774E+02 -0.10815538881E+02 -0.72866912485E+00  0.26469231661E+02  0.51100000000E-03 0.  1.
        -11    1    3    3    0    0  0.96496636904E+01 -0.13940358609E+02  0.20351796019E+01  0.17076052347E+02  0.51100000000E-03 0. -1.
        -12    1    3    3    0    0 -0.44142825071E+00 -0.26258885171E+01  0.33021668478E+01  0.42419871870E+01  0.00000000000E+00 0.  1.
</event>
<event>
 7    1  0.1246400E-009  0.4778727E+02  0.7816164E-02  0.1312668E+00
        -11   -1    0    0    0    0  0.00000000000E+00  0.00000000000E+00  0.45593999997E+02  0.45594000000E+02  0.51100000000E-03 0.  1.
         11   -1    0    0    0    0 -0.00000000000E+00 -0.00000000000E+00 -0.45593999997E+02  0.45594000000E+02  0.51100000000E-03 0. -1.
    9900012    2    1    2    0    0 -0.30683099222E+02  0.26354156473E+02  0.15736252041E+02  0.47787265334E+02  0.19999973963E+02 0.  0.
         12    1    1    2    0    0  0.30683099222E+02 -0.26354156473E+02 -0.15736252041E+02  0.43400734666E+02  0.00000000000E+00 0. -1.
         11    1    3    3    0    0 -0.15072568840E+01  0.44099395084E+00 -0.18090179368E+01  0.23955886825E+01  0.51100000000E-03 0. -1.
        -11    1    3    3    0    0 -0.29477437006E+02  0.19381784010E+02  0.15568886252E+02  0.38561160034E+02  0.51100000000E-03 0.  1.
         12    1    3    3    0    0  0.30159466793E+00  0.65313785125E+01  0.19763837265E+01  0.68305166168E+01  0.00000000000E+00 0. -1.
</event>
<event>
 7    1  0.1246400E-009  0.4778727E+02  0.7816164E-02  0.1312668E+00
        -11   -1    0    0    0    0  0.00000000000E+00  0.00000000000E+00  0.45593999997E+02  0.45594000000E+02  0.51100000000E-03 0.  1.
         11   -1    0    0    0    0 -0.00000000000E+00 -0.00000000000E+00 -0.45593999997E+02  0.45594000000E+02  0.51100000000E-03 0. -1.
    9900012    2    1    2    0    0  0.19755168749E+02 -0.38441194368E+02 -0.39536097360E+01  0.47787272510E+02  0.20000006680E+02 0.  0.
         12    1    1    2    0    0 -0.19755168749E+02  0.38441194368E+02  0.39536097360E+01  0.43400727490E+02  0.00000000000E+00 0. -1.
         11    1    3    3    0    0  0.44028561562E+01 -0.65548961994E+01 -0.60995953015E+01  0.99778188809E+01  0.51100000000E-03 0. -1.
        -11    1    3    3    0    0  0.16657040517E+02 -0.21864240138E+02  0.43406795537E-01  0.27486430834E+02  0.51100000000E-03 0.  1.
         12    1    3    3    0    0 -0.13047279241E+01 -0.10022058031E+02  0.21025787700E+01  0.10323022794E+02  0.00000000000E+00 0. -1.
</event>
<event>
 7    1  0.1246400E-009  0.4778727E+02  0.7816164E-02  0.1312668E+00
        -11   -1    0    0    0    0  0.00000000000E+00  0.00000000000E+00  0.45593999997E+02  0.45594000000E+02  0.51100000000E-03 0.  1.
         11   -1    0    0    0    0 -0.00000000000E+00 -0.00000000000E+00 -0.45593999997E+02  0.45594000000E+02  0.51100000000E-03 0. -1.
    9900012    2    1    2    0    0 -0.77758408477E+01  0.27043174672E+02  0.33042796693E+02  0.47787269470E+02  0.19999992822E+02 0.  0.
         12    1    1    2    0    0  0.77758408477E+01 -0.27043174672E+02 -0.33042796693E+02  0.43400730530E+02  0.00000000000E+00 0. -1.
         11    1    3    3    0    0 -0.15234564867E+01  0.30515784195E+01 -0.91059627771E+00  0.35301892809E+01  0.51100000000E-03 0. -1.
        -11    1    3    3    0    0 -0.43013383144E+01  0.10505464219E+02  0.26260244499E+02  0.28608857565E+02  0.51100000000E-03 0.  1.
         12    1    3    3    0    0 -0.19510460466E+01  0.13486132033E+02  0.76931484720E+01  0.15648222624E+02  0.00000000000E+00 0. -1.
</event>
<event>
 7    1  0.1246400E-009  0.4778727E+02  0.7816164E-02  0.1312668E+00
        -11   -1    0    0    0    0  0.00000000000E+00  0.00000000000E+00  0.45593999997E+02  0.45594000000E+02  0.51100000000E-03 0. -1.
         11   -1    0    0    0    0 -0.00000000000E+00 -0.00000000000E+00 -0.45593999997E+02  0.45594000000E+02  0.51100000000E-03 0.  1.
    9900012    2    1    2    0    0  0.72700173622E+01 -0.31723375260E+01 -0.42669735186E+02  0.47787272141E+02  0.20000005001E+02 0.  0.
         12    1    1    2    0    0 -0.72700173622E+01  0.31723375260E+01  0.42669735186E+02  0.43400727859E+02  0.00000000000E+00 0. -1.
         11    1    3    3    0    0 -0.30931022857E+01 -0.44702788268E+01 -0.11941441653E+02  0.13120545094E+02  0.51100000000E-03 0. -1.
        -11    1    3    3    0    0  0.33874618393E+01 -0.50577555152E+01 -0.79647845949E+01  0.10024648745E+02  0.51100000000E-03 0.  1.
        -12    1    3    3    0    0  0.69756578086E+01  0.63556968160E+01 -0.22763508938E+02  0.24642078302E+02  0.00000000000E+00 0.  1.
</event>
<event>
 7    1  0.1246400E-009  0.4778727E+02  0.7816164E-02  0.1312668E+00
        -11   -1    0    0    0    0  0.00000000000E+00  0.00000000000E+00  0.45593999997E+02  0.45594000000E+02  0.51100000000E-03 0.  1.
         11   -1    0    0    0    0 -0.00000000000E+00 -0.00000000000E+00 -0.45593999997E+02  0.45594000000E+02  0.51100000000E-03 0. -1.
    9900012    2    1    2    0    0 -0.14202774856E+01  0.10349848640E+02  0.42124656218E+02  0.47787271705E+02  0.20000003014E+02 0.  0.
         12    1    1    2    0    0  0.14202774856E+01 -0.10349848640E+02 -0.42124656218E+02  0.43400728295E+02  0.00000000000E+00 0. -1.
         11    1    3    3    0    0 -0.17213476966E+01  0.10820077360E+01  0.80954046181E+01  0.83468170475E+01  0.51100000000E-03 0. -1.
        -11    1    3    3    0    0 -0.68892967207E+01  0.93455543856E+01  0.26973571965E+02  0.29366228578E+02  0.51100000000E-03 0.  1.
         12    1    3    3    0    0  0.71903669317E+01 -0.77713481815E-01  0.70556796354E+01  0.10074226080E+02  0.00000000000E+00 0. -1.
</event>
<event>
 7    1  0.1246400E-009  0.4778727E+02  0.7816164E-02  0.1312668E+00
        -11   -1    0    0    0    0  0.00000000000E+00  0.00000000000E+00  0.45593999997E+02  0.45594000000E+02  0.51100000000E-03 0. -1.
         11   -1    0    0    0    0 -0.00000000000E+00 -0.00000000000E+00 -0.45593999997E+02  0.45594000000E+02  0.51100000000E-03 0.  1.
    9900012    2    1    2    0    0 -0.24928731810E+02  0.35524330858E+02 -0.45126625687E+00  0.47787269663E+02  0.19999993701E+02 0.  0.
         12    1    1    2    0    0  0.24928731810E+02 -0.35524330858E+02  0.45126625687E+00  0.43400730337E+02  0.00000000000E+00 0. -1.
         11    1    3    3    0    0 -0.68876082275E+01  0.22227140097E+02 -0.24447327327E+01  0.23397897819E+02  0.51100000000E-03 0.  1.
        -11    1    3    3    0    0 -0.19076020880E+01 -0.12076916529E+01 -0.10352215276E+01  0.24837771090E+01  0.51100000000E-03 0. -1.
        -12    1    3    3    0    0 -0.16133521494E+02  0.14504882414E+02  0.30286880035E+01  0.21905594735E+02  0.00000000000E+00 0.  1.
</event>
<event>
 7    1  0.1246400E-009  0.4778727E+02  0.7816164E-02  0.1312668E+00
        -11   -1    0    0    0    0  0.00000000000E+00  0.00000000000E+00  0.45593999997E+02  0.45594000000E+02  0.51100000000E-03 0.  1.
         11   -1    0    0    0    0 -0.00000000000E+00 -0.00000000000E+00 -0.45593999997E+02  0.45594000000E+02  0.51100000000E-03 0. -1.
    9900012    2    1    2    0    0  0.24453030096E+02  0.25753234406E+00  0.35855358651E+02  0.47787265584E+02  0.19999975106E+02 0.  0.
         12    1    1    2    0    0 -0.24453030096E+02 -0.25753234406E+00 -0.35855358651E+02  0.43400734416E+02  0.00000000000E+00 0. -1.
         11    1    3    3    0    0  0.11200837394E+02 -0.18445399670E+01  0.22724824342E+02  0.25402337051E+02  0.51100000000E-03 0.  1.
        -11    1    3    3    0    0  0.92136435729E+01 -0.43825320858E+01  0.55145947928E+01  0.11597783036E+02  0.51100000000E-03 0. -1.
        -12    1    3    3    0    0  0.40385491287E+01  0.64846043969E+01  0.76159395168E+01  0.10787145497E+02  0.00000000000E+00 0.  1.
</event>
<event>
 7    1  0.1339479E-009  0.4778726E+02  0.7816164E-02  0.1312668E+00
        -11   -1    0    0    0    0  0.00000000000E+00  0.00000000000E+00  0.45593999997E+02  0.45594000000E+02  0.51100000000E-03 0. -1.
         11   -1    0    0    0    0 -0.00000000000E+00 -0.00000000000E+00 -0.45593999997E+02  0.45594000000E+02  0.51100000000E-03 0.  1.
    9900012    2    1    2    0    0 -0.20750223853E+02  0.37469666789E+02  0.70054463511E+01  0.47787262705E+02  0.19999961975E+02 0.  0.
         12    1    1    2    0    0  0.20750223853E+02 -0.37469666789E+02 -0.70054463511E+01  0.43400737295E+02  0.00000000000E+00 0. -1.
         11    1    3    3    0    0 -0.10163342514E+02  0.68835096523E+01 -0.11415826949E+01  0.12327994464E+02  0.51100000000E-03 0.  1.
        -11    1    3    3    0    0 -0.42386829706E+01  0.77940240925E+01  0.77748124657E+01  0.11796650118E+02  0.51100000000E-03 0. -1.
        -12    1    3    3    0    0 -0.63481983680E+01  0.22792133044E+02  0.37221658033E+00  0.23662618122E+02  0.00000000000E+00 0.  1.
</event>
<event>
 7    1  0.1246400E-009  0.4778727E+02  0.7816164E-02  0.1312668E+00
        -11   -1    0    0    0    0  0.00000000000E+00  0.00000000000E+00  0.45593999997E+02  0.45594000000E+02  0.51100000000E-03 0. -1.
         11   -1    0    0    0    0 -0.00000000000E+00 -0.00000000000E+00 -0.45593999997E+02  0.45594000000E+02  0.51100000000E-03 0.  1.
    9900012    2    1    2    0    0  0.13957815530E+02 -0.21263495627E+02 -0.35166265868E+02  0.47787272866E+02  0.20000008305E+02 0.  0.
         12    1    1    2    0    0 -0.13957815530E+02  0.21263495627E+02  0.35166265868E+02  0.43400727134E+02  0.00000000000E+00 0. -1.
         11    1    3    3    0    0 -0.12927209567E+01 -0.34819882558E+01 -0.94260726030E+01  0.10131446820E+02  0.51100000000E-03 0. -1.
        -11    1    3    3    0    0  0.13992377331E+02 -0.82429638913E+01 -0.95986551709E+01  0.18864444292E+02  0.51100000000E-03 0.  1.
         12    1    3    3    0    0  0.12581591553E+01 -0.95385434800E+01 -0.16141538094E+02  0.18791381754E+02  0.00000000000E+00 0. -1.
</event>
<event>
 7    1  0.1246400E-009  0.4778727E+02  0.7816164E-02  0.1312668E+00
        -11   -1    0    0    0    0  0.00000000000E+00  0.00000000000E+00  0.45593999997E+02  0.45594000000E+02  0.51100000000E-03 0.  1.
         11   -1    0    0    0    0 -0.00000000000E+00 -0.00000000000E+00 -0.45593999997E+02  0.45594000000E+02  0.51100000000E-03 0. -1.
    9900012    2    1    2    0    0  0.95680063951E+01  0.41900547349E+02  0.60349256682E+01  0.47787274864E+02  0.20000017414E+02 0.  0.
         12    1    1    2    0    0 -0.95680063951E+01 -0.41900547349E+02 -0.60349256682E+01  0.43400725136E+02  0.00000000000E+00 0. -1.
         11    1    3    3    0    0  0.32930444854E+01  0.44784207545E+00 -0.21753160863E+01  0.39719900357E+01  0.51100000000E-03 0. -1.
        -11    1    3    3    0    0  0.50447246790E+01  0.18710803541E+02 -0.61841707478E+00  0.19388807497E+02  0.51100000000E-03 0.  1.
         12    1    3    3    0    0  0.12302372306E+01  0.22741901733E+02  0.88286588293E+01  0.24426477331E+02  0.00000000000E+00 0. -1.
</event>
<event>
 7    1  0.1246400E-009  0.4778727E+02  0.7816164E-02  0.1312668E+00
        -11   -1    0    0    0    0  0.00000000000E+00  0.00000000000E+00  0.45593999997E+02  0.45594000000E+02  0.51100000000E-03 0. -1.
         11   -1    0    0    0    0 -0.00000000000E+00 -0.00000000000E+00 -0.45593999997E+02  0.45594000000E+02  0.51100000000E-03 0.  1.
    9900012    2    1    2    0    0  0.36268643595E+02 -0.19377305277E+02 -0.13882687388E+02  0.47787268703E+02  0.19999989324E+02 0.  0.
         12    1    1    2    0    0 -0.36268643595E+02  0.19377305277E+02  0.13882687388E+02  0.43400731297E+02  0.00000000000E+00 0. -1.
         11    1    3    3    0    0  0.21965922105E+02 -0.65350150718E+01 -0.15389588479E+02  0.27605209467E+02  0.51100000000E-03 0.  1.
        -11    1    3    3    0    0  0.18659522283E+01 -0.32581618467E+01 -0.17566142712E+01  0.41452491235E+01  0.51100000000E-03 0. -1.
        -12    1    3    3    0    0  0.12436769262E+02 -0.95841283583E+01  0.32635153623E+01  0.16036810112E+02  0.00000000000E+00 0.  1.
</event>
<event>
 7    1  0.1246400E-009  0.4778727E+02  0.7816164E-02  0.1312668E+00
        -11   -1    0    0    0    0  0.00000000000E+00  0.00000000000E+00  0.45593999997E+02  0.45594000000E+02  0.51100000000E-03 0. -1.
         11   -1    0    0    0    0 -0.00000000000E+00 -0.00000000000E+00 -0.45593999997E+02  0.45594000000E+02  0.51100000000E-03 0.  1.
    9900012    2    1    2    0    0  0.39000217426E+02 -0.17083751855E+02  0.84114337706E+01  0.47787265504E+02  0.19999974738E+02 0.  0.
         12    1    1    2    0    0 -0.39000217426E+02  0.17083751855E+02 -0.84114337706E+01  0.43400734496E+02  0.00000000000E+00 0. -1.
         11    1    3    3    0    0  0.22050665845E+02 -0.54591108784E+01 -0.22096898115E-02  0.22716376492E+02  0.51100000000E-03 0. -1.
        -11    1    3    3    0    0  0.11303091759E+01 -0.56672896036E+01 -0.77574226707E+00  0.58307415146E+01  0.51100000000E-03 0.  1.
         12    1    3    3    0    0  0.15819242406E+02 -0.59573513728E+01  0.91893857275E+01  0.19240147497E+02  0.00000000000E+00 0. -1.
</event>
<event>
 7    1  0.1246400E-009  0.4778727E+02  0.7816164E-02  0.1312668E+00
        -11   -1    0    0    0    0  0.00000000000E+00  0.00000000000E+00  0.45593999997E+02  0.45594000000E+02  0.51100000000E-03 0.  1.
         11   -1    0    0    0    0 -0.00000000000E+00 -0.00000000000E+00 -0.45593999997E+02  0.45594000000E+02  0.51100000000E-03 0. -1.
    9900012    2    1    2    0    0 -0.61495045363E+01  0.25802382763E+01  0.42885305109E+02  0.47787269247E+02  0.19999991806E+02 0.  0.
         12    1    1    2    0    0  0.61495045363E+01 -0.25802382763E+01 -0.42885305109E+02  0.43400730753E+02  0.00000000000E+00 0. -1.
         11    1    3    3    0    0 -0.52710548031E+01  0.42056705427E+00  0.33321226663E+02  0.33738183738E+02  0.51100000000E-03 0. -1.
        -11    1    3    3    0    0 -0.33163671753E+01 -0.27648412965E+01  0.63633656631E+01  0.76899324743E+01  0.51100000000E-03 0.  1.
         12    1    3    3    0    0  0.24379174421E+01  0.49245125185E+01  0.32007127829E+01  0.63591530346E+01  0.00000000000E+00 0. -1.
</event>
<event>
 7    1  0.1246400E-009  0.4778727E+02  0.7816164E-02  0.1312668E+00
        -11   -1    0    0    0    0  0.00000000000E+00  0.00000000000E+00  0.45593999997E+02  0.45594000000E+02  0.51100000000E-03 0.  1.
         11   -1    0    0    0    0 -0.00000000000E+00 -0.00000000000E+00 -0.45593999997E+02  0.45594000000E+02  0.51100000000E-03 0. -1.
    9900012    2    1    2    0    0 -0.23077185328E+02 -0.61381956209E+01  0.36240711472E+02  0.47787273092E+02  0.20000009336E+02 0.  0.
         12    1    1    2    0    0  0.23077185328E+02  0.61381956209E+01 -0.36240711472E+02  0.43400726908E+02  0.00000000000E+00 0. -1.
         11    1    3    3    0    0 -0.16704467153E+02 -0.60395238884E+01  0.16122535477E+02  0.23988564403E+02  0.51100000000E-03 0. -1.
        -11    1    3    3    0    0 -0.48556749348E+01 -0.36005734416E+01  0.18820928008E+02  0.19767878984E+02  0.51100000000E-03 0.  1.
        -12    1    3    3    0    0 -0.15170432401E+01  0.35019017091E+01  0.12972479874E+01  0.40308297054E+01  0.00000000000E+00 0.  1.
</event>
<event>
 7    1  0.1246400E-009  0.4778727E+02  0.7816164E-02  0.1312668E+00
        -11   -1    0    0    0    0  0.00000000000E+00  0.00000000000E+00  0.45593999997E+02  0.45594000000E+02  0.51100000000E-03 0.  1.
         11   -1    0    0    0    0 -0.00000000000E+00 -0.00000000000E+00 -0.45593999997E+02  0.45594000000E+02  0.51100000000E-03 0. -1.
    9900012    2    1    2    0    0  0.18771224981E+02 -0.28651426987E+02  0.26652587923E+02  0.47787267303E+02  0.19999982939E+02 0.  0.
         12    1    1    2    0    0 -0.18771224981E+02  0.28651426987E+02 -0.26652587923E+02  0.43400732697E+02  0.00000000000E+00 0. -1.
         11    1    3    3    0    0 -0.11204497270E+01 -0.88586908840E-01  0.36314373981E+01  0.38013935693E+01  0.51100000000E-03 0. -1.
        -11    1    3    3    0    0  0.17131414159E+02 -0.15341726896E+02  0.19176494924E+02  0.29943144342E+02  0.51100000000E-03 0.  1.
         12    1    3    3    0    0  0.27602605486E+01 -0.13221113182E+02  0.38446556012E+01  0.14042729391E+02  0.00000000000E+00 0. -1.
</event>
<event>
 7    1  0.1246400E-009  0.4778727E+02  0.7816164E-02  0.1312668E+00
        -11   -1    0    0    0    0  0.00000000000E+00  0.00000000000E+00  0.45593999997E+02  0.45594000000E+02  0.51100000000E-03 0.  1.
         11   -1    0    0    0    0 -0.00000000000E+00 -0.00000000000E+00 -0.45593999997E+02  0.45594000000E+02  0.51100000000E-03 0. -1.
    9900012    2    1    2    0    0  0.22244946861E+01 -0.12908720271E+02  0.41376806061E+02  0.47787268261E+02  0.19999987308E+02 0.  0.
         12    1    1    2    0    0 -0.22244946861E+01  0.12908720271E+02 -0.41376806061E+02  0.43400731739E+02  0.00000000000E+00 0. -1.
         11    1    3    3    0    0 -0.21572326080E+01 -0.52544004665E+01  0.28073786687E+01  0.63359097246E+01  0.51100000000E-03 0. -1.
        -11    1    3    3    0    0  0.26553593588E+01 -0.11800209785E+01  0.69356314797E+00  0.29873755933E+01  0.51100000000E-03 0.  1.
        -12    1    3    3    0    0  0.17263679352E+01 -0.64742988262E+01  0.37875864245E+02  0.38463982943E+02  0.00000000000E+00 0.  1.
</event>
<event>
 7    1  0.1246400E-009  0.4778727E+02  0.7816164E-02  0.1312668E+00
        -11   -1    0    0    0    0  0.00000000000E+00  0.00000000000E+00  0.45593999997E+02  0.45594000000E+02  0.51100000000E-03 0.  1.
         11   -1    0    0    0    0 -0.00000000000E+00 -0.00000000000E+00 -0.45593999997E+02  0.45594000000E+02  0.51100000000E-03 0. -1.
    9900012    2    1    2    0    0 -0.27162524167E+02 -0.25483862926E+02  0.22279882575E+02  0.47787272398E+02  0.20000006173E+02 0.  0.
         12    1    1    2    0    0  0.27162524167E+02  0.25483862926E+02 -0.22279882575E+02  0.43400727602E+02  0.00000000000E+00 0. -1.
         11    1    3    3    0    0 -0.76152712343E+01 -0.10690696037E+02 -0.83275057435E+00  0.13152064914E+02  0.51100000000E-03 0. -1.
        -11    1    3    3    0    0 -0.10609083939E+02 -0.31979599223E+01  0.86636945462E+01  0.14065532807E+02  0.51100000000E-03 0.  1.
        -12    1    3    3    0    0 -0.89381689939E+01 -0.11595206967E+02  0.14448938603E+02  0.20569674677E+02  0.00000000000E+00 0.  1.
</event>
<event>
 7    1  0.1246400E-009  0.4778727E+02  0.7816164E-02  0.1312668E+00
        -11   -1    0    0    0    0  0.00000000000E+00  0.00000000000E+00  0.45593999997E+02  0.45594000000E+02  0.51100000000E-03 0.  1.
         11   -1    0    0    0    0 -0.00000000000E+00 -0.00000000000E+00 -0.45593999997E+02  0.45594000000E+02  0.51100000000E-03 0. -1.
    9900012    2    1    2    0    0 -0.47715789522E+01 -0.16774928316E+02  0.39742382760E+02  0.47787272205E+02  0.20000005292E+02 0.  0.
         12    1    1    2    0    0  0.47715789522E+01  0.16774928316E+02 -0.39742382760E+02  0.43400727795E+02  0.00000000000E+00 0. -1.
         11    1    3    3    0    0 -0.27200773046E+01 -0.77155147758E+01  0.41338144466E+01  0.91660466364E+01  0.51100000000E-03 0. -1.
        -11    1    3    3    0    0  0.36356185883E+01 -0.83171829176E+01  0.19159222963E+02  0.21200685815E+02  0.51100000000E-03 0.  1.
         12    1    3    3    0    0 -0.56871202359E+01 -0.74223062234E+00  0.16449345350E+02  0.17420539754E+02  0.00000000000E+00 0. -1.
</event>
<event>
 7    1  0.1246400E-009  0.4778726E+02  0.7816164E-02  0.1312668E+00
        -11   -1    0    0    0    0  0.00000000000E+00  0.00000000000E+00  0.45593999997E+02  0.45594000000E+02  0.51100000000E-03 0.  1.
         11   -1    0    0    0    0 -0.00000000000E+00 -0.00000000000E+00 -0.45593999997E+02  0.45594000000E+02  0.51100000000E-03 0. -1.
    9900012    2    1    2    0    0  0.23168504432E+02  0.35748300425E+02  0.83008091021E+01  0.47787262533E+02  0.19999961193E+02 0.  0.
         12    1    1    2    0    0 -0.23168504432E+02 -0.35748300425E+02 -0.83008091021E+01  0.43400737467E+02  0.00000000000E+00 0. -1.
         11    1    3    3    0    0  0.11599361996E+02  0.29898548095E+02  0.81963649489E+01  0.33100585728E+02  0.51100000000E-03 0. -1.
        -11    1    3    3    0    0  0.66063243718E+01  0.67189218141E+01  0.12903175104E+01  0.95106441206E+01  0.51100000000E-03 0.  1.
         12    1    3    3    0    0  0.49628180641E+01 -0.86916948374E+00 -0.11858733572E+01  0.51760326843E+01  0.00000000000E+00 0. -1.
</event>
<event>
 7    1  0.1246400E-009  0.4778728E+02  0.7816164E-02  0.1312668E+00
        -11   -1    0    0    0    0  0.00000000000E+00  0.00000000000E+00  0.45593999997E+02  0.45594000000E+02  0.51100000000E-03 0.  1.
         11   -1    0    0    0    0 -0.00000000000E+00 -0.00000000000E+00 -0.45593999997E+02  0.45594000000E+02  0.51100000000E-03 0. -1.
    9900012    2    1    2    0    0  0.63239291253E+01 -0.15822474302E+02  0.39915913247E+02  0.47787275318E+02  0.20000019483E+02 0.  0.
         12    1    1    2    0    0 -0.63239291253E+01  0.15822474302E+02 -0.39915913247E+02  0.43400724682E+02  0.00000000000E+00 0. -1.
         11    1    3    3    0    0  0.36003979799E+01 -0.38535449220E+01  0.26856116115E+01  0.59182078426E+01  0.51100000000E-03 0. -1.
        -11    1    3    3    0    0  0.11188124284E+00 -0.16011490202E+01  0.27077029351E+02  0.27124559247E+02  0.51100000000E-03 0.  1.
        -12    1    3    3    0    0  0.26116499026E+01 -0.10367780360E+02  0.10153272284E+02  0.14744508228E+02  0.00000000000E+00 0.  1.
</event>
<event>
 7    1  0.1246400E-009  0.4778727E+02  0.7816164E-02  0.1312668E+00
        -11   -1    0    0    0    0  0.00000000000E+00  0.00000000000E+00  0.45593999997E+02  0.45594000000E+02  0.51100000000E-03 0.  1.
         11   -1    0    0    0    0 -0.00000000000E+00 -0.00000000000E+00 -0.45593999997E+02  0.45594000000E+02  0.51100000000E-03 0. -1.
    9900012    2    1    2    0    0  0.12357660194E+02  0.63841216421E+01  0.41111487851E+02  0.47787271804E+02  0.20000003464E+02 0.  0.
         12    1    1    2    0    0 -0.12357660194E+02 -0.63841216421E+01 -0.41111487851E+02  0.43400728196E+02  0.00000000000E+00 0. -1.
         11    1    3    3    0    0  0.11810136962E+02 -0.18510605784E+00  0.94388537675E+01  0.15119707670E+02  0.51100000000E-03 0.  1.
        -11    1    3    3    0    0  0.17646920830E+01  0.62762568984E+01  0.23041653372E+02  0.23946259190E+02  0.51100000000E-03 0. -1.
        -12    1    3    3    0    0 -0.12171688506E+01  0.29297080159E+00  0.86309807111E+01  0.87213049446E+01  0.00000000000E+00 0.  1.
</event>
<event>
 7    1  0.1246400E-009  0.4778727E+02  0.7816164E-02  0.1312668E+00
        -11   -1    0    0    0    0  0.00000000000E+00  0.00000000000E+00  0.45593999997E+02  0.45594000000E+02  0.51100000000E-03 0.  1.
         11   -1    0    0    0    0 -0.00000000000E+00 -0.00000000000E+00 -0.45593999997E+02  0.45594000000E+02  0.51100000000E-03 0. -1.
    9900012    2    1    2    0    0  0.41225662381E+02  0.60825486985E+00  0.13553529994E+02  0.47787269729E+02  0.19999994004E+02 0.  0.
         12    1    1    2    0    0 -0.41225662381E+02 -0.60825486985E+00 -0.13553529994E+02  0.43400730271E+02  0.00000000000E+00 0. -1.
         11    1    3    3    0    0 -0.18758627446E+01  0.27059507904E+00  0.17732502888E+01  0.25954767541E+01  0.51100000000E-03 0. -1.
        -11    1    3    3    0    0  0.27522470403E+02 -0.85536061327E+00  0.10659473138E+02  0.29526977270E+02  0.51100000000E-03 0.  1.
        -12    1    3    3    0    0  0.15579054722E+02  0.11930204041E+01  0.11208065680E+01  0.15664815705E+02  0.00000000000E+00 0.  1.
</event>
<event>
 7    1  0.1246400E-009  0.4778728E+02  0.7816164E-02  0.1312668E+00
        -11   -1    0    0    0    0  0.00000000000E+00  0.00000000000E+00  0.45593999997E+02  0.45594000000E+02  0.51100000000E-03 0. -1.
         11   -1    0    0    0    0 -0.00000000000E+00 -0.00000000000E+00 -0.45593999997E+02  0.45594000000E+02  0.51100000000E-03 0.  1.
    9900012    2    1    2    0    0 -0.19424768311E+02 -0.13437615418E+02 -0.36410599892E+02  0.47787275161E+02  0.20000018769E+02 0.  0.
         12    1    1    2    0    0  0.19424768311E+02  0.13437615418E+02  0.36410599892E+02  0.43400724839E+02  0.00000000000E+00 0. -1.
         11    1    3    3    0    0  0.21254617229E+01  0.70017181789E+00 -0.16170827082E+00  0.22436528109E+01  0.51100000000E-03 0. -1.
        -11    1    3    3    0    0 -0.11226795434E+02 -0.78485958212E+01 -0.11065687899E+02  0.17609396384E+02  0.51100000000E-03 0.  1.
         12    1    3    3    0    0 -0.10323434600E+02 -0.62891914150E+01 -0.25183203722E+02  0.27934225966E+02  0.00000000000E+00 0. -1.
</event>
<event>
 7    1  0.1246400E-009  0.4778727E+02  0.7816164E-02  0.1312668E+00
        -11   -1    0    0    0    0  0.00000000000E+00  0.00000000000E+00  0.45593999997E+02  0.45594000000E+02  0.51100000000E-03 0.  1.
         11   -1    0    0    0    0 -0.00000000000E+00 -0.00000000000E+00 -0.45593999997E+02  0.45594000000E+02  0.51100000000E-03 0. -1.
    9900012    2    1    2    0    0 -0.28151612278E+02  0.31183572904E+02  0.10894712250E+02  0.47787271344E+02  0.20000001366E+02 0.  0.
         12    1    1    2    0    0  0.28151612278E+02 -0.31183572904E+02 -0.10894712250E+02  0.43400728656E+02  0.00000000000E+00 0. -1.
         11    1    3    3    0    0 -0.17438775519E+01 -0.38693414430E+00 -0.20593741790E+01  0.27261418192E+01  0.51100000000E-03 0. -1.
        -11    1    3    3    0    0 -0.73308943210E+01  0.18845548382E+02  0.64561125827E+01  0.21226824899E+02  0.51100000000E-03 0.  1.
        -12    1    3    3    0    0 -0.19076840405E+02  0.12724958666E+02  0.64979738463E+01  0.23834304626E+02  0.00000000000E+00 0.  1.
</event>
<event>
 7    1  0.1246400E-009  0.4778727E+02  0.7816164E-02  0.1312668E+00
        -11   -1    0    0    0    0  0.00000000000E+00  0.00000000000E+00  0.45593999997E+02  0.45594000000E+02  0.51100000000E-03 0.  1.
         11   -1    0    0    0    0 -0.00000000000E+00 -0.00000000000E+00 -0.45593999997E+02  0.45594000000E+02  0.51100000000E-03 0. -1.
    9900012    2    1    2    0    0 -0.36379409421E+02 -0.83404525503E+01  0.22149465546E+02  0.47787269562E+02  0.19999993241E+02 0.  0.
         12    1    1    2    0    0  0.36379409421E+02  0.83404525503E+01 -0.22149465546E+02  0.43400730438E+02  0.00000000000E+00 0. -1.
         11    1    3    3    0    0 -0.29699261058E+01 -0.51499526753E+01  0.52102330230E+01  0.79049985481E+01  0.51100000000E-03 0. -1.
        -11    1    3    3    0    0 -0.18424374487E+02 -0.51165168313E+01  0.30569085157E+01  0.19364426396E+02  0.51100000000E-03 0.  1.
         12    1    3    3    0    0 -0.14985108829E+02  0.19260169562E+01  0.13882324007E+02  0.20517844618E+02  0.00000000000E+00 0. -1.
</event>
<event>
 7    1  0.1246400E-009  0.4778727E+02  0.7816164E-02  0.1312668E+00
        -11   -1    0    0    0    0  0.00000000000E+00  0.00000000000E+00  0.45593999997E+02  0.45594000000E+02  0.51100000000E-03 0. -1.
         11   -1    0    0    0    0 -0.00000000000E+00 -0.00000000000E+00 -0.45593999997E+02  0.45594000000E+02  0.51100000000E-03 0.  1.
    9900012    2    1    2    0    0  0.31254096854E+01 -0.28192744670E+02 -0.32848506702E+02  0.47787269242E+02  0.19999991784E+02 0.  0.
         12    1    1    2    0    0 -0.31254096854E+01  0.28192744670E+02  0.32848506702E+02  0.43400730758E+02  0.00000000000E+00 0. -1.
         11    1    3    3    0    0  0.59621719497E+00 -0.27254411325E+00  0.11436114664E+01  0.13181815825E+01  0.51100000000E-03 0. -1.
        -11    1    3    3    0    0 -0.41007021681E+01 -0.22656995258E+02 -0.22475717547E+02  0.32176281201E+02  0.51100000000E-03 0.  1.
         12    1    3    3    0    0  0.66298946585E+01 -0.52632052984E+01 -0.11516400621E+02  0.14292806459E+02  0.00000000000E+00 0. -1.
</event>
<event>
 7    1  0.1246400E-009  0.4778727E+02  0.7816164E-02  0.1312668E+00
        -11   -1    0    0    0    0  0.00000000000E+00  0.00000000000E+00  0.45593999997E+02  0.45594000000E+02  0.51100000000E-03 0. -1.
         11   -1    0    0    0    0 -0.00000000000E+00 -0.00000000000E+00 -0.45593999997E+02  0.45594000000E+02  0.51100000000E-03 0.  1.
    9900012    2    1    2    0    0 -0.40970230686E+02 -0.78742198811E+01 -0.11960777176E+02  0.47787270376E+02  0.19999996954E+02 0.  0.
         12    1    1    2    0    0  0.40970230686E+02  0.78742198811E+01  0.11960777176E+02  0.43400729624E+02  0.00000000000E+00 0. -1.
         11    1    3    3    0    0 -0.50867602802E+01 -0.36485396059E+00 -0.78889794990E+01  0.93938408735E+01  0.51100000000E-03 0. -1.
        -11    1    3    3    0    0 -0.78028822295E+01 -0.30803197984E+01 -0.53281786204E+01  0.99379489242E+01  0.51100000000E-03 0.  1.
        -12    1    3    3    0    0 -0.28080588176E+02 -0.44290461220E+01  0.12563809433E+01  0.28455480579E+02  0.00000000000E+00 0.  1.
</event>
<event>
 7    1  0.1246400E-009  0.4778727E+02  0.7816164E-02  0.1312668E+00
        -11   -1    0    0    0    0  0.00000000000E+00  0.00000000000E+00  0.45593999997E+02  0.45594000000E+02  0.51100000000E-03 0. -1.
         11   -1    0    0    0    0 -0.00000000000E+00 -0.00000000000E+00 -0.45593999997E+02  0.45594000000E+02  0.51100000000E-03 0.  1.
    9900012    2    1    2    0    0  0.38944090958E+02 -0.19128296561E+02  0.10436156435E+01  0.47787273238E+02  0.20000010000E+02 0.  0.
         12    1    1    2    0    0 -0.38944090958E+02  0.19128296561E+02 -0.10436156435E+01  0.43400726762E+02  0.00000000000E+00 0. -1.
         11    1    3    3    0    0  0.36708116198E+00 -0.73528807252E+01 -0.47943310967E+00  0.73776324052E+01  0.51100000000E-03 0. -1.
        -11    1    3    3    0    0  0.14092628481E+02 -0.33999599632E+01  0.19394946130E+00  0.14498259271E+02  0.51100000000E-03 0.  1.
         12    1    3    3    0    0  0.24484381315E+02 -0.83754558729E+01  0.13290992919E+01  0.25911381561E+02  0.00000000000E+00 0. -1.
</event>
<event>
 7    1  0.1246400E-009  0.4778730E+02  0.7816164E-02  0.1312668E+00
        -11   -1    0    0    0    0  0.00000000000E+00  0.00000000000E+00  0.45593999997E+02  0.45594000000E+02  0.51100000000E-03 0.  1.
         11   -1    0    0    0    0 -0.00000000000E+00 -0.00000000000E+00 -0.45593999997E+02  0.45594000000E+02  0.51100000000E-03 0. -1.
    9900012    2    1    2    0    0 -0.30307617971E+02 -0.13032783083E+02  0.28199565328E+02  0.47787301542E+02  0.20000139048E+02 0.  0.
         12    1    1    2    0    0  0.30307617971E+02  0.13032783083E+02 -0.28199565328E+02  0.43400698458E+02  0.00000000000E+00 0. -1.
         11    1    3    3    0    0 -0.71045922552E+01 -0.95980138911E+01  0.47779448415E+01  0.12861798433E+02  0.51100000000E-03 0. -1.
        -11    1    3    3    0    0 -0.20590436143E+02 -0.60698994284E+01  0.16511524894E+02  0.27082100993E+02  0.51100000000E-03 0.  1.
         12    1    3    3    0    0 -0.26125895734E+01  0.26351302364E+01  0.69100955926E+01  0.78434021152E+01  0.00000000000E+00 0. -1.
</event>
<event>
 7    1  0.1246400E-009  0.4778727E+02  0.7816164E-02  0.1312668E+00
        -11   -1    0    0    0    0  0.00000000000E+00  0.00000000000E+00  0.45593999997E+02  0.45594000000E+02  0.51100000000E-03 0.  1.
         11   -1    0    0    0    0 -0.00000000000E+00 -0.00000000000E+00 -0.45593999997E+02  0.45594000000E+02  0.51100000000E-03 0. -1.
    9900012    2    1    2    0    0  0.14620585583E+01  0.15522086215E+02  0.40503713943E+02  0.47787267069E+02  0.19999981876E+02 0.  0.
         12    1    1    2    0    0 -0.14620585583E+01 -0.15522086215E+02 -0.40503713943E+02  0.43400732931E+02  0.00000000000E+00 0. -1.
         11    1    3    3    0    0 -0.75069002242E+00  0.13961924632E+00 -0.14580648859E+01  0.16458986957E+01  0.51100000000E-03 0. -1.
        -11    1    3    3    0    0  0.21583199019E+01  0.12291894628E+02  0.17551239442E+02  0.21535900830E+02  0.51100000000E-03 0.  1.
        -12    1    3    3    0    0  0.54428678792E-01  0.30905723414E+01  0.24410539387E+02  0.24605467544E+02  0.00000000000E+00 0.  1.
</event>
<event>
 7    1  0.1246400E-009  0.4778727E+02  0.7816164E-02  0.1312668E+00
        -11   -1    0    0    0    0  0.00000000000E+00  0.00000000000E+00  0.45593999997E+02  0.45594000000E+02  0.51100000000E-03 0.  1.
         11   -1    0    0    0    0 -0.00000000000E+00 -0.00000000000E+00 -0.45593999997E+02  0.45594000000E+02  0.51100000000E-03 0. -1.
    9900012    2    1    2    0    0 -0.64763693155E+01  0.26453323389E+02  0.33792039430E+02  0.47787267210E+02  0.19999982518E+02 0.  0.
         12    1    1    2    0    0  0.64763693155E+01 -0.26453323389E+02 -0.33792039430E+02  0.43400732790E+02  0.00000000000E+00 0. -1.
         11    1    3    3    0    0  0.10724111538E+01  0.11344965014E+02  0.27317820170E+01  0.11718401345E+02  0.51100000000E-03 0. -1.
        -11    1    3    3    0    0 -0.34588464704E+01  0.12782308838E+02  0.19335748192E+02  0.23435490107E+02  0.51100000000E-03 0.  1.
        -12    1    3    3    0    0 -0.40899339990E+01  0.23260495376E+01  0.11724509221E+02  0.12633375758E+02  0.00000000000E+00 0.  1.
</event>
<event>
 7    1  0.1246400E-009  0.4778727E+02  0.7816164E-02  0.1312668E+00
        -11   -1    0    0    0    0  0.00000000000E+00  0.00000000000E+00  0.45593999997E+02  0.45594000000E+02  0.51100000000E-03 0.  1.
         11   -1    0    0    0    0 -0.00000000000E+00 -0.00000000000E+00 -0.45593999997E+02  0.45594000000E+02  0.51100000000E-03 0. -1.
    9900012    2    1    2    0    0 -0.19867858056E+02  0.12946644793E+02  0.36349361316E+02  0.47787268863E+02  0.19999990056E+02 0.  0.
         12    1    1    2    0    0  0.19867858056E+02 -0.12946644793E+02 -0.36349361316E+02  0.43400731137E+02  0.00000000000E+00 0. -1.
         11    1    3    3    0    0  0.57971552469E+00 -0.24075086296E+01  0.89283504028E+01  0.92653984840E+01  0.51100000000E-03 0. -1.
        -11    1    3    3    0    0 -0.95937730587E+01  0.86809543132E+01  0.19870465722E+02  0.23711492099E+02  0.51100000000E-03 0.  1.
        -12    1    3    3    0    0 -0.10853800522E+02  0.66731991093E+01  0.75505451907E+01  0.14810378280E+02  0.00000000000E+00 0.  1.
</event>
<event>
 7    1  0.1246400E-009  0.4778727E+02  0.7816164E-02  0.1312668E+00
        -11   -1    0    0    0    0  0.00000000000E+00  0.00000000000E+00  0.45593999997E+02  0.45594000000E+02  0.51100000000E-03 0.  1.
         11   -1    0    0    0    0 -0.00000000000E+00 -0.00000000000E+00 -0.45593999997E+02  0.45594000000E+02  0.51100000000E-03 0. -1.
    9900012    2    1    2    0    0 -0.28689848204E+02  0.21999636692E+01  0.32491172390E+02  0.47787268285E+02  0.19999987419E+02 0.  0.
         12    1    1    2    0    0  0.28689848204E+02 -0.21999636692E+01 -0.32491172390E+02  0.43400731715E+02  0.00000000000E+00 0. -1.
         11    1    3    3    0    0 -0.33668962695E+01  0.19392751763E-01  0.17680587175E+02  0.17998320191E+02  0.51100000000E-03 0. -1.
        -11    1    3    3    0    0 -0.11039154192E+02 -0.11506599894E+01  0.75471482086E+01  0.13421862391E+02  0.51100000000E-03 0.  1.
         12    1    3    3    0    0 -0.14283797742E+02  0.33312309068E+01  0.72634370064E+01  0.16367085704E+02  0.00000000000E+00 0. -1.
</event>
<event>
 7    1  0.1246400E-009  0.4778727E+02  0.7816164E-02  0.1312668E+00
        -11   -1    0    0    0    0  0.00000000000E+00  0.00000000000E+00  0.45593999997E+02  0.45594000000E+02  0.51100000000E-03 0.  1.
         11   -1    0    0    0    0 -0.00000000000E+00 -0.00000000000E+00 -0.45593999997E+02  0.45594000000E+02  0.51100000000E-03 0. -1.
    9900012    2    1    2    0    0 -0.63942665592E+01  0.35274841871E+01  0.42781931100E+02  0.47787269382E+02  0.19999992420E+02 0.  0.
         12    1    1    2    0    0  0.63942665592E+01 -0.35274841871E+01 -0.42781931100E+02  0.43400730618E+02  0.00000000000E+00 0. -1.
         11    1    3    3    0    0 -0.32658137491E+01 -0.53186974912E+01  0.87411450034E+01  0.10740656343E+02  0.51100000000E-03 0. -1.
        -11    1    3    3    0    0 -0.73023504337E+01  0.44893377853E+01  0.19228951177E+02  0.21053052967E+02  0.51100000000E-03 0.  1.
        -12    1    3    3    0    0  0.41738976236E+01  0.43568438931E+01  0.14811834920E+02  0.15993560072E+02  0.00000000000E+00 0.  1.
</event>
<event>
 7    1  0.1246400E-009  0.4778727E+02  0.7816164E-02  0.1312668E+00
        -11   -1    0    0    0    0  0.00000000000E+00  0.00000000000E+00  0.45593999997E+02  0.45594000000E+02  0.51100000000E-03 0.  1.
         11   -1    0    0    0    0 -0.00000000000E+00 -0.00000000000E+00 -0.45593999997E+02  0.45594000000E+02  0.51100000000E-03 0. -1.
    9900012    2    1    2    0    0  0.18457083119E+02 -0.18046608425E+02  0.34889528601E+02  0.47787271908E+02  0.20000003935E+02 0.  0.
         12    1    1    2    0    0 -0.18457083119E+02  0.18046608425E+02 -0.34889528601E+02  0.43400728092E+02  0.00000000000E+00 0. -1.
         11    1    3    3    0    0  0.25334087824E+01 -0.39889885256E+00 -0.21519764452E+01  0.33478774223E+01  0.51100000000E-03 0. -1.
        -11    1    3    3    0    0  0.34802545344E+01 -0.82630107815E+01  0.13582992608E+02  0.16275355826E+02  0.51100000000E-03 0.  1.
         12    1    3    3    0    0  0.12443419803E+02 -0.93846987910E+01  0.23458512439E+02  0.28164038659E+02  0.00000000000E+00 0. -1.
</event>
<event>
 7    1  0.1246400E-009  0.4778728E+02  0.7816164E-02  0.1312668E+00
        -11   -1    0    0    0    0  0.00000000000E+00  0.00000000000E+00  0.45593999997E+02  0.45594000000E+02  0.51100000000E-03 0.  1.
         11   -1    0    0    0    0 -0.00000000000E+00 -0.00000000000E+00 -0.45593999997E+02  0.45594000000E+02  0.51100000000E-03 0. -1.
    9900012    2    1    2    0    0 -0.28384229724E+02  0.25860768993E+02  0.20228161032E+02  0.47787281473E+02  0.20000047549E+02 0.  0.
         12    1    1    2    0    0  0.28384229724E+02 -0.25860768993E+02 -0.20228161032E+02  0.43400718527E+02  0.00000000000E+00 0. -1.
         11    1    3    3    0    0 -0.18037163426E+02  0.56854882502E+01  0.12705108153E+02  0.22783410950E+02  0.51100000000E-03 0. -1.
        -11    1    3    3    0    0 -0.94541769019E+01  0.13221246763E+02  0.77113661112E+01  0.17990219410E+02  0.51100000000E-03 0.  1.
         12    1    3    3    0    0 -0.89288939634E+00  0.69540339796E+01 -0.18831323187E+00  0.70136511131E+01  0.00000000000E+00 0. -1.
</event>
<event>
 7    1  0.1246400E-009  0.4778727E+02  0.7816164E-02  0.1312668E+00
        -11   -1    0    0    0    0  0.00000000000E+00  0.00000000000E+00  0.45593999997E+02  0.45594000000E+02  0.51100000000E-03 0.  1.
         11   -1    0    0    0    0 -0.00000000000E+00 -0.00000000000E+00 -0.45593999997E+02  0.45594000000E+02  0.51100000000E-03 0. -1.
    9900012    2    1    2    0    0  0.13198895480E+02 -0.21138441548E+01  0.41290969490E+02  0.47787270277E+02  0.19999996503E+02 0.  0.
         12    1    1    2    0    0 -0.13198895480E+02  0.21138441548E+01 -0.41290969490E+02  0.43400729723E+02  0.00000000000E+00 0. -1.
         11    1    3    3    0    0  0.37066297329E+01 -0.13718015091E-02 -0.33240909448E-01  0.37067790705E+01  0.51100000000E-03 0. -1.
        -11    1    3    3    0    0  0.79369686889E+01  0.41033895419E+01  0.23930893162E+02  0.25544489141E+02  0.51100000000E-03 0.  1.
         12    1    3    3    0    0  0.15552970584E+01 -0.62158618952E+01  0.17393317238E+02  0.18536002066E+02  0.00000000000E+00 0. -1.
</event>
<event>
 7    1  0.1246400E-009  0.4778727E+02  0.7816164E-02  0.1312668E+00
        -11   -1    0    0    0    0  0.00000000000E+00  0.00000000000E+00  0.45593999997E+02  0.45594000000E+02  0.51100000000E-03 0. -1.
         11   -1    0    0    0    0 -0.00000000000E+00 -0.00000000000E+00 -0.45593999997E+02  0.45594000000E+02  0.51100000000E-03 0.  1.
    9900012    2    1    2    0    0 -0.10170136936E+02  0.33058380997E+02 -0.26217076638E+02  0.47787270203E+02  0.19999996165E+02 0.  0.
         12    1    1    2    0    0  0.10170136936E+02 -0.33058380997E+02  0.26217076638E+02  0.43400729797E+02  0.00000000000E+00 0. -1.
         11    1    3    3    0    0 -0.12019190435E+02  0.10612602938E+02 -0.54232938253E+01  0.16926322578E+02  0.51100000000E-03 0. -1.
        -11    1    3    3    0    0 -0.50759257320E+00  0.96165434217E+01 -0.10476341969E+02  0.14229873468E+02  0.51100000000E-03 0.  1.
         12    1    3    3    0    0  0.23566460717E+01  0.12829234637E+02 -0.10317440843E+02  0.16631074158E+02  0.00000000000E+00 0. -1.
</event>
<event>
 7    1  0.1246400E-009  0.4778727E+02  0.7816164E-02  0.1312668E+00
        -11   -1    0    0    0    0  0.00000000000E+00  0.00000000000E+00  0.45593999997E+02  0.45594000000E+02  0.51100000000E-03 0.  1.
         11   -1    0    0    0    0 -0.00000000000E+00 -0.00000000000E+00 -0.45593999997E+02  0.45594000000E+02  0.51100000000E-03 0. -1.
    9900012    2    1    2    0    0  0.17432450454E+02  0.26678539660E+02  0.29461647166E+02  0.47787268889E+02  0.19999990174E+02 0.  0.
         12    1    1    2    0    0 -0.17432450454E+02 -0.26678539660E+02 -0.29461647166E+02  0.43400731111E+02  0.00000000000E+00 0. -1.
         11    1    3    3    0    0  0.17406653182E+00 -0.10935004415E+01  0.71165665264E+01  0.72021914553E+01  0.51100000000E-03 0. -1.
        -11    1    3    3    0    0  0.50589133612E+01  0.15608695394E+02  0.13338169342E+02  0.21145466132E+02  0.51100000000E-03 0.  1.
        -12    1    3    3    0    0  0.12199470561E+02  0.12163344707E+02  0.90069112969E+01  0.19439611302E+02  0.00000000000E+00 0.  1.
</event>
<event>
 7    1  0.1246400E-009  0.4778727E+02  0.7816164E-02  0.1312668E+00
        -11   -1    0    0    0    0  0.00000000000E+00  0.00000000000E+00  0.45593999997E+02  0.45594000000E+02  0.51100000000E-03 0.  1.
         11   -1    0    0    0    0 -0.00000000000E+00 -0.00000000000E+00 -0.45593999997E+02  0.45594000000E+02  0.51100000000E-03 0. -1.
    9900012    2    1    2    0    0  0.12491989330E+02 -0.19177374049E+02  0.36875490691E+02  0.47787270898E+02  0.19999999334E+02 0.  0.
         12    1    1    2    0    0 -0.12491989330E+02  0.19177374049E+02 -0.36875490691E+02  0.43400729102E+02  0.00000000000E+00 0. -1.
         11    1    3    3    0    0 -0.94487474114E-01 -0.61401948491E+01  0.37654386045E+00  0.61524552991E+01  0.51100000000E-03 0. -1.
        -11    1    3    3    0    0  0.88249058115E+01 -0.55262725712E+01  0.12854803157E+02  0.16542811598E+02  0.51100000000E-03 0.  1.
        -12    1    3    3    0    0  0.37615709924E+01 -0.75109066284E+01  0.23644143674E+02  0.25092004001E+02  0.00000000000E+00 0.  1.
</event>
<event>
 7    1  0.1708998E-009  0.4778727E+02  0.7816164E-02  0.1312668E+00
        -11   -1    0    0    0    0  0.00000000000E+00  0.00000000000E+00  0.45593999997E+02  0.45594000000E+02  0.51100000000E-03 0. -1.
         11   -1    0    0    0    0 -0.00000000000E+00 -0.00000000000E+00 -0.45593999997E+02  0.45594000000E+02  0.51100000000E-03 0.  1.
    9900012    2    1    2    0    0  0.25899599017E+02  0.33312586839E+02 -0.10154112766E+02  0.47787266398E+02  0.19999978814E+02 0.  0.
         12    1    1    2    0    0 -0.25899599017E+02 -0.33312586839E+02  0.10154112766E+02  0.43400733602E+02  0.00000000000E+00 0. -1.
         11    1    3    3    0    0 -0.52468894518E+00 -0.36084435893E+00 -0.88138474132E+00  0.10873575603E+01  0.51100000000E-03 0. -1.
        -11    1    3    3    0    0  0.27902144211E+02  0.33411135750E+02 -0.10480236555E+02  0.44773530151E+02  0.51100000000E-03 0.  1.
        -12    1    3    3    0    0 -0.14778562484E+01  0.26229544762E+00  0.12075085302E+01  0.19263786864E+01  0.00000000000E+00 0.  1.
</event>
<event>
 7    1  0.1246400E-009  0.4778727E+02  0.7816164E-02  0.1312668E+00
        -11   -1    0    0    0    0  0.00000000000E+00  0.00000000000E+00  0.45593999997E+02  0.45594000000E+02  0.51100000000E-03 0.  1.
         11   -1    0    0    0    0 -0.00000000000E+00 -0.00000000000E+00 -0.45593999997E+02  0.45594000000E+02  0.51100000000E-03 0. -1.
    9900012    2    1    2    0    0  0.37769915982E+01 -0.41161690482E+02  0.13231504276E+02  0.47787272652E+02  0.20000007331E+02 0.  0.
         12    1    1    2    0    0 -0.37769915982E+01  0.41161690482E+02 -0.13231504276E+02  0.43400727348E+02  0.00000000000E+00 0. -1.
         11    1    3    3    0    0 -0.25152452952E+01 -0.67610341523E+01  0.73932436784E+01  0.10329476950E+02  0.51100000000E-03 0. -1.
        -11    1    3    3    0    0  0.81885809981E+01 -0.12104805464E+02  0.27178144398E+01  0.14864914721E+02  0.51100000000E-03 0.  1.
         12    1    3    3    0    0 -0.18963441047E+01 -0.22295850866E+02  0.31204461579E+01  0.22592880981E+02  0.00000000000E+00 0. -1.
</event>
<event>
 7    1  0.1246400E-009  0.4778727E+02  0.7816164E-02  0.1312668E+00
        -11   -1    0    0    0    0  0.00000000000E+00  0.00000000000E+00  0.45593999997E+02  0.45594000000E+02  0.51100000000E-03 0.  1.
         11   -1    0    0    0    0 -0.00000000000E+00 -0.00000000000E+00 -0.45593999997E+02  0.45594000000E+02  0.51100000000E-03 0. -1.
    9900012    2    1    2    0    0 -0.40904354452E+02 -0.34987428798E+01  0.14078910192E+02  0.47787272736E+02  0.20000007712E+02 0.  0.
         12    1    1    2    0    0  0.40904354452E+02  0.34987428798E+01 -0.14078910192E+02  0.43400727264E+02  0.00000000000E+00 0. -1.
         11    1    3    3    0    0 -0.22343845225E+02  0.86113989081E+00  0.56684505856E+01  0.23067733171E+02  0.51100000000E-03 0. -1.
        -11    1    3    3    0    0 -0.12921773913E+02 -0.54773123679E+00 -0.11492065497E+01  0.12984333889E+02  0.51100000000E-03 0.  1.
         12    1    3    3    0    0 -0.56387353135E+01 -0.38121515338E+01  0.95596661556E+01  0.11735205676E+02  0.00000000000E+00 0. -1.
</event>
<event>
 7    1  0.1246400E-009  0.4778727E+02  0.7816164E-02  0.1312668E+00
        -11   -1    0    0    0    0  0.00000000000E+00  0.00000000000E+00  0.45593999997E+02  0.45594000000E+02  0.51100000000E-03 0.  1.
         11   -1    0    0    0    0 -0.00000000000E+00 -0.00000000000E+00 -0.45593999997E+02  0.45594000000E+02  0.51100000000E-03 0. -1.
    9900012    2    1    2    0    0  0.59326251777E+01 -0.13259954784E+02  0.40897440774E+02  0.47787272999E+02  0.20000008912E+02 0.  0.
         12    1    1    2    0    0 -0.59326251777E+01  0.13259954784E+02 -0.40897440774E+02  0.43400727001E+02  0.00000000000E+00 0. -1.
         11    1    3    3    0    0  0.13750862855E+01 -0.14938775729E+01  0.16784091046E+02  0.16906455720E+02  0.51100000000E-03 0. -1.
        -11    1    3    3    0    0  0.94339642618E+01 -0.10584288331E+02  0.16401185399E+02  0.21680076659E+02  0.51100000000E-03 0.  1.
         12    1    3    3    0    0 -0.48764253697E+01 -0.11817888804E+01  0.77121643283E+01  0.92007406207E+01  0.00000000000E+00 0. -1.
</event>
<event>
 7    1  0.1246400E-009  0.4778727E+02  0.7816164E-02  0.1312668E+00
        -11   -1    0    0    0    0  0.00000000000E+00  0.00000000000E+00  0.45593999997E+02  0.45594000000E+02  0.51100000000E-03 0.  1.
         11   -1    0    0    0    0 -0.00000000000E+00 -0.00000000000E+00 -0.45593999997E+02  0.45594000000E+02  0.51100000000E-03 0. -1.
    9900012    2    1    2    0    0  0.39314254074E+02 -0.15517547660E+02  0.98599603513E+01  0.47787266401E+02  0.19999978830E+02 0.  0.
         12    1    1    2    0    0 -0.39314254074E+02  0.15517547660E+02 -0.98599603513E+01  0.43400733599E+02  0.00000000000E+00 0. -1.
         11    1    3    3    0    0  0.38915836215E+01 -0.77863053045E+01  0.69747468637E+00  0.87325508632E+01  0.51100000000E-03 0. -1.
        -11    1    3    3    0    0  0.14962210404E+02 -0.17987757493E+01  0.93795084484E+01  0.17750451075E+02  0.51100000000E-03 0.  1.
         12    1    3    3    0    0  0.20460460048E+02 -0.59324666064E+01 -0.21702278344E+00  0.21304264463E+02  0.00000000000E+00 0. -1.
</event>
<event>
 7    1  0.1246400E-009  0.4778727E+02  0.7816164E-02  0.1312668E+00
        -11   -1    0    0    0    0  0.00000000000E+00  0.00000000000E+00  0.45593999997E+02  0.45594000000E+02  0.51100000000E-03 0.  1.
         11   -1    0    0    0    0 -0.00000000000E+00 -0.00000000000E+00 -0.45593999997E+02  0.45594000000E+02  0.51100000000E-03 0. -1.
    9900012    2    1    2    0    0  0.34229017621E+01 -0.24504461135E+02  0.35657235175E+02  0.47787270832E+02  0.19999999030E+02 0.  0.
         12    1    1    2    0    0 -0.34229017621E+01  0.24504461135E+02 -0.35657235175E+02  0.43400729168E+02  0.00000000000E+00 0. -1.
         11    1    3    3    0    0  0.47125597806E+01 -0.31461375488E+01  0.86477425091E+01  0.10338754854E+02  0.51100000000E-03 0. -1.
        -11    1    3    3    0    0 -0.27400163557E+01 -0.78382231405E+01  0.13549625321E+01  0.84131655965E+01  0.51100000000E-03 0.  1.
         12    1    3    3    0    0  0.14503583371E+01 -0.13520100446E+02  0.25654530134E+02  0.29035350381E+02  0.00000000000E+00 0. -1.
</event>
<event>
 7    1  0.1246400E-009  0.4778729E+02  0.7816164E-02  0.1312668E+00
        -11   -1    0    0    0    0  0.00000000000E+00  0.00000000000E+00  0.45593999997E+02  0.45594000000E+02  0.51100000000E-03 0.  1.
         11   -1    0    0    0    0 -0.00000000000E+00 -0.00000000000E+00 -0.45593999997E+02  0.45594000000E+02  0.51100000000E-03 0. -1.
    9900012    2    1    2    0    0 -0.29902780026E+02  0.10162620123E+01  0.31439023604E+02  0.47787294396E+02  0.20000106467E+02 0.  0.
         12    1    1    2    0    0  0.29902780026E+02 -0.10162620123E+01 -0.31439023604E+02  0.43400705604E+02  0.00000000000E+00 0. -1.
         11    1    3    3    0    0 -0.86799742885E+01  0.85486806978E+01  0.11282401096E+02  0.16604652061E+02  0.51100000000E-03 0. -1.
        -11    1    3    3    0    0 -0.93106608114E+01 -0.28202247595E+01  0.38897949342E+01  0.10477240922E+02  0.51100000000E-03 0.  1.
        -12    1    3    3    0    0 -0.11912144926E+02 -0.47121939260E+01  0.16266827574E+02  0.20705401413E+02  0.00000000000E+00 0.  1.
</event>
<event>
 7    1  0.1246400E-009  0.4778727E+02  0.7816164E-02  0.1312668E+00
        -11   -1    0    0    0    0  0.00000000000E+00  0.00000000000E+00  0.45593999997E+02  0.45594000000E+02  0.51100000000E-03 0.  1.
         11   -1    0    0    0    0 -0.00000000000E+00 -0.00000000000E+00 -0.45593999997E+02  0.45594000000E+02  0.51100000000E-03 0. -1.
    9900012    2    1    2    0    0  0.17505835094E+02 -0.24267984593E+02  0.31436191913E+02  0.47787268433E+02  0.19999988093E+02 0.  0.
         12    1    1    2    0    0 -0.17505835094E+02  0.24267984593E+02 -0.31436191913E+02  0.43400731567E+02  0.00000000000E+00 0. -1.
         11    1    3    3    0    0 -0.24399662528E+01 -0.30286015516E+01  0.30202079898E+01  0.49241770111E+01  0.51100000000E-03 0. -1.
        -11    1    3    3    0    0  0.14406360605E+02 -0.12568172600E+02  0.26036923542E+02  0.32302067677E+02  0.51100000000E-03 0.  1.
         12    1    3    3    0    0  0.55394407412E+01 -0.86712104418E+01  0.23790603815E+01  0.10561023745E+02  0.00000000000E+00 0. -1.
</event>
<event>
 7    1  0.1246400E-009  0.4778727E+02  0.7816164E-02  0.1312668E+00
        -11   -1    0    0    0    0  0.00000000000E+00  0.00000000000E+00  0.45593999997E+02  0.45594000000E+02  0.51100000000E-03 0. -1.
         11   -1    0    0    0    0 -0.00000000000E+00 -0.00000000000E+00 -0.45593999997E+02  0.45594000000E+02  0.51100000000E-03 0.  1.
    9900012    2    1    2    0    0 -0.86947687561E+01 -0.38386351028E+02 -0.18289678355E+02  0.47787270936E+02  0.19999999504E+02 0.  0.
         12    1    1    2    0    0  0.86947687561E+01  0.38386351028E+02  0.18289678355E+02  0.43400729064E+02  0.00000000000E+00 0. -1.
         11    1    3    3    0    0 -0.31407719746E+01 -0.18433130262E+02 -0.43995049344E+01  0.19209382701E+02  0.51100000000E-03 0. -1.
        -11    1    3    3    0    0 -0.10417408945E+01 -0.15983134900E+02 -0.15569725338E+02  0.22337461196E+02  0.51100000000E-03 0.  1.
        -12    1    3    3    0    0 -0.45122558871E+01 -0.39700858670E+01  0.16795519175E+01  0.62404270387E+01  0.00000000000E+00 0.  1.
</event>
<event>
 7    1  0.1246400E-009  0.4778726E+02  0.7816164E-02  0.1312668E+00
        -11   -1    0    0    0    0  0.00000000000E+00  0.00000000000E+00  0.45593999997E+02  0.45594000000E+02  0.51100000000E-03 0.  1.
         11   -1    0    0    0    0 -0.00000000000E+00 -0.00000000000E+00 -0.45593999997E+02  0.45594000000E+02  0.51100000000E-03 0. -1.
    9900012    2    1    2    0    0  0.42667385809E+02 -0.24160772049E+01 -0.75683971358E+01  0.47787264107E+02  0.19999968369E+02 0.  0.
         12    1    1    2    0    0 -0.42667385809E+02  0.24160772049E+01  0.75683971358E+01  0.43400735893E+02  0.00000000000E+00 0. -1.
         11    1    3    3    0    0  0.55728358483E+01  0.10269796494E+01  0.31219603032E+01  0.64697622049E+01  0.51100000000E-03 0. -1.
        -11    1    3    3    0    0  0.34362934443E+02 -0.49713510774E+00 -0.12929385770E+02  0.36718216507E+02  0.51100000000E-03 0.  1.
        -12    1    3    3    0    0  0.27316155180E+01 -0.29459217466E+01  0.22390283308E+01  0.45992853947E+01  0.00000000000E+00 0.  1.
</event>
<event>
 7    1  0.1246400E-009  0.4778728E+02  0.7816164E-02  0.1312668E+00
        -11   -1    0    0    0    0  0.00000000000E+00  0.00000000000E+00  0.45593999997E+02  0.45594000000E+02  0.51100000000E-03 0.  1.
         11   -1    0    0    0    0 -0.00000000000E+00 -0.00000000000E+00 -0.45593999997E+02  0.45594000000E+02  0.51100000000E-03 0. -1.
    9900012    2    1    2    0    0  0.12025526547E+02  0.32806639391E+02  0.25743605875E+02  0.47787284334E+02  0.20000060592E+02 0.  0.
         12    1    1    2    0    0 -0.12025526547E+02 -0.32806639391E+02 -0.25743605875E+02  0.43400715666E+02  0.00000000000E+00 0. -1.
         11    1    3    3    0    0  0.25082381983E+01  0.15468063041E+01 -0.10442784145E+01  0.31264014889E+01  0.51100000000E-03 0. -1.
        -11    1    3    3    0    0  0.12173415419E+02  0.16168481374E+02  0.13053617833E+02  0.24083371270E+02  0.51100000000E-03 0.  1.
        -12    1    3    3    0    0 -0.26561270704E+01  0.15091351713E+02  0.13734266456E+02  0.20577511575E+02  0.00000000000E+00 0.  1.
</event>
<event>
 7    1  0.1246400E-009  0.4778728E+02  0.7816164E-02  0.1312668E+00
        -11   -1    0    0    0    0  0.00000000000E+00  0.00000000000E+00  0.45593999997E+02  0.45594000000E+02  0.51100000000E-03 0. -1.
         11   -1    0    0    0    0 -0.00000000000E+00 -0.00000000000E+00 -0.45593999997E+02  0.45594000000E+02  0.51100000000E-03 0.  1.
    9900012    2    1    2    0    0  0.31203518790E+02 -0.13535226645E+02 -0.26958501939E+02  0.47787276826E+02  0.20000026362E+02 0.  0.
         12    1    1    2    0    0 -0.31203518790E+02  0.13535226645E+02  0.26958501939E+02  0.43400723174E+02  0.00000000000E+00 0. -1.
         11    1    3    3    0    0  0.86030257575E+01 -0.18004220367E+01 -0.14385964888E+01  0.89063534520E+01  0.51100000000E-03 0. -1.
        -11    1    3    3    0    0  0.19995144070E+02 -0.54854156090E+01 -0.12512657442E+02  0.24216980970E+02  0.51100000000E-03 0.  1.
        -12    1    3    3    0    0  0.26053489624E+01 -0.62493889990E+01 -0.13007248008E+02  0.14663942404E+02  0.00000000000E+00 0.  1.
</event>
<event>
 7    1  0.1246400E-009  0.4778727E+02  0.7816164E-02  0.1312668E+00
        -11   -1    0    0    0    0  0.00000000000E+00  0.00000000000E+00  0.45593999997E+02  0.45594000000E+02  0.51100000000E-03 0.  1.
         11   -1    0    0    0    0 -0.00000000000E+00 -0.00000000000E+00 -0.45593999997E+02  0.45594000000E+02  0.51100000000E-03 0. -1.
    9900012    2    1    2    0    0 -0.34486242085E+02 -0.13314760625E+02  0.22738506889E+02  0.47787269140E+02  0.19999991317E+02 0.  0.
         12    1    1    2    0    0  0.34486242085E+02  0.13314760625E+02 -0.22738506889E+02  0.43400730860E+02  0.00000000000E+00 0. -1.
         11    1    3    3    0    0 -0.50542153131E+01  0.21773210715E+01  0.31355571343E+01  0.63338407213E+01  0.51100000000E-03 0. -1.
        -11    1    3    3    0    0 -0.29608552592E+02 -0.17205674330E+02  0.20038268698E+02  0.39676615637E+02  0.51100000000E-03 0.  1.
        -12    1    3    3    0    0  0.17652582034E+00  0.17135926334E+01 -0.43531894316E+00  0.17768127816E+01  0.00000000000E+00 0.  1.
</event>
<event>
 7    1  0.1246400E-009  0.4778727E+02  0.7816164E-02  0.1312668E+00
        -11   -1    0    0    0    0  0.00000000000E+00  0.00000000000E+00  0.45593999997E+02  0.45594000000E+02  0.51100000000E-03 0.  1.
         11   -1    0    0    0    0 -0.00000000000E+00 -0.00000000000E+00 -0.45593999997E+02  0.45594000000E+02  0.51100000000E-03 0. -1.
    9900012    2    1    2    0    0  0.81298234023E+01  0.22383324494E+02  0.36283825224E+02  0.47787271702E+02  0.20000002998E+02 0.  0.
         12    1    1    2    0    0 -0.81298234023E+01 -0.22383324494E+02 -0.36283825224E+02  0.43400728298E+02  0.00000000000E+00 0. -1.
         11    1    3    3    0    0  0.11570799446E+02  0.45348523573E+01  0.12685751284E+02  0.17758844884E+02  0.51100000000E-03 0. -1.
        -11    1    3    3    0    0  0.26057800192E+00  0.77551296588E+01  0.11090964815E+02  0.13535857480E+02  0.51100000000E-03 0.  1.
         12    1    3    3    0    0 -0.37015540453E+01  0.10093342478E+02  0.12507109125E+02  0.16492569339E+02  0.00000000000E+00 0. -1.
</event>
<event>
 7    1  0.1246400E-009  0.4778727E+02  0.7816164E-02  0.1312668E+00
        -11   -1    0    0    0    0  0.00000000000E+00  0.00000000000E+00  0.45593999997E+02  0.45594000000E+02  0.51100000000E-03 0. -1.
         11   -1    0    0    0    0 -0.00000000000E+00 -0.00000000000E+00 -0.45593999997E+02  0.45594000000E+02  0.51100000000E-03 0.  1.
    9900012    2    1    2    0    0 -0.14745553813E+02  0.28859399533E+02 -0.28867401965E+02  0.47787271954E+02  0.20000004148E+02 0.  0.
         12    1    1    2    0    0  0.14745553813E+02 -0.28859399533E+02  0.28867401965E+02  0.43400728046E+02  0.00000000000E+00 0. -1.
         11    1    3    3    0    0  0.40588204424E+00 -0.21014866821E+01 -0.61961344127E+00  0.22282072585E+01  0.51100000000E-03 0. -1.
        -11    1    3    3    0    0 -0.15215413688E+01  0.13464891856E+02 -0.10059883853E+02  0.16876601087E+02  0.51100000000E-03 0.  1.
        -12    1    3    3    0    0 -0.13629894488E+02  0.17495994359E+02 -0.18187904671E+02  0.28682463609E+02  0.00000000000E+00 0.  1.
</event>
<event>
 7    1  0.1246400E-009  0.4778727E+02  0.7816164E-02  0.1312668E+00
        -11   -1    0    0    0    0  0.00000000000E+00  0.00000000000E+00  0.45593999997E+02  0.45594000000E+02  0.51100000000E-03 0.  1.
         11   -1    0    0    0    0 -0.00000000000E+00 -0.00000000000E+00 -0.45593999997E+02  0.45594000000E+02  0.51100000000E-03 0. -1.
    9900012    2    1    2    0    0  0.17489953533E+02 -0.18639029846E+02  0.35075797342E+02  0.47787268815E+02  0.19999989837E+02 0.  0.
         12    1    1    2    0    0 -0.17489953533E+02  0.18639029846E+02 -0.35075797342E+02  0.43400731185E+02  0.00000000000E+00 0. -1.
         11    1    3    3    0    0  0.13920451919E+02 -0.12331965980E+02  0.10183412515E+02  0.21202788904E+02  0.51100000000E-03 0. -1.
        -11    1    3    3    0    0  0.48308358735E+01 -0.61286077967E+01  0.18709223921E+02  0.20271454530E+02  0.51100000000E-03 0.  1.
        -12    1    3    3    0    0 -0.12613342601E+01 -0.17845606855E+00  0.61831609058E+01  0.63130253818E+01  0.00000000000E+00 0.  1.
</event>
<event>
 7    1  0.1246400E-009  0.4778727E+02  0.7816164E-02  0.1312668E+00
        -11   -1    0    0    0    0  0.00000000000E+00  0.00000000000E+00  0.45593999997E+02  0.45594000000E+02  0.51100000000E-03 0.  1.
         11   -1    0    0    0    0 -0.00000000000E+00 -0.00000000000E+00 -0.45593999997E+02  0.45594000000E+02  0.51100000000E-03 0. -1.
    9900012    2    1    2    0    0  0.83595697824E+01 -0.20845749493E+02  0.37137527542E+02  0.47787266932E+02  0.19999981250E+02 0.  0.
         12    1    1    2    0    0 -0.83595697824E+01  0.20845749493E+02 -0.37137527542E+02  0.43400733068E+02  0.00000000000E+00 0. -1.
         11    1    3    3    0    0 -0.28219296210E+01  0.80114831883E+00  0.27552675550E+01  0.40245030718E+01  0.51100000000E-03 0. -1.
        -11    1    3    3    0    0  0.96983121075E+00 -0.11606869140E+02  0.21725119983E+02  0.24650371647E+02  0.51100000000E-03 0.  1.
         12    1    3    3    0    0  0.10211668193E+02 -0.10040028672E+02  0.12657140004E+02  0.19112392213E+02  0.00000000000E+00 0. -1.
</event>
<event>
 7    1  0.1246400E-009  0.4778727E+02  0.7816164E-02  0.1312668E+00
        -11   -1    0    0    0    0  0.00000000000E+00  0.00000000000E+00  0.45593999997E+02  0.45594000000E+02  0.51100000000E-03 0. -1.
         11   -1    0    0    0    0 -0.00000000000E+00 -0.00000000000E+00 -0.45593999997E+02  0.45594000000E+02  0.51100000000E-03 0.  1.
    9900012    2    1    2    0    0  0.25581427367E+02 -0.33209820730E+02 -0.11239293629E+02  0.47787270279E+02  0.19999996511E+02 0.  0.
         12    1    1    2    0    0 -0.25581427367E+02  0.33209820730E+02  0.11239293629E+02  0.43400729721E+02  0.00000000000E+00 0. -1.
         11    1    3    3    0    0  0.29613024910E+01 -0.10713234175E+02 -0.40744133721E+01  0.11838223833E+02  0.51100000000E-03 0. -1.
        -11    1    3    3    0    0 -0.20819188634E+01 -0.47822116528E+00 -0.37344670601E+00  0.21685350677E+01  0.51100000000E-03 0.  1.
         12    1    3    3    0    0  0.24702043739E+02 -0.22018365389E+02 -0.67914335507E+01  0.33780511378E+02  0.00000000000E+00 0. -1.
</event>
<event>
 7    1  0.1246400E-009  0.4778727E+02  0.7816164E-02  0.1312668E+00
        -11   -1    0    0    0    0  0.00000000000E+00  0.00000000000E+00  0.45593999997E+02  0.45594000000E+02  0.51100000000E-03 0.  1.
         11   -1    0    0    0    0 -0.00000000000E+00 -0.00000000000E+00 -0.45593999997E+02  0.45594000000E+02  0.51100000000E-03 0. -1.
    9900012    2    1    2    0    0 -0.25358316114E+01 -0.17925954293E+02  0.39444305492E+02  0.47787268267E+02  0.19999987336E+02 0.  0.
         12    1    1    2    0    0  0.25358316114E+01  0.17925954293E+02 -0.39444305492E+02  0.43400731733E+02  0.00000000000E+00 0. -1.
         11    1    3    3    0    0 -0.21970856949E+01 -0.86495043077E+01  0.46093101938E+01  0.10044244673E+02  0.51100000000E-03 0. -1.
        -11    1    3    3    0    0  0.38926510597E+01 -0.93268692132E+01  0.21589828536E+02  0.23838286810E+02  0.51100000000E-03 0.  1.
         12    1    3    3    0    0 -0.42313969762E+01  0.50419228319E-01  0.13245166762E+02  0.13904736784E+02  0.00000000000E+00 0. -1.
</event>
<event>
 7    1  0.1246400E-009  0.4778727E+02  0.7816164E-02  0.1312668E+00
        -11   -1    0    0    0    0  0.00000000000E+00  0.00000000000E+00  0.45593999997E+02  0.45594000000E+02  0.51100000000E-03 0. -1.
         11   -1    0    0    0    0 -0.00000000000E+00 -0.00000000000E+00 -0.45593999997E+02  0.45594000000E+02  0.51100000000E-03 0.  1.
    9900012    2    1    2    0    0 -0.35565771622E+02 -0.37839953913E+01 -0.24584158347E+02  0.47787267589E+02  0.19999984245E+02 0.  0.
         12    1    1    2    0    0  0.35565771622E+02  0.37839953913E+01  0.24584158347E+02  0.43400732411E+02  0.00000000000E+00 0. -1.
         11    1    3    3    0    0 -0.20336644835E+00 -0.86658437198E-01  0.17156852185E+01  0.17298680953E+01  0.51100000000E-03 0. -1.
        -11    1    3    3    0    0 -0.21650624794E+02  0.40651910455E+01 -0.14511948104E+02  0.26379385328E+02  0.51100000000E-03 0.  1.
         12    1    3    3    0    0 -0.13711780379E+02 -0.77625279996E+01 -0.11787895461E+02  0.19678014166E+02  0.00000000000E+00 0. -1.
</event>
<event>
 7    1  0.1246400E-009  0.4778726E+02  0.7816164E-02  0.1312668E+00
        -11   -1    0    0    0    0  0.00000000000E+00  0.00000000000E+00  0.45593999997E+02  0.45594000000E+02  0.51100000000E-03 0. -1.
         11   -1    0    0    0    0 -0.00000000000E+00 -0.00000000000E+00 -0.45593999997E+02  0.45594000000E+02  0.51100000000E-03 0.  1.
    9900012    2    1    2    0    0  0.13432187763E+01 -0.84903218694E+01 -0.42540974612E+02  0.47787258957E+02  0.19999944889E+02 0.  0.
         12    1    1    2    0    0 -0.13432187763E+01  0.84903218694E+01  0.42540974612E+02  0.43400741043E+02  0.00000000000E+00 0. -1.
         11    1    3    3    0    0 -0.33107150090E+00 -0.21554117175E+01  0.10793716777E+01  0.24331977911E+01  0.51100000000E-03 0. -1.
        -11    1    3    3    0    0 -0.46105066046E+00 -0.30363594075E+00  0.51643276869E+00  0.75595341241E+00  0.51100000000E-03 0.  1.
        -12    1    3    3    0    0  0.21353409377E+01 -0.60312742111E+01 -0.44136779059E+02  0.44598107754E+02  0.00000000000E+00 0.  1.
</event>
<event>
 7    1  0.1246400E-009  0.4778727E+02  0.7816164E-02  0.1312668E+00
        -11   -1    0    0    0    0  0.00000000000E+00  0.00000000000E+00  0.45593999997E+02  0.45594000000E+02  0.51100000000E-03 0.  1.
         11   -1    0    0    0    0 -0.00000000000E+00 -0.00000000000E+00 -0.45593999997E+02  0.45594000000E+02  0.51100000000E-03 0. -1.
    9900012    2    1    2    0    0  0.34209297257E+02  0.55014764860E+01  0.26135823029E+02  0.47787268350E+02  0.19999987714E+02 0.  0.
         12    1    1    2    0    0 -0.34209297257E+02 -0.55014764860E+01 -0.26135823029E+02  0.43400731650E+02  0.00000000000E+00 0. -1.
         11    1    3    3    0    0  0.30317179521E+00  0.19543721729E+01 -0.28314557690E-01  0.19779498737E+01  0.51100000000E-03 0. -1.
        -11    1    3    3    0    0  0.13396508370E+02  0.71376770143E+01  0.46644777888E+01  0.15879868481E+02  0.51100000000E-03 0.  1.
         12    1    3    3    0    0  0.20509617092E+02 -0.35905727012E+01  0.21499659798E+02  0.29929449995E+02  0.00000000000E+00 0. -1.
</event>
<event>
 7    1  0.1246400E-009  0.4778727E+02  0.7816164E-02  0.1312668E+00
        -11   -1    0    0    0    0  0.00000000000E+00  0.00000000000E+00  0.45593999997E+02  0.45594000000E+02  0.51100000000E-03 0.  1.
         11   -1    0    0    0    0 -0.00000000000E+00 -0.00000000000E+00 -0.45593999997E+02  0.45594000000E+02  0.51100000000E-03 0. -1.
    9900012    2    1    2    0    0 -0.40870572017E+02  0.14043182055E+02  0.40010924647E+01  0.47787270051E+02  0.19999995472E+02 0.  0.
         12    1    1    2    0    0  0.40870572017E+02 -0.14043182055E+02 -0.40010924647E+01  0.43400729949E+02  0.00000000000E+00 0. -1.
         11    1    3    3    0    0 -0.14589705508E+01 -0.23562647257E+01  0.10288787885E+01  0.29562087796E+01  0.51100000000E-03 0. -1.
        -11    1    3    3    0    0 -0.14813523537E+02  0.93600402975E+00  0.51090913775E+01  0.15697751371E+02  0.51100000000E-03 0.  1.
        -12    1    3    3    0    0 -0.24598077928E+02  0.15463442751E+02 -0.21368777013E+01  0.29133309901E+02  0.00000000000E+00 0.  1.
</event>
<event>
 7    1  0.1246400E-009  0.4778727E+02  0.7816164E-02  0.1312668E+00
        -11   -1    0    0    0    0  0.00000000000E+00  0.00000000000E+00  0.45593999997E+02  0.45594000000E+02  0.51100000000E-03 0. -1.
         11   -1    0    0    0    0 -0.00000000000E+00 -0.00000000000E+00 -0.45593999997E+02  0.45594000000E+02  0.51100000000E-03 0.  1.
    9900012    2    1    2    0    0  0.28216959317E+02  0.20687477161E+02 -0.25679850365E+02  0.47787271675E+02  0.20000002876E+02 0.  0.
         12    1    1    2    0    0 -0.28216959317E+02 -0.20687477161E+02  0.25679850365E+02  0.43400728325E+02  0.00000000000E+00 0. -1.
         11    1    3    3    0    0  0.72422140260E+01  0.12553245477E+02 -0.11186222039E+02  0.18307517575E+02  0.51100000000E-03 0.  1.
        -11    1    3    3    0    0  0.34289817611E+01 -0.86820651458E+00 -0.79509487329E+01  0.87022574361E+01  0.51100000000E-03 0. -1.
         12    1    3    3    0    0  0.17545763530E+02  0.90024381986E+01 -0.65426795931E+01  0.20777496664E+02  0.00000000000E+00 0. -1.
</event>
<event>
 7    1  0.1246400E-009  0.4778727E+02  0.7816164E-02  0.1312668E+00
        -11   -1    0    0    0    0  0.00000000000E+00  0.00000000000E+00  0.45593999997E+02  0.45594000000E+02  0.51100000000E-03 0. -1.
         11   -1    0    0    0    0 -0.00000000000E+00 -0.00000000000E+00 -0.45593999997E+02  0.45594000000E+02  0.51100000000E-03 0.  1.
    9900012    2    1    2    0    0  0.12751089077E+02  0.39512341931E+02 -0.12641515116E+02  0.47787270260E+02  0.19999996423E+02 0.  0.
         12    1    1    2    0    0 -0.12751089077E+02 -0.39512341931E+02  0.12641515116E+02  0.43400729740E+02  0.00000000000E+00 0. -1.
         11    1    3    3    0    0  0.53671971985E+01  0.85509954572E+00 -0.78450372586E+00  0.54912154718E+01  0.51100000000E-03 0. -1.
        -11    1    3    3    0    0  0.58082959019E+01  0.84650548446E+01 -0.43161333189E+01  0.11136537249E+02  0.51100000000E-03 0.  1.
        -12    1    3    3    0    0  0.15755959763E+01  0.30192187541E+02 -0.75408780712E+01  0.31159517539E+02  0.00000000000E+00 0.  1.
</event>
<event>
 7    1  0.1246400E-009  0.4778728E+02  0.7816164E-02  0.1312668E+00
        -11   -1    0    0    0    0  0.00000000000E+00  0.00000000000E+00  0.45593999997E+02  0.45594000000E+02  0.51100000000E-03 0.  1.
         11   -1    0    0    0    0 -0.00000000000E+00 -0.00000000000E+00 -0.45593999997E+02  0.45594000000E+02  0.51100000000E-03 0. -1.
    9900012    2    1    2    0    0 -0.41847183446E+02 -0.79966263343E+01  0.82758513064E+01  0.47787279845E+02  0.20000040126E+02 0.  0.
         12    1    1    2    0    0  0.41847183446E+02  0.79966263343E+01 -0.82758513064E+01  0.43400720155E+02  0.00000000000E+00 0. -1.
         11    1    3    3    0    0 -0.28677026351E+01  0.34017283502E+01 -0.25178824965E+00  0.44563294039E+01  0.51100000000E-03 0.  1.
        -11    1    3    3    0    0 -0.21136404847E+02 -0.12111804045E+02  0.73023532382E+01  0.25431629326E+02  0.51100000000E-03 0. -1.
         12    1    3    3    0    0 -0.17843075964E+02  0.71344936011E+00  0.12252863178E+01  0.17899321116E+02  0.00000000000E+00 0. -1.
</event>
<event>
 7    1  0.1246400E-009  0.4778727E+02  0.7816164E-02  0.1312668E+00
        -11   -1    0    0    0    0  0.00000000000E+00  0.00000000000E+00  0.45593999997E+02  0.45594000000E+02  0.51100000000E-03 0.  1.
         11   -1    0    0    0    0 -0.00000000000E+00 -0.00000000000E+00 -0.45593999997E+02  0.45594000000E+02  0.51100000000E-03 0. -1.
    9900012    2    1    2    0    0  0.24923838123E+00  0.10517600144E+02  0.42106310693E+02  0.47787269214E+02  0.19999991655E+02 0.  0.
         12    1    1    2    0    0 -0.24923838123E+00 -0.10517600144E+02 -0.42106310693E+02  0.43400730786E+02  0.00000000000E+00 0. -1.
         11    1    3    3    0    0 -0.52562532106E+01  0.44814325510E+01  0.83348016621E+01  0.10824987507E+02  0.51100000000E-03 0. -1.
        -11    1    3    3    0    0  0.31728951458E+01  0.99625859995E+01  0.23642146259E+02  0.25850947050E+02  0.51100000000E-03 0.  1.
        -12    1    3    3    0    0  0.23325964461E+01 -0.39264184068E+01  0.10129362772E+02  0.11111334657E+02  0.00000000000E+00 0.  1.
</event>
<event>
 7    1  0.1246400E-009  0.4778726E+02  0.7816164E-02  0.1312668E+00
        -11   -1    0    0    0    0  0.00000000000E+00  0.00000000000E+00  0.45593999997E+02  0.45594000000E+02  0.51100000000E-03 0.  1.
         11   -1    0    0    0    0 -0.00000000000E+00 -0.00000000000E+00 -0.45593999997E+02  0.45594000000E+02  0.51100000000E-03 0. -1.
    9900012    2    1    2    0    0 -0.21858371271E+02 -0.30092518597E+02  0.22366850116E+02  0.47787262054E+02  0.19999959008E+02 0.  0.
         12    1    1    2    0    0  0.21858371271E+02  0.30092518597E+02 -0.22366850116E+02  0.43400737946E+02  0.00000000000E+00 0. -1.
         11    1    3    3    0    0 -0.61546769938E+01 -0.58721868788E+01 -0.40971847267E+00  0.85164838475E+01  0.51100000000E-03 0. -1.
        -11    1    3    3    0    0 -0.52967920751E+01 -0.94276033619E+00  0.48393423649E+00  0.54017585974E+01  0.51100000000E-03 0.  1.
        -12    1    3    3    0    0 -0.10406902203E+02 -0.23277571382E+02  0.22292634352E+02  0.33869019609E+02  0.00000000000E+00 0.  1.
</event>
<event>
 7    1  0.1246400E-009  0.4778727E+02  0.7816164E-02  0.1312668E+00
        -11   -1    0    0    0    0  0.00000000000E+00  0.00000000000E+00  0.45593999997E+02  0.45594000000E+02  0.51100000000E-03 0. -1.
         11   -1    0    0    0    0 -0.00000000000E+00 -0.00000000000E+00 -0.45593999997E+02  0.45594000000E+02  0.51100000000E-03 0.  1.
    9900012    2    1    2    0    0  0.41729921408E+02  0.52429227278E+01 -0.10712068613E+02  0.47787274276E+02  0.20000014732E+02 0.  0.
         12    1    1    2    0    0 -0.41729921408E+02 -0.52429227278E+01  0.10712068613E+02  0.43400725724E+02  0.00000000000E+00 0. -1.
         11    1    3    3    0    0  0.21663670087E+02 -0.36227714969E+01 -0.41527557704E+01  0.22353622877E+02  0.51100000000E-03 0. -1.
        -11    1    3    3    0    0  0.80837889155E+01  0.31213097906E+01 -0.83396994683E+01  0.12026670592E+02  0.51100000000E-03 0.  1.
         12    1    3    3    0    0  0.11982462406E+02  0.57443844341E+01  0.17803866261E+01  0.13406980807E+02  0.00000000000E+00 0. -1.
</event>
<event>
 7    1  0.1827715E-009  0.4778727E+02  0.7816164E-02  0.1312668E+00
        -11   -1    0    0    0    0  0.00000000000E+00  0.00000000000E+00  0.45593999997E+02  0.45594000000E+02  0.51100000000E-03 0. -1.
         11   -1    0    0    0    0 -0.00000000000E+00 -0.00000000000E+00 -0.45593999997E+02  0.45594000000E+02  0.51100000000E-03 0.  1.
    9900012    2    1    2    0    0  0.10466039568E+02 -0.37176926962E+02 -0.19798011127E+02  0.47787272735E+02  0.20000007708E+02 0.  0.
         12    1    1    2    0    0 -0.10466039568E+02  0.37176926962E+02  0.19798011127E+02  0.43400727265E+02  0.00000000000E+00 0. -1.
         11    1    3    3    0    0 -0.41183691257E+01 -0.61317211351E+01 -0.13244584901E+01  0.75042094112E+01  0.51100000000E-03 0. -1.
        -11    1    3    3    0    0  0.85478958537E+01 -0.15235002099E+02 -0.37856164229E+01  0.17874638582E+02  0.51100000000E-03 0.  1.
        -12    1    3    3    0    0  0.60365128399E+01 -0.15810203727E+02 -0.14687936214E+02  0.22408424741E+02  0.00000000000E+00 0.  1.
</event>
<event>
 7    1  0.1246400E-009  0.4778727E+02  0.7816164E-02  0.1312668E+00
        -11   -1    0    0    0    0  0.00000000000E+00  0.00000000000E+00  0.45593999997E+02  0.45594000000E+02  0.51100000000E-03 0.  1.
         11   -1    0    0    0    0 -0.00000000000E+00 -0.00000000000E+00 -0.45593999997E+02  0.45594000000E+02  0.51100000000E-03 0. -1.
    9900012    2    1    2    0    0 -0.28330191021E+02 -0.18175839779E+02  0.27398217489E+02  0.47787271936E+02  0.20000004065E+02 0.  0.
         12    1    1    2    0    0  0.28330191021E+02  0.18175839779E+02 -0.27398217489E+02  0.43400728064E+02  0.00000000000E+00 0. -1.
         11    1    3    3    0    0 -0.61060374607E+01  0.11603192221E+01  0.72077799792E+00  0.62569605523E+01  0.51100000000E-03 0. -1.
        -11    1    3    3    0    0 -0.15221446432E+02 -0.60110719289E+01  0.10560328612E+02  0.19476805638E+02  0.51100000000E-03 0.  1.
         12    1    3    3    0    0 -0.70027071281E+01 -0.13325087072E+02  0.16117110879E+02  0.22053505746E+02  0.00000000000E+00 0. -1.
</event>
<event>
 7    1  0.1246400E-009  0.4778727E+02  0.7816164E-02  0.1312668E+00
        -11   -1    0    0    0    0  0.00000000000E+00  0.00000000000E+00  0.45593999997E+02  0.45594000000E+02  0.51100000000E-03 0. -1.
         11   -1    0    0    0    0 -0.00000000000E+00 -0.00000000000E+00 -0.45593999997E+02  0.45594000000E+02  0.51100000000E-03 0.  1.
    9900012    2    1    2    0    0  0.66846646406E+01 -0.32395398850E+02  0.28097629268E+02  0.47787269839E+02  0.19999994505E+02 0.  0.
         12    1    1    2    0    0 -0.66846646406E+01  0.32395398850E+02 -0.28097629268E+02  0.43400730161E+02  0.00000000000E+00 0. -1.
         11    1    3    3    0    0 -0.20483934991E+01 -0.11207938789E+02  0.18836610965E+02  0.22014352608E+02  0.51100000000E-03 0. -1.
        -11    1    3    3    0    0  0.88756904282E+00 -0.11725024185E+02  0.44028471512E+01  0.12555836661E+02  0.51100000000E-03 0.  1.
         12    1    3    3    0    0  0.78454890969E+01 -0.94624358761E+01  0.48581711509E+01  0.13217080571E+02  0.00000000000E+00 0. -1.
</event>
<event>
 7    1  0.1246400E-009  0.4778727E+02  0.7816164E-02  0.1312668E+00
        -11   -1    0    0    0    0  0.00000000000E+00  0.00000000000E+00  0.45593999997E+02  0.45594000000E+02  0.51100000000E-03 0.  1.
         11   -1    0    0    0    0 -0.00000000000E+00 -0.00000000000E+00 -0.45593999997E+02  0.45594000000E+02  0.51100000000E-03 0. -1.
    9900012    2    1    2    0    0  0.60151539822E+01 -0.39307814770E+02  0.17387838739E+02  0.47787270565E+02  0.19999997816E+02 0.  0.
         12    1    1    2    0    0 -0.60151539822E+01  0.39307814770E+02 -0.17387838739E+02  0.43400729435E+02  0.00000000000E+00 0. -1.
         11    1    3    3    0    0 -0.21745790229E+01  0.48891672907E+00  0.20936513780E-01  0.22289621113E+01  0.51100000000E-03 0. -1.
        -11    1    3    3    0    0  0.76947354972E+01 -0.11883316171E+02  0.68267905897E+01  0.15717099847E+02  0.51100000000E-03 0.  1.
         12    1    3    3    0    0  0.49499750788E+00 -0.27913415328E+02  0.10540111635E+02  0.29841208607E+02  0.00000000000E+00 0. -1.
</event>
<event>
 7    1  0.1351722E-009  0.4778727E+02  0.7816164E-02  0.1312668E+00
        -11   -1    0    0    0    0  0.00000000000E+00  0.00000000000E+00  0.45593999997E+02  0.45594000000E+02  0.51100000000E-03 0.  1.
         11   -1    0    0    0    0 -0.00000000000E+00 -0.00000000000E+00 -0.45593999997E+02  0.45594000000E+02  0.51100000000E-03 0. -1.
    9900012    2    1    2    0    0 -0.10292647025E+02 -0.41520358457E+02 -0.73310696917E+01  0.47787270375E+02  0.19999996947E+02 0.  0.
         12    1    1    2    0    0  0.10292647025E+02  0.41520358457E+02  0.73310696917E+01  0.43400729625E+02  0.00000000000E+00 0. -1.
         11    1    3    3    0    0 -0.61727014356E+01 -0.36291368902E+01 -0.39271713067E+01  0.81667344952E+01  0.51100000000E-03 0. -1.
        -11    1    3    3    0    0  0.11760238877E+01 -0.87107711632E+01  0.29853982064E+01  0.92829504552E+01  0.51100000000E-03 0.  1.
        -12    1    3    3    0    0 -0.52959694770E+01 -0.29180450403E+02 -0.63892965914E+01  0.30337585424E+02  0.00000000000E+00 0.  1.
</event>
<event>
 7    1  0.1246400E-009  0.4778727E+02  0.7816164E-02  0.1312668E+00
        -11   -1    0    0    0    0  0.00000000000E+00  0.00000000000E+00  0.45593999997E+02  0.45594000000E+02  0.51100000000E-03 0. -1.
         11   -1    0    0    0    0 -0.00000000000E+00 -0.00000000000E+00 -0.45593999997E+02  0.45594000000E+02  0.51100000000E-03 0.  1.
    9900012    2    1    2    0    0  0.37130450730E+02  0.22398638264E+02  0.18037691688E+01  0.47787274768E+02  0.20000016975E+02 0.  0.
         12    1    1    2    0    0 -0.37130450730E+02 -0.22398638264E+02 -0.18037691688E+01  0.43400725232E+02  0.00000000000E+00 0. -1.
         11    1    3    3    0    0  0.69326981002E+01 -0.23621065231E+01 -0.37241854327E+01  0.82165325761E+01  0.51100000000E-03 0. -1.
        -11    1    3    3    0    0  0.10946627467E+02  0.75747434499E+01  0.29602629134E+01  0.13637028563E+02  0.51100000000E-03 0.  1.
         12    1    3    3    0    0  0.19251125162E+02  0.17186001337E+02  0.25676916881E+01  0.25933713629E+02  0.00000000000E+00 0. -1.
</event>
<event>
 7    1  0.1246400E-009  0.4778727E+02  0.7816164E-02  0.1312668E+00
        -11   -1    0    0    0    0  0.00000000000E+00  0.00000000000E+00  0.45593999997E+02  0.45594000000E+02  0.51100000000E-03 0.  1.
         11   -1    0    0    0    0 -0.00000000000E+00 -0.00000000000E+00 -0.45593999997E+02  0.45594000000E+02  0.51100000000E-03 0. -1.
    9900012    2    1    2    0    0 -0.21886584317E+02 -0.25941475962E+01  0.37388111020E+02  0.47787273964E+02  0.20000013314E+02 0.  0.
         12    1    1    2    0    0  0.21886584317E+02  0.25941475962E+01 -0.37388111020E+02  0.43400726036E+02  0.00000000000E+00 0. -1.
         11    1    3    3    0    0 -0.12035557642E+01  0.50687766119E+01  0.81016378862E+01  0.96321118930E+01  0.51100000000E-03 0. -1.
        -11    1    3    3    0    0 -0.14297101608E+02 -0.31134467802E+00  0.20779337941E+02  0.25224689006E+02  0.51100000000E-03 0.  1.
         12    1    3    3    0    0 -0.63859269442E+01 -0.73515795300E+01  0.85071351921E+01  0.12930473066E+02  0.00000000000E+00 0. -1.
</event>
<event>
 7    1  0.1246400E-009  0.4778727E+02  0.7816164E-02  0.1312668E+00
        -11   -1    0    0    0    0  0.00000000000E+00  0.00000000000E+00  0.45593999997E+02  0.45594000000E+02  0.51100000000E-03 0. -1.
         11   -1    0    0    0    0 -0.00000000000E+00 -0.00000000000E+00 -0.45593999997E+02  0.45594000000E+02  0.51100000000E-03 0.  1.
    9900012    2    1    2    0    0 -0.29054986343E+01 -0.10122010226E+02 -0.42103755376E+02  0.47787271549E+02  0.20000002302E+02 0.  0.
         12    1    1    2    0    0  0.29054986343E+01  0.10122010226E+02  0.42103755376E+02  0.43400728451E+02  0.00000000000E+00 0. -1.
         11    1    3    3    0    0  0.78086618027E+01 -0.48159535976E+01 -0.12153461841E+02  0.15227450318E+02  0.51100000000E-03 0.  1.
        -11    1    3    3    0    0 -0.57042134281E+01 -0.48233905682E+01 -0.14512122426E+02  0.16321913031E+02  0.51100000000E-03 0. -1.
        -12    1    3    3    0    0 -0.50099470089E+01 -0.48266606025E+00 -0.15438171109E+02  0.16237908201E+02  0.00000000000E+00 0.  1.
</event>
<event>
 7    1  0.1246400E-009  0.4778727E+02  0.7816164E-02  0.1312668E+00
        -11   -1    0    0    0    0  0.00000000000E+00  0.00000000000E+00  0.45593999997E+02  0.45594000000E+02  0.51100000000E-03 0.  1.
         11   -1    0    0    0    0 -0.00000000000E+00 -0.00000000000E+00 -0.45593999997E+02  0.45594000000E+02  0.51100000000E-03 0. -1.
    9900012    2    1    2    0    0 -0.39738976466E+02 -0.14913427817E+01  0.17384273538E+02  0.47787270509E+02  0.19999997560E+02 0.  0.
         12    1    1    2    0    0  0.39738976466E+02  0.14913427817E+01 -0.17384273538E+02  0.43400729491E+02  0.00000000000E+00 0. -1.
         11    1    3    3    0    0 -0.38265871431E+01 -0.23207079285E+01  0.35613378355E+01  0.57194039805E+01  0.51100000000E-03 0. -1.
        -11    1    3    3    0    0 -0.34143939706E+02 -0.39976570860E+01  0.13446294560E+02  0.36913313567E+02  0.51100000000E-03 0.  1.
        -12    1    3    3    0    0 -0.17684496170E+01  0.48270222328E+01  0.37664114197E+00  0.51545529615E+01  0.00000000000E+00 0.  1.
</event>
<event>
 7    1  0.1246400E-009  0.4778727E+02  0.7816164E-02  0.1312668E+00
        -11   -1    0    0    0    0  0.00000000000E+00  0.00000000000E+00  0.45593999997E+02  0.45594000000E+02  0.51100000000E-03 0. -1.
         11   -1    0    0    0    0 -0.00000000000E+00 -0.00000000000E+00 -0.45593999997E+02  0.45594000000E+02  0.51100000000E-03 0.  1.
    9900012    2    1    2    0    0  0.38689271465E+02  0.18501194293E+02  0.66685358602E+01  0.47787270890E+02  0.19999999297E+02 0.  0.
         12    1    1    2    0    0 -0.38689271465E+02 -0.18501194293E+02 -0.66685358602E+01  0.43400729110E+02  0.00000000000E+00 0. -1.
         11    1    3    3    0    0 -0.12580126304E+01  0.36933530463E+01  0.77566185333E+00  0.39780779373E+01  0.51100000000E-03 0. -1.
        -11    1    3    3    0    0  0.15101881509E+02  0.18585571098E+01  0.39733979631E+01  0.15726059624E+02  0.51100000000E-03 0.  1.
        -12    1    3    3    0    0  0.24845402586E+02  0.12949284136E+02  0.19194760437E+01  0.28083133329E+02  0.00000000000E+00 0.  1.
</event>
<event>
 7    1  0.1246400E-009  0.4778727E+02  0.7816164E-02  0.1312668E+00
        -11   -1    0    0    0    0  0.00000000000E+00  0.00000000000E+00  0.45593999997E+02  0.45594000000E+02  0.51100000000E-03 0.  1.
         11   -1    0    0    0    0 -0.00000000000E+00 -0.00000000000E+00 -0.45593999997E+02  0.45594000000E+02  0.51100000000E-03 0. -1.
    9900012    2    1    2    0    0 -0.65835025031E+01 -0.27825594106E+02  0.32649915856E+02  0.47787271919E+02  0.20000003986E+02 0.  0.
         12    1    1    2    0    0  0.65835025031E+01  0.27825594106E+02 -0.32649915856E+02  0.43400728081E+02  0.00000000000E+00 0. -1.
         11    1    3    3    0    0 -0.13828544378E+01  0.18339378889E+01  0.10465293919E+01  0.25240520212E+01  0.51100000000E-03 0. -1.
        -11    1    3    3    0    0  0.18354072344E+01  0.27709992859E-01  0.12122383662E+01  0.21997749152E+01  0.51100000000E-03 0.  1.
        -12    1    3    3    0    0 -0.70360552997E+01 -0.29687241988E+02  0.30391148098E+02  0.43063444982E+02  0.00000000000E+00 0.  1.
</event>
<event>
 7    1  0.1246400E-009  0.4778728E+02  0.7816164E-02  0.1312668E+00
        -11   -1    0    0    0    0  0.00000000000E+00  0.00000000000E+00  0.45593999997E+02  0.45594000000E+02  0.51100000000E-03 0. -1.
         11   -1    0    0    0    0 -0.00000000000E+00 -0.00000000000E+00 -0.45593999997E+02  0.45594000000E+02  0.51100000000E-03 0.  1.
    9900012    2    1    2    0    0 -0.55996481177E+01 -0.34622091501E+02 -0.25565161177E+02  0.47787277138E+02  0.20000027784E+02 0.  0.
         12    1    1    2    0    0  0.55996481177E+01  0.34622091501E+02  0.25565161177E+02  0.43400722862E+02  0.00000000000E+00 0. -1.
         11    1    3    3    0    0 -0.36409401661E+00 -0.50871369345E+01 -0.13204006904E+02  0.14154763341E+02  0.51100000000E-03 0. -1.
        -11    1    3    3    0    0 -0.57428549788E+01 -0.15856585391E+02 -0.10377839672E+02  0.19801798910E+02  0.51100000000E-03 0.  1.
        -12    1    3    3    0    0  0.50730087770E+00 -0.13678369175E+02 -0.19833146005E+01  0.13830714887E+02  0.00000000000E+00 0.  1.
</event>
<event>
 7    1  0.1246400E-009  0.4778726E+02  0.7816164E-02  0.1312668E+00
        -11   -1    0    0    0    0  0.00000000000E+00  0.00000000000E+00  0.45593999997E+02  0.45594000000E+02  0.51100000000E-03 0.  1.
         11   -1    0    0    0    0 -0.00000000000E+00 -0.00000000000E+00 -0.45593999997E+02  0.45594000000E+02  0.51100000000E-03 0. -1.
    9900012    2    1    2    0    0 -0.36205568255E+02  0.14888628820E+02  0.18737918129E+02  0.47787262487E+02  0.19999960985E+02 0.  0.
         12    1    1    2    0    0  0.36205568255E+02 -0.14888628820E+02 -0.18737918129E+02  0.43400737513E+02  0.00000000000E+00 0. -1.
         11    1    3    3    0    0 -0.19415387993E+02  0.92267522852E+01  0.54127256735E+01  0.22167269749E+02  0.51100000000E-03 0. -1.
        -11    1    3    3    0    0 -0.45840530126E+00  0.55304841953E+01  0.34356568534E+01  0.65268774410E+01  0.51100000000E-03 0.  1.
        -12    1    3    3    0    0 -0.16331774961E+02  0.13139233918E+00  0.98895356025E+01  0.19093115297E+02  0.00000000000E+00 0.  1.
</event>
<event>
 7    1  0.1246400E-009  0.4778727E+02  0.7816164E-02  0.1312668E+00
        -11   -1    0    0    0    0  0.00000000000E+00  0.00000000000E+00  0.45593999997E+02  0.45594000000E+02  0.51100000000E-03 0.  1.
         11   -1    0    0    0    0 -0.00000000000E+00 -0.00000000000E+00 -0.45593999997E+02  0.45594000000E+02  0.51100000000E-03 0. -1.
    9900012    2    1    2    0    0 -0.34841838569E+01 -0.32774642970E+02  0.28236614446E+02  0.47787272421E+02  0.20000006279E+02 0.  0.
         12    1    1    2    0    0  0.34841838569E+01  0.32774642970E+02 -0.28236614446E+02  0.43400727579E+02  0.00000000000E+00 0. -1.
         11    1    3    3    0    0 -0.35428152617E+01 -0.21660428123E+01  0.55068366095E+01  0.68969943561E+01  0.51100000000E-03 0. -1.
        -11    1    3    3    0    0 -0.16175102826E+01  0.30835047357E+00 -0.95881468461E+00  0.19054514923E+01  0.51100000000E-03 0.  1.
        -12    1    3    3    0    0  0.16761416874E+01 -0.30916950631E+02  0.23688592522E+02  0.38984826573E+02  0.00000000000E+00 0.  1.
</event>
<event>
 7    1  0.1246400E-009  0.4778727E+02  0.7816164E-02  0.1312668E+00
        -11   -1    0    0    0    0  0.00000000000E+00  0.00000000000E+00  0.45593999997E+02  0.45594000000E+02  0.51100000000E-03 0.  1.
         11   -1    0    0    0    0 -0.00000000000E+00 -0.00000000000E+00 -0.45593999997E+02  0.45594000000E+02  0.51100000000E-03 0. -1.
    9900012    2    1    2    0    0 -0.22549970679E+02  0.13597888574E+02  0.34499559948E+02  0.47787269730E+02  0.19999994008E+02 0.  0.
         12    1    1    2    0    0  0.22549970679E+02 -0.13597888574E+02 -0.34499559948E+02  0.43400730270E+02  0.00000000000E+00 0. -1.
         11    1    3    3    0    0  0.22207568054E+01  0.28939509950E+00  0.38359571494E+01  0.44418552234E+01  0.51100000000E-03 0. -1.
        -11    1    3    3    0    0 -0.12572393359E+02  0.45212111714E+00  0.15928441324E+02  0.20297407015E+02  0.51100000000E-03 0.  1.
         12    1    3    3    0    0 -0.12198334126E+02  0.12856372358E+02  0.14735161475E+02  0.23048007492E+02  0.00000000000E+00 0. -1.
</event>
<event>
 7    1  0.1246400E-009  0.4778727E+02  0.7816164E-02  0.1312668E+00
        -11   -1    0    0    0    0  0.00000000000E+00  0.00000000000E+00  0.45593999997E+02  0.45594000000E+02  0.51100000000E-03 0.  1.
         11   -1    0    0    0    0 -0.00000000000E+00 -0.00000000000E+00 -0.45593999997E+02  0.45594000000E+02  0.51100000000E-03 0. -1.
    9900012    2    1    2    0    0 -0.36549537712E+02 -0.15990923147E+02  0.17089324782E+02  0.47787270150E+02  0.19999995920E+02 0.  0.
         12    1    1    2    0    0  0.36549537712E+02  0.15990923147E+02 -0.17089324782E+02  0.43400729850E+02  0.00000000000E+00 0. -1.
         11    1    3    3    0    0 -0.46878893299E+01 -0.90057958509E+01  0.49270148048E+01  0.11285217784E+02  0.51100000000E-03 0. -1.
        -11    1    3    3    0    0 -0.13263017695E+02 -0.48538988946E+01 -0.99061236860E-01  0.14123660512E+02  0.51100000000E-03 0.  1.
         12    1    3    3    0    0 -0.18598630686E+02 -0.21312284015E+01  0.12261371214E+02  0.22378391854E+02  0.00000000000E+00 0. -1.
</event>
<event>
 7    1  0.1246400E-009  0.4778727E+02  0.7816164E-02  0.1312668E+00
        -11   -1    0    0    0    0  0.00000000000E+00  0.00000000000E+00  0.45593999997E+02  0.45594000000E+02  0.51100000000E-03 0. -1.
         11   -1    0    0    0    0 -0.00000000000E+00 -0.00000000000E+00 -0.45593999997E+02  0.45594000000E+02  0.51100000000E-03 0.  1.
    9900012    2    1    2    0    0  0.20223257840E+01  0.31979580768E+02 -0.29271825567E+02  0.47787272360E+02  0.20000005997E+02 0.  0.
         12    1    1    2    0    0 -0.20223257840E+01 -0.31979580768E+02  0.29271825567E+02  0.43400727640E+02  0.00000000000E+00 0. -1.
         11    1    3    3    0    0  0.54286711335E+01  0.50066179778E+01 -0.58574379667E+01  0.94258301303E+01  0.51100000000E-03 0. -1.
        -11    1    3    3    0    0 -0.62543595247E+00  0.26127886830E+02 -0.16622046022E+02  0.30973376544E+02  0.51100000000E-03 0.  1.
        -12    1    3    3    0    0 -0.27809093970E+01  0.84507596021E+00 -0.67923415781E+01  0.73880656851E+01  0.00000000000E+00 0.  1.
</event>
<event>
 7    1  0.1246400E-009  0.4778727E+02  0.7816164E-02  0.1312668E+00
        -11   -1    0    0    0    0  0.00000000000E+00  0.00000000000E+00  0.45593999997E+02  0.45594000000E+02  0.51100000000E-03 0. -1.
         11   -1    0    0    0    0 -0.00000000000E+00 -0.00000000000E+00 -0.45593999997E+02  0.45594000000E+02  0.51100000000E-03 0.  1.
    9900012    2    1    2    0    0  0.16609564565E+02 -0.82455124028E+00 -0.40088224833E+02  0.47787270858E+02  0.19999999150E+02 0.  0.
         12    1    1    2    0    0 -0.16609564565E+02  0.82455124028E+00  0.40088224833E+02  0.43400729142E+02  0.00000000000E+00 0. -1.
         11    1    3    3    0    0  0.71214358909E+01  0.46923043215E+01 -0.12124431345E+02  0.14823441055E+02  0.51100000000E-03 0. -1.
        -11    1    3    3    0    0  0.91933912970E+01 -0.75363365251E+01 -0.28477684013E+02  0.30859249809E+02  0.51100000000E-03 0.  1.
        -12    1    3    3    0    0  0.29473737668E+00  0.20194809634E+01  0.51389052461E+00  0.21045799947E+01  0.00000000000E+00 0.  1.
</event>
<event>
 7    1  0.1246400E-009  0.4778727E+02  0.7816164E-02  0.1312668E+00
        -11   -1    0    0    0    0  0.00000000000E+00  0.00000000000E+00  0.45593999997E+02  0.45594000000E+02  0.51100000000E-03 0.  1.
         11   -1    0    0    0    0 -0.00000000000E+00 -0.00000000000E+00 -0.45593999997E+02  0.45594000000E+02  0.51100000000E-03 0. -1.
    9900012    2    1    2    0    0 -0.40499457761E+02  0.43067164957E+01  0.14995651128E+02  0.47787269146E+02  0.19999991345E+02 0.  0.
         12    1    1    2    0    0  0.40499457761E+02 -0.43067164957E+01 -0.14995651128E+02  0.43400730854E+02  0.00000000000E+00 0. -1.
         11    1    3    3    0    0 -0.36722874322E+02  0.45019474257E+01  0.10898764029E+02  0.38569678333E+02  0.51100000000E-03 0.  1.
        -11    1    3    3    0    0 -0.44020850084E+01 -0.18982464036E+01  0.52172431571E+01  0.70852888615E+01  0.51100000000E-03 0. -1.
         12    1    3    3    0    0  0.62550156959E+00  0.17030154736E+01 -0.11203560580E+01  0.21323019518E+01  0.00000000000E+00 0. -1.
</event>
<event>
 7    1  0.1246400E-009  0.4778727E+02  0.7816164E-02  0.1312668E+00
        -11   -1    0    0    0    0  0.00000000000E+00  0.00000000000E+00  0.45593999997E+02  0.45594000000E+02  0.51100000000E-03 0. -1.
         11   -1    0    0    0    0 -0.00000000000E+00 -0.00000000000E+00 -0.45593999997E+02  0.45594000000E+02  0.51100000000E-03 0.  1.
    9900012    2    1    2    0    0 -0.97290854448E+01  0.42216583838E+02 -0.25938245192E+01  0.47787274428E+02  0.20000015429E+02 0.  0.
         12    1    1    2    0    0  0.97290854448E+01 -0.42216583838E+02  0.25938245192E+01  0.43400725572E+02  0.00000000000E+00 0. -1.
         11    1    3    3    0    0 -0.33439102316E+00  0.67455685076E+01 -0.63959948645E+01  0.93017881300E+01  0.51100000000E-03 0. -1.
        -11    1    3    3    0    0 -0.68296097566E+01  0.16706095730E+02 -0.31293826947E+01  0.18317484551E+02  0.51100000000E-03 0.  1.
         12    1    3    3    0    0 -0.25650846650E+01  0.18764919600E+02  0.69315530401E+01  0.20168001747E+02  0.00000000000E+00 0. -1.
</event>
<event>
 7    1  0.1246400E-009  0.4778727E+02  0.7816164E-02  0.1312668E+00
        -11   -1    0    0    0    0  0.00000000000E+00  0.00000000000E+00  0.45593999997E+02  0.45594000000E+02  0.51100000000E-03 0.  1.
         11   -1    0    0    0    0 -0.00000000000E+00 -0.00000000000E+00 -0.45593999997E+02  0.45594000000E+02  0.51100000000E-03 0. -1.
    9900012    2    1    2    0    0  0.25771556064E+02 -0.34889303041E+02  0.14787711662E+01  0.47787270366E+02  0.19999996906E+02 0.  0.
         12    1    1    2    0    0 -0.25771556064E+02  0.34889303041E+02 -0.14787711662E+01  0.43400729634E+02  0.00000000000E+00 0. -1.
         11    1    3    3    0    0  0.11148623348E+02 -0.11799383145E+02 -0.66725301670E+01  0.17551065616E+02  0.51100000000E-03 0. -1.
        -11    1    3    3    0    0  0.72083621677E+01 -0.18651392008E+02  0.31232483678E+01  0.20238319831E+02  0.51100000000E-03 0.  1.
        -12    1    3    3    0    0  0.74145705479E+01 -0.44385278880E+01  0.50280529654E+01  0.99978849186E+01  0.00000000000E+00 0.  1.
</event>
<event>
 7    1  0.1246400E-009  0.4778727E+02  0.7816164E-02  0.1312668E+00
        -11   -1    0    0    0    0  0.00000000000E+00  0.00000000000E+00  0.45593999997E+02  0.45594000000E+02  0.51100000000E-03 0.  1.
         11   -1    0    0    0    0 -0.00000000000E+00 -0.00000000000E+00 -0.45593999997E+02  0.45594000000E+02  0.51100000000E-03 0. -1.
    9900012    2    1    2    0    0 -0.85007243934E+01 -0.46584251839E+01  0.42304377885E+02  0.47787266957E+02  0.19999981363E+02 0.  0.
         12    1    1    2    0    0  0.85007243934E+01  0.46584251839E+01 -0.42304377885E+02  0.43400733043E+02  0.00000000000E+00 0. -1.
         11    1    3    3    0    0  0.16587277747E+01 -0.13884190429E+01  0.25329186486E+02  0.25421384179E+02  0.51100000000E-03 0. -1.
        -11    1    3    3    0    0 -0.15555056227E+01  0.48702604360E+00 -0.11216854425E+01  0.19786284650E+01  0.51100000000E-03 0.  1.
        -12    1    3    3    0    0 -0.86039465455E+01 -0.37570321846E+01  0.18096876842E+02  0.20387254313E+02  0.00000000000E+00 0.  1.
</event>
<event>
 7    1  0.1246400E-009  0.4778727E+02  0.7816164E-02  0.1312668E+00
        -11   -1    0    0    0    0  0.00000000000E+00  0.00000000000E+00  0.45593999997E+02  0.45594000000E+02  0.51100000000E-03 0.  1.
         11   -1    0    0    0    0 -0.00000000000E+00 -0.00000000000E+00 -0.45593999997E+02  0.45594000000E+02  0.51100000000E-03 0. -1.
    9900012    2    1    2    0    0 -0.14193370782E+02  0.39314865006E+01  0.40825421000E+02  0.47787270052E+02  0.19999995473E+02 0.  0.
         12    1    1    2    0    0  0.14193370782E+02 -0.39314865006E+01 -0.40825421000E+02  0.43400729948E+02  0.00000000000E+00 0. -1.
         11    1    3    3    0    0 -0.72133247341E+01  0.10920294855E+01  0.30357462200E+01  0.79019198610E+01  0.51100000000E-03 0. -1.
        -11    1    3    3    0    0 -0.93442227739E+01  0.43656978443E+00  0.26462374051E+02  0.28067104109E+02  0.51100000000E-03 0.  1.
        -12    1    3    3    0    0  0.23641767258E+01  0.24028872306E+01  0.11327300729E+02  0.11818246081E+02  0.00000000000E+00 0.  1.
</event>
<event>
 7    1  0.1246400E-009  0.4778727E+02  0.7816164E-02  0.1312668E+00
        -11   -1    0    0    0    0  0.00000000000E+00  0.00000000000E+00  0.45593999997E+02  0.45594000000E+02  0.51100000000E-03 0.  1.
         11   -1    0    0    0    0 -0.00000000000E+00 -0.00000000000E+00 -0.45593999997E+02  0.45594000000E+02  0.51100000000E-03 0. -1.
    9900012    2    1    2    0    0  0.33971514862E+02 -0.24998741236E+02  0.10228520428E+02  0.47787268261E+02  0.19999987308E+02 0.  0.
         12    1    1    2    0    0 -0.33971514862E+02  0.24998741236E+02 -0.10228520428E+02  0.43400731739E+02  0.00000000000E+00 0. -1.
         11    1    3    3    0    0  0.31214316738E+00 -0.76974558839E+01  0.47711214150E+01  0.90615594828E+01  0.51100000000E-03 0. -1.
        -11    1    3    3    0    0  0.14218600815E+02 -0.10698443785E+02  0.30521902124E+01  0.18053840974E+02  0.51100000000E-03 0.  1.
         12    1    3    3    0    0  0.19440770879E+02 -0.66028415673E+01  0.24052088003E+01  0.20671867804E+02  0.00000000000E+00 0. -1.
</event>
<event>
 7    1  0.1284923E-009  0.4778729E+02  0.7816164E-02  0.1312668E+00
        -11   -1    0    0    0    0  0.00000000000E+00  0.00000000000E+00  0.45593999997E+02  0.45594000000E+02  0.51100000000E-03 0.  1.
         11   -1    0    0    0    0 -0.00000000000E+00 -0.00000000000E+00 -0.45593999997E+02  0.45594000000E+02  0.51100000000E-03 0. -1.
    9900012    2    1    2    0    0  0.23906803168E+02  0.35756328872E+02  0.57940846371E+01  0.47787289074E+02  0.20000082206E+02 0.  0.
         12    1    1    2    0    0 -0.23906803168E+02 -0.35756328872E+02 -0.57940846371E+01  0.43400710926E+02  0.00000000000E+00 0. -1.
         11    1    3    3    0    0 -0.17310257108E+01  0.21429040222E+01 -0.10405112221E+01  0.29446819054E+01  0.51100000000E-03 0. -1.
        -11    1    3    3    0    0  0.14910085609E+02  0.25896791376E+02 -0.17702949251E+00  0.29882867937E+02  0.51100000000E-03 0.  1.
        -12    1    3    3    0    0  0.10727743269E+02  0.77166334736E+01  0.70116253517E+01  0.14959739232E+02  0.00000000000E+00 0.  1.
</event>
<event>
 7    1  0.1246400E-009  0.4778727E+02  0.7816164E-02  0.1312668E+00
        -11   -1    0    0    0    0  0.00000000000E+00  0.00000000000E+00  0.45593999997E+02  0.45594000000E+02  0.51100000000E-03 0.  1.
         11   -1    0    0    0    0 -0.00000000000E+00 -0.00000000000E+00 -0.45593999997E+02  0.45594000000E+02  0.51100000000E-03 0. -1.
    9900012    2    1    2    0    0  0.10826173076E+02  0.16748751822E+02  0.38547331636E+02  0.47787268585E+02  0.19999988787E+02 0.  0.
         12    1    1    2    0    0 -0.10826173076E+02 -0.16748751822E+02 -0.38547331636E+02  0.43400731415E+02  0.00000000000E+00 0. -1.
         11    1    3    3    0    0 -0.23529143659E+00  0.10274536712E+02  0.89566968391E+01  0.13632457051E+02  0.51100000000E-03 0. -1.
        -11    1    3    3    0    0  0.10706042003E+02  0.85236809129E+01  0.28877426843E+02  0.31955879787E+02  0.51100000000E-03 0.  1.
         12    1    3    3    0    0  0.35542250978E+00 -0.20494658037E+01  0.71320795450E+00  0.21989317469E+01  0.00000000000E+00 0. -1.
</event>
<event>
 7    1  0.1246400E-009  0.4778727E+02  0.7816164E-02  0.1312668E+00
        -11   -1    0    0    0    0  0.00000000000E+00  0.00000000000E+00  0.45593999997E+02  0.45594000000E+02  0.51100000000E-03 0. -1.
         11   -1    0    0    0    0 -0.00000000000E+00 -0.00000000000E+00 -0.45593999997E+02  0.45594000000E+02  0.51100000000E-03 0.  1.
    9900012    2    1    2    0    0 -0.12167115998E+02  0.30571953153E+02 -0.28300887911E+02  0.47787270883E+02  0.19999999265E+02 0.  0.
         12    1    1    2    0    0  0.12167115998E+02 -0.30571953153E+02  0.28300887911E+02  0.43400729117E+02  0.00000000000E+00 0. -1.
         11    1    3    3    0    0  0.19148649222E+01  0.24174531492E+01 -0.57255632693E+01  0.65032962727E+01  0.51100000000E-03 0. -1.
        -11    1    3    3    0    0 -0.17820706504E+01  0.90817250198E+00 -0.75807613732E+01  0.78401847144E+01  0.51100000000E-03 0.  1.
         12    1    3    3    0    0 -0.12299910270E+02  0.27246327502E+02 -0.14994563269E+02  0.33443789896E+02  0.00000000000E+00 0. -1.
</event>
<event>
 7    1  0.1246400E-009  0.4778727E+02  0.7816164E-02  0.1312668E+00
        -11   -1    0    0    0    0  0.00000000000E+00  0.00000000000E+00  0.45593999997E+02  0.45594000000E+02  0.51100000000E-03 0. -1.
         11   -1    0    0    0    0 -0.00000000000E+00 -0.00000000000E+00 -0.45593999997E+02  0.45594000000E+02  0.51100000000E-03 0.  1.
    9900012    2    1    2    0    0 -0.15071992281E+02  0.37400503643E+02  0.16051817032E+02  0.47787268968E+02  0.19999990535E+02 0.  0.
         12    1    1    2    0    0  0.15071992281E+02 -0.37400503643E+02 -0.16051817032E+02  0.43400731032E+02  0.00000000000E+00 0. -1.
         11    1    3    3    0    0  0.11111784708E+01  0.89385098483E+01  0.31536529528E+01  0.95434376988E+01  0.51100000000E-03 0. -1.
        -11    1    3    3    0    0 -0.17720135215E+02  0.26620648586E+02  0.14746900637E+02  0.35215525011E+02  0.51100000000E-03 0.  1.
         12    1    3    3    0    0  0.15369644630E+01  0.18413452087E+01 -0.18487365573E+01  0.30283062587E+01  0.00000000000E+00 0. -1.
</event>
<event>
 7    1  0.1246400E-009  0.4778727E+02  0.7816164E-02  0.1312668E+00
        -11   -1    0    0    0    0  0.00000000000E+00  0.00000000000E+00  0.45593999997E+02  0.45594000000E+02  0.51100000000E-03 0.  1.
         11   -1    0    0    0    0 -0.00000000000E+00 -0.00000000000E+00 -0.45593999997E+02  0.45594000000E+02  0.51100000000E-03 0. -1.
    9900012    2    1    2    0    0 -0.13063651611E+02  0.30099245713E+02  0.28407739551E+02  0.47787271293E+02  0.20000001135E+02 0.  0.
         12    1    1    2    0    0  0.13063651611E+02 -0.30099245713E+02 -0.28407739551E+02  0.43400728707E+02  0.00000000000E+00 0. -1.
         11    1    3    3    0    0  0.35299910989E+01  0.28709673898E+01  0.11949563212E+01  0.47043821892E+01  0.51100000000E-03 0. -1.
        -11    1    3    3    0    0 -0.68375039568E+01  0.20047529337E+02  0.15643894489E+02  0.26332229832E+02  0.51100000000E-03 0.  1.
         12    1    3    3    0    0 -0.97561387528E+01  0.71807489862E+01  0.11568888741E+02  0.16750659272E+02  0.00000000000E+00 0. -1.
</event>
<event>
 7    1  0.1246400E-009  0.4778727E+02  0.7816164E-02  0.1312668E+00
        -11   -1    0    0    0    0  0.00000000000E+00  0.00000000000E+00  0.45593999997E+02  0.45594000000E+02  0.51100000000E-03 0. -1.
         11   -1    0    0    0    0 -0.00000000000E+00 -0.00000000000E+00 -0.45593999997E+02  0.45594000000E+02  0.51100000000E-03 0.  1.
    9900012    2    1    2    0    0  0.40678949558E+02 -0.14231940683E+02 -0.51281900818E+01  0.47787269519E+02  0.19999993046E+02 0.  0.
         12    1    1    2    0    0 -0.40678949558E+02  0.14231940683E+02  0.51281900818E+01  0.43400730481E+02  0.00000000000E+00 0. -1.
         11    1    3    3    0    0  0.12716926631E+02 -0.64538373860E+01 -0.37746266481E+01  0.14751950601E+02  0.51100000000E-03 0.  1.
        -11    1    3    3    0    0  0.23236193255E+02 -0.14917871922E+01  0.38569280457E+01  0.23601313527E+02  0.51100000000E-03 0. -1.
         12    1    3    3    0    0  0.47258296725E+01 -0.62863161046E+01 -0.52104914794E+01  0.94340053910E+01  0.00000000000E+00 0. -1.
</event>
<event>
 7    1  0.1246400E-009  0.4778727E+02  0.7816164E-02  0.1312668E+00
        -11   -1    0    0    0    0  0.00000000000E+00  0.00000000000E+00  0.45593999997E+02  0.45594000000E+02  0.51100000000E-03 0. -1.
         11   -1    0    0    0    0 -0.00000000000E+00 -0.00000000000E+00 -0.45593999997E+02  0.45594000000E+02  0.51100000000E-03 0.  1.
    9900012    2    1    2    0    0 -0.16275673098E+02  0.46613917051E+01 -0.39962446591E+02  0.47787271378E+02  0.20000001520E+02 0.  0.
         12    1    1    2    0    0  0.16275673098E+02 -0.46613917051E+01  0.39962446591E+02  0.43400728622E+02  0.00000000000E+00 0. -1.
         11    1    3    3    0    0 -0.76300379922E+01 -0.16942591319E+01 -0.20593620197E+02  0.22026919595E+02  0.51100000000E-03 0. -1.
        -11    1    3    3    0    0 -0.27798584990E+01 -0.33141571059E+01 -0.10602274535E+02  0.11450741294E+02  0.51100000000E-03 0.  1.
         12    1    3    3    0    0 -0.58657766063E+01  0.96698079429E+01 -0.87665518583E+01  0.14309610488E+02  0.00000000000E+00 0. -1.
</event>
<event>
 7    1  0.1246400E-009  0.4778727E+02  0.7816164E-02  0.1312668E+00
        -11   -1    0    0    0    0  0.00000000000E+00  0.00000000000E+00  0.45593999997E+02  0.45594000000E+02  0.51100000000E-03 0.  1.
         11   -1    0    0    0    0 -0.00000000000E+00 -0.00000000000E+00 -0.45593999997E+02  0.45594000000E+02  0.51100000000E-03 0. -1.
    9900012    2    1    2    0    0  0.41152760487E+02  0.96540539016E+01  0.98423921531E+01  0.47787272636E+02  0.20000007257E+02 0.  0.
         12    1    1    2    0    0 -0.41152760487E+02 -0.96540539016E+01 -0.98423921531E+01  0.43400727364E+02  0.00000000000E+00 0. -1.
         11    1    3    3    0    0  0.44186260590E+01  0.29169742549E+01  0.32095151467E+01  0.61914443219E+01  0.51100000000E-03 0. -1.
        -11    1    3    3    0    0  0.12756607469E+02 -0.97788253557E+00  0.99264597575E+01  0.16193266871E+02  0.51100000000E-03 0.  1.
         12    1    3    3    0    0  0.23977526959E+02  0.77149621823E+01 -0.32935827511E+01  0.25402561443E+02  0.00000000000E+00 0. -1.
</event>
<event>
 7    1  0.1246400E-009  0.4778727E+02  0.7816164E-02  0.1312668E+00
        -11   -1    0    0    0    0  0.00000000000E+00  0.00000000000E+00  0.45593999997E+02  0.45594000000E+02  0.51100000000E-03 0.  1.
         11   -1    0    0    0    0 -0.00000000000E+00 -0.00000000000E+00 -0.45593999997E+02  0.45594000000E+02  0.51100000000E-03 0. -1.
    9900012    2    1    2    0    0  0.22056634584E+02  0.36260244860E+02 -0.90732072503E+01  0.47787267560E+02  0.19999984115E+02 0.  0.
         12    1    1    2    0    0 -0.22056634584E+02 -0.36260244860E+02  0.90732072503E+01  0.43400732440E+02  0.00000000000E+00 0. -1.
         11    1    3    3    0    0  0.85963978277E+01  0.13964150340E+02 -0.12801856851E+02  0.20803439366E+02  0.51100000000E-03 0. -1.
        -11    1    3    3    0    0  0.87918796543E+01  0.12770911414E+02 -0.62565295959E+00  0.15517240995E+02  0.51100000000E-03 0.  1.
         12    1    3    3    0    0  0.46683571023E+01  0.95251831055E+01  0.43543025605E+01  0.11466587200E+02  0.00000000000E+00 0. -1.
</event>
<event>
 7    1  0.1246400E-009  0.4778727E+02  0.7816164E-02  0.1312668E+00
        -11   -1    0    0    0    0  0.00000000000E+00  0.00000000000E+00  0.45593999997E+02  0.45594000000E+02  0.51100000000E-03 0.  1.
         11   -1    0    0    0    0 -0.00000000000E+00 -0.00000000000E+00 -0.45593999997E+02  0.45594000000E+02  0.51100000000E-03 0. -1.
    9900012    2    1    2    0    0  0.31868807027E+02 -0.27031794839E+02  0.11716839753E+02  0.47787272732E+02  0.20000007696E+02 0.  0.
         12    1    1    2    0    0 -0.31868807027E+02  0.27031794839E+02 -0.11716839753E+02  0.43400727268E+02  0.00000000000E+00 0. -1.
         11    1    3    3    0    0  0.65422139354E+00 -0.20959935026E+01  0.67637798195E+00  0.22975382108E+01  0.51100000000E-03 0. -1.
        -11    1    3    3    0    0  0.38400179497E+01 -0.55496977729E+01  0.98305261892E+01  0.11924098651E+02  0.51100000000E-03 0.  1.
         12    1    3    3    0    0  0.27374567684E+02 -0.19386103563E+02  0.12099355817E+01  0.33565635870E+02  0.00000000000E+00 0. -1.
</event>
<event>
 7    1  0.1246400E-009  0.4778727E+02  0.7816164E-02  0.1312668E+00
        -11   -1    0    0    0    0  0.00000000000E+00  0.00000000000E+00  0.45593999997E+02  0.45594000000E+02  0.51100000000E-03 0.  1.
         11   -1    0    0    0    0 -0.00000000000E+00 -0.00000000000E+00 -0.45593999997E+02  0.45594000000E+02  0.51100000000E-03 0. -1.
    9900012    2    1    2    0    0  0.16756681432E+02 -0.18153128796E+02  0.35683343210E+02  0.47787269127E+02  0.19999991259E+02 0.  0.
         12    1    1    2    0    0 -0.16756681432E+02  0.18153128796E+02 -0.35683343210E+02  0.43400730873E+02  0.00000000000E+00 0. -1.
         11    1    3    3    0    0  0.75135951674E+01  0.24588126930E+01  0.11890433690E+02  0.14278735441E+02  0.51100000000E-03 0. -1.
        -11    1    3    3    0    0  0.91825235573E+01 -0.12646153777E+02  0.15648953466E+02  0.22116366995E+02  0.51100000000E-03 0.  1.
        -12    1    3    3    0    0  0.60562707334E-01 -0.79657877120E+01  0.81439560543E+01  0.11392166692E+02  0.00000000000E+00 0.  1.
</event>
<event>
 7    1 -0.1246400E-009  0.4778727E+02  0.7816164E-02  0.1312668E+00
        -11   -1    0    0    0    0  0.00000000000E+00  0.00000000000E+00  0.45593999997E+02  0.45594000000E+02  0.51100000000E-03 0. -1.
         11   -1    0    0    0    0 -0.00000000000E+00 -0.00000000000E+00 -0.45593999997E+02  0.45594000000E+02  0.51100000000E-03 0.  1.
    9900012    2    1    2    0    0 -0.29007453852E+02 -0.32236166095E+02 -0.17379052589E+01  0.47787273069E+02  0.20000009230E+02 0.  0.
         12    1    1    2    0    0  0.29007453852E+02  0.32236166095E+02  0.17379052589E+01  0.43400726931E+02  0.00000000000E+00 0. -1.
         11    1    3    3    0    0 -0.59785898631E+00  0.10104199954E+01 -0.16268259892E+01  0.20062270547E+01  0.51100000000E-03 0. -1.
        -11    1    3    3    0    0 -0.11401033911E+02 -0.19213826464E+02  0.55397439191E+01  0.23018328883E+02  0.51100000000E-03 0.  1.
        -12    1    3    3    0    0 -0.17008560955E+02 -0.14032759626E+02 -0.56508231887E+01  0.22762717131E+02  0.00000000000E+00 0.  1.
</event>
<event>
 7    1  0.1293146E-009  0.4778733E+02  0.7816164E-02  0.1312668E+00
        -11   -1    0    0    0    0  0.00000000000E+00  0.00000000000E+00  0.45593999997E+02  0.45594000000E+02  0.51100000000E-03 0.  1.
         11   -1    0    0    0    0 -0.00000000000E+00 -0.00000000000E+00 -0.45593999997E+02  0.45594000000E+02  0.51100000000E-03 0. -1.
    9900012    2    1    2    0    0  0.43024098818E+02  0.48017053393E+01 -0.30803977474E+01  0.47787328306E+02  0.20000261076E+02 0.  0.
         12    1    1    2    0    0 -0.43024098818E+02 -0.48017053393E+01  0.30803977474E+01  0.43400671694E+02  0.00000000000E+00 0. -1.
         11    1    3    3    0    0  0.10894647239E+02 -0.85932646420E+00 -0.74710093295E+01  0.13238117733E+02  0.51100000000E-03 0. -1.
        -11    1    3    3    0    0  0.75491230564E+01  0.52892760917E+01  0.37682816837E+01  0.99581949973E+01  0.51100000000E-03 0.  1.
        -12    1    3    3    0    0  0.24580328522E+02  0.37175571176E+00  0.62232989839E+00  0.24591015576E+02  0.00000000000E+00 0.  1.
</event>
<event>
 7    1  0.1246400E-009  0.4778728E+02  0.7816164E-02  0.1312668E+00
        -11   -1    0    0    0    0  0.00000000000E+00  0.00000000000E+00  0.45593999997E+02  0.45594000000E+02  0.51100000000E-03 0. -1.
         11   -1    0    0    0    0 -0.00000000000E+00 -0.00000000000E+00 -0.45593999997E+02  0.45594000000E+02  0.51100000000E-03 0.  1.
    9900012    2    1    2    0    0  0.20243917769E+02 -0.38274729858E+02 -0.29751867102E+01  0.47787275487E+02  0.20000020253E+02 0.  0.
         12    1    1    2    0    0 -0.20243917769E+02  0.38274729858E+02  0.29751867102E+01  0.43400724513E+02  0.00000000000E+00 0. -1.
         11    1    3    3    0    0  0.95347173682E+01 -0.94530194348E+01 -0.53528021577E+01  0.14454165591E+02  0.51100000000E-03 0. -1.
        -11    1    3    3    0    0  0.12436891861E+02 -0.22868942215E+02  0.51606211778E+01  0.26538590927E+02  0.51100000000E-03 0.  1.
         12    1    3    3    0    0 -0.17276914602E+01 -0.59527682084E+01 -0.27830057302E+01  0.67945189690E+01  0.00000000000E+00 0. -1.
</event>
<event>
 7    1  0.1246400E-009  0.4778727E+02  0.7816164E-02  0.1312668E+00
        -11   -1    0    0    0    0  0.00000000000E+00  0.00000000000E+00  0.45593999997E+02  0.45594000000E+02  0.51100000000E-03 0. -1.
         11   -1    0    0    0    0 -0.00000000000E+00 -0.00000000000E+00 -0.45593999997E+02  0.45594000000E+02  0.51100000000E-03 0.  1.
    9900012    2    1    2    0    0 -0.21177615329E+02  0.28838738999E+02 -0.24565411110E+02  0.47787266353E+02  0.19999978611E+02 0.  0.
         12    1    1    2    0    0  0.21177615329E+02 -0.28838738999E+02  0.24565411110E+02  0.43400733647E+02  0.00000000000E+00 0. -1.
         11    1    3    3    0    0 -0.53066193409E+01 -0.17605539508E+00 -0.35035567100E+00  0.53210857622E+01  0.51100000000E-03 0. -1.
        -11    1    3    3    0    0  0.28014053162E+00  0.96247702179E+01 -0.73570940748E+01  0.12117818036E+02  0.51100000000E-03 0.  1.
        -12    1    3    3    0    0 -0.16151136519E+02  0.19390024176E+02 -0.16857961364E+02  0.30348362555E+02  0.00000000000E+00 0.  1.
</event>
<event>
 7    1  0.1246400E-009  0.4778727E+02  0.7816164E-02  0.1312668E+00
        -11   -1    0    0    0    0  0.00000000000E+00  0.00000000000E+00  0.45593999997E+02  0.45594000000E+02  0.51100000000E-03 0.  1.
         11   -1    0    0    0    0 -0.00000000000E+00 -0.00000000000E+00 -0.45593999997E+02  0.45594000000E+02  0.51100000000E-03 0. -1.
    9900012    2    1    2    0    0  0.26903712900E+01  0.30300402637E+02  0.30955948693E+02  0.47787271238E+02  0.20000000882E+02 0.  0.
         12    1    1    2    0    0 -0.26903712900E+01 -0.30300402637E+02 -0.30955948693E+02  0.43400728762E+02  0.00000000000E+00 0. -1.
         11    1    3    3    0    0  0.38872971097E+00 -0.37113699616E+00 -0.13889430245E+01  0.14893006561E+01  0.51100000000E-03 0. -1.
        -11    1    3    3    0    0  0.70298756887E+01  0.16052881831E+02  0.19976214047E+02  0.26573733181E+02  0.51100000000E-03 0.  1.
         12    1    3    3    0    0 -0.47282341097E+01  0.14618657801E+02  0.12368677670E+02  0.19724237400E+02  0.00000000000E+00 0. -1.
</event>
<event>
 7    1  0.1246400E-009  0.4778728E+02  0.7816164E-02  0.1312668E+00
        -11   -1    0    0    0    0  0.00000000000E+00  0.00000000000E+00  0.45593999997E+02  0.45594000000E+02  0.51100000000E-03 0.  1.
         11   -1    0    0    0    0 -0.00000000000E+00 -0.00000000000E+00 -0.45593999997E+02  0.45594000000E+02  0.51100000000E-03 0. -1.
    9900012    2    1    2    0    0  0.14919519623E+02  0.35867373961E+02  0.19353608523E+02  0.47787277154E+02  0.20000027858E+02 0.  0.
         12    1    1    2    0    0 -0.14919519623E+02 -0.35867373961E+02 -0.19353608523E+02  0.43400722846E+02  0.00000000000E+00 0. -1.
         11    1    3    3    0    0  0.11267362427E+02  0.25573707281E+02  0.39090963282E+01  0.28217884302E+02  0.51100000000E-03 0. -1.
        -11    1    3    3    0    0 -0.11102428996E+01  0.83719272061E+00  0.23407239708E+01  0.27225943355E+01  0.51100000000E-03 0.  1.
         12    1    3    3    0    0  0.47624000955E+01  0.94564739598E+01  0.13103788224E+02  0.16846798516E+02  0.00000000000E+00 0. -1.
</event>
<event>
 7    1  0.1246400E-009  0.4778728E+02  0.7816164E-02  0.1312668E+00
        -11   -1    0    0    0    0  0.00000000000E+00  0.00000000000E+00  0.45593999997E+02  0.45594000000E+02  0.51100000000E-03 0.  1.
         11   -1    0    0    0    0 -0.00000000000E+00 -0.00000000000E+00 -0.45593999997E+02  0.45594000000E+02  0.51100000000E-03 0. -1.
    9900012    2    1    2    0    0 -0.10052842933E+02 -0.50634872930E+01  0.41915671900E+02  0.47787284505E+02  0.20000061373E+02 0.  0.
         12    1    1    2    0    0  0.10052842933E+02  0.50634872930E+01 -0.41915671900E+02  0.43400715495E+02  0.00000000000E+00 0. -1.
         11    1    3    3    0    0 -0.90605926004E+01  0.57483743539E+01  0.25616759751E+02  0.27773306004E+02  0.51100000000E-03 0. -1.
        -11    1    3    3    0    0 -0.17731400439E+00 -0.30522906434E+01  0.17970153474E+01  0.35464324113E+01  0.51100000000E-03 0.  1.
         12    1    3    3    0    0 -0.81493632787E+00 -0.77595710035E+01  0.14501896802E+02  0.16467546090E+02  0.00000000000E+00 0. -1.
</event>
<event>
 7    1  0.1246400E-009  0.4778727E+02  0.7816164E-02  0.1312668E+00
        -11   -1    0    0    0    0  0.00000000000E+00  0.00000000000E+00  0.45593999997E+02  0.45594000000E+02  0.51100000000E-03 0.  1.
         11   -1    0    0    0    0 -0.00000000000E+00 -0.00000000000E+00 -0.45593999997E+02  0.45594000000E+02  0.51100000000E-03 0. -1.
    9900012    2    1    2    0    0  0.19398147468E+02 -0.49619693803E+01  0.38506025295E+02  0.47787271327E+02  0.20000001288E+02 0.  0.
         12    1    1    2    0    0 -0.19398147468E+02  0.49619693803E+01 -0.38506025295E+02  0.43400728673E+02  0.00000000000E+00 0. -1.
         11    1    3    3    0    0  0.12170831768E+02 -0.38114858718E+01  0.79069641970E+01  0.15005887296E+02  0.51100000000E-03 0. -1.
        -11    1    3    3    0    0  0.84645180000E+01 -0.32505615065E+01  0.20925972093E+02  0.22805931758E+02  0.51100000000E-03 0.  1.
        -12    1    3    3    0    0 -0.12372023003E+01  0.21000779980E+01  0.96730890057E+01  0.99754522725E+01  0.00000000000E+00 0.  1.
</event>
<event>
 7    1  0.1246400E-009  0.4778727E+02  0.7816164E-02  0.1312668E+00
        -11   -1    0    0    0    0  0.00000000000E+00  0.00000000000E+00  0.45593999997E+02  0.45594000000E+02  0.51100000000E-03 0. -1.
         11   -1    0    0    0    0 -0.00000000000E+00 -0.00000000000E+00 -0.45593999997E+02  0.45594000000E+02  0.51100000000E-03 0.  1.
    9900012    2    1    2    0    0  0.37433241568E+02  0.55177423559E+01  0.21258653960E+02  0.47787269324E+02  0.19999992156E+02 0.  0.
         12    1    1    2    0    0 -0.37433241568E+02 -0.55177423559E+01 -0.21258653960E+02  0.43400730676E+02  0.00000000000E+00 0. -1.
         11    1    3    3    0    0 -0.79223278802E+00  0.11341539158E+01  0.28825103652E+01  0.31973120213E+01  0.51100000000E-03 0. -1.
        -11    1    3    3    0    0  0.30646614578E+02  0.49643298834E+01  0.86166290564E+01  0.32219650104E+02  0.51100000000E-03 0.  1.
         12    1    3    3    0    0  0.75788597783E+01 -0.58074144334E+00  0.97595145382E+01  0.12370307199E+02  0.00000000000E+00 0. -1.
</event>
<event>
 7    1  0.1246400E-009  0.4778727E+02  0.7816164E-02  0.1312668E+00
        -11   -1    0    0    0    0  0.00000000000E+00  0.00000000000E+00  0.45593999997E+02  0.45594000000E+02  0.51100000000E-03 0.  1.
         11   -1    0    0    0    0 -0.00000000000E+00 -0.00000000000E+00 -0.45593999997E+02  0.45594000000E+02  0.51100000000E-03 0. -1.
    9900012    2    1    2    0    0  0.74241531473E+01 -0.22757972186E+02  0.36201933044E+02  0.47787270696E+02  0.19999998411E+02 0.  0.
         12    1    1    2    0    0 -0.74241531473E+01  0.22757972186E+02 -0.36201933044E+02  0.43400729304E+02  0.00000000000E+00 0. -1.
         11    1    3    3    0    0  0.30799247825E+01 -0.14245815152E+02  0.20424092292E+02  0.25091287975E+02  0.51100000000E-03 0. -1.
        -11    1    3    3    0    0 -0.37484412051E+01 -0.29902561487E+00  0.78471312836E+01  0.87015916607E+01  0.51100000000E-03 0.  1.
         12    1    3    3    0    0  0.80926695699E+01 -0.82131314190E+01  0.79307094689E+01  0.13994391060E+02  0.00000000000E+00 0. -1.
</event>
<event>
 7    1  0.1246400E-009  0.4778727E+02  0.7816164E-02  0.1312668E+00
        -11   -1    0    0    0    0  0.00000000000E+00  0.00000000000E+00  0.45593999997E+02  0.45594000000E+02  0.51100000000E-03 0. -1.
         11   -1    0    0    0    0 -0.00000000000E+00 -0.00000000000E+00 -0.45593999997E+02  0.45594000000E+02  0.51100000000E-03 0.  1.
    9900012    2    1    2    0    0  0.33286025893E+01 -0.43072636306E+02  0.41583284253E+01  0.47787270872E+02  0.19999999214E+02 0.  0.
         12    1    1    2    0    0 -0.33286025893E+01  0.43072636306E+02 -0.41583284253E+01  0.43400729128E+02  0.00000000000E+00 0. -1.
         11    1    3    3    0    0  0.47821073583E+00 -0.49392644444E+00  0.36095490220E+01  0.36744378133E+01  0.51100000000E-03 0. -1.
        -11    1    3    3    0    0  0.20848429971E+01 -0.26195676330E+02  0.57629943839E+01  0.26903013461E+02  0.51100000000E-03 0.  1.
         12    1    3    3    0    0  0.76554885639E+00 -0.16383033531E+02 -0.52142149805E+01  0.17209819598E+02  0.00000000000E+00 0. -1.
</event>
<event>
 7    1  0.1246400E-009  0.4778729E+02  0.7816164E-02  0.1312668E+00
        -11   -1    0    0    0    0  0.00000000000E+00  0.00000000000E+00  0.45593999997E+02  0.45594000000E+02  0.51100000000E-03 0.  1.
         11   -1    0    0    0    0 -0.00000000000E+00 -0.00000000000E+00 -0.45593999997E+02  0.45594000000E+02  0.51100000000E-03 0. -1.
    9900012    2    1    2    0    0 -0.38900325686E+02 -0.15420810045E+02  0.11514549839E+02  0.47787290571E+02  0.20000089031E+02 0.  0.
         12    1    1    2    0    0  0.38900325686E+02  0.15420810045E+02 -0.11514549839E+02  0.43400709429E+02  0.00000000000E+00 0. -1.
         11    1    3    3    0    0 -0.13296200989E+01 -0.24181153008E+01  0.23820457554E+01  0.36454510636E+01  0.51100000000E-03 0. -1.
        -11    1    3    3    0    0 -0.22009611174E+02  0.89740629787E+00  0.21200511016E+01  0.22129684567E+02  0.51100000000E-03 0.  1.
        -12    1    3    3    0    0 -0.15561094412E+02 -0.13900101042E+02  0.70124529825E+01  0.22012154941E+02  0.00000000000E+00 0.  1.
</event>
<event>
 7    1  0.1246400E-009  0.4778726E+02  0.7816164E-02  0.1312668E+00
        -11   -1    0    0    0    0  0.00000000000E+00  0.00000000000E+00  0.45593999997E+02  0.45594000000E+02  0.51100000000E-03 0.  1.
         11   -1    0    0    0    0 -0.00000000000E+00 -0.00000000000E+00 -0.45593999997E+02  0.45594000000E+02  0.51100000000E-03 0. -1.
    9900012    2    1    2    0    0  0.27018067186E+02 -0.31845642787E+02  0.11811149490E+02  0.47787260706E+02  0.19999952865E+02 0.  0.
         12    1    1    2    0    0 -0.27018067186E+02  0.31845642787E+02 -0.11811149490E+02  0.43400739294E+02  0.00000000000E+00 0. -1.
         11    1    3    3    0    0  0.42450356849E+01 -0.11732962134E+02  0.60407217895E+01  0.13862649401E+02  0.51100000000E-03 0. -1.
        -11    1    3    3    0    0  0.22854082453E+02 -0.21672569826E+02  0.43163614786E+01  0.31790570053E+02  0.51100000000E-03 0.  1.
         12    1    3    3    0    0 -0.81050951968E-01  0.15598891735E+01  0.14540662215E+01  0.21340412524E+01  0.00000000000E+00 0. -1.
</event>
<event>
 7    1  0.1246400E-009  0.4778727E+02  0.7816164E-02  0.1312668E+00
        -11   -1    0    0    0    0  0.00000000000E+00  0.00000000000E+00  0.45593999997E+02  0.45594000000E+02  0.51100000000E-03 0.  1.
         11   -1    0    0    0    0 -0.00000000000E+00 -0.00000000000E+00 -0.45593999997E+02  0.45594000000E+02  0.51100000000E-03 0. -1.
    9900012    2    1    2    0    0 -0.40037472358E+01 -0.22623974962E+02  0.36820497805E+02  0.47787270817E+02  0.19999998964E+02 0.  0.
         12    1    1    2    0    0  0.40037472358E+01  0.22623974962E+02 -0.36820497805E+02  0.43400729183E+02  0.00000000000E+00 0. -1.
         11    1    3    3    0    0  0.47941616954E-01 -0.84389294990E+00 -0.14032766939E+01  0.16381817513E+01  0.51100000000E-03 0. -1.
        -11    1    3    3    0    0 -0.81746773623E+01 -0.15013852288E+02  0.20214769390E+02  0.26474100782E+02  0.51100000000E-03 0.  1.
        -12    1    3    3    0    0  0.41229885095E+01 -0.67662297241E+01  0.18009005109E+02  0.19674988283E+02  0.00000000000E+00 0.  1.
</event>
<event>
 7    1  0.1246400E-009  0.4778725E+02  0.7816164E-02  0.1312668E+00
        -11   -1    0    0    0    0  0.00000000000E+00  0.00000000000E+00  0.45593999997E+02  0.45594000000E+02  0.51100000000E-03 0.  1.
         11   -1    0    0    0    0 -0.00000000000E+00 -0.00000000000E+00 -0.45593999997E+02  0.45594000000E+02  0.51100000000E-03 0. -1.
    9900012    2    1    2    0    0  0.36359280669E+02  0.19261673914E+02  0.13806370684E+02  0.47787248345E+02  0.19999896504E+02 0.  0.
         12    1    1    2    0    0 -0.36359280669E+02 -0.19261673914E+02 -0.13806370684E+02  0.43400751655E+02  0.00000000000E+00 0. -1.
         11    1    3    3    0    0  0.22930676326E+02  0.12713344142E+02  0.27609645461E+01  0.26364141586E+02  0.51100000000E-03 0. -1.
        -11    1    3    3    0    0  0.14725288681E+02  0.36363527386E+01  0.92067302893E+01  0.17743197876E+02  0.51100000000E-03 0.  1.
         12    1    3    3    0    0 -0.12966843382E+01  0.29119770332E+01  0.18386758488E+01  0.36799088836E+01  0.00000000000E+00 0. -1.
</event>
<event>
 7    1  0.1246400E-009  0.4778727E+02  0.7816164E-02  0.1312668E+00
        -11   -1    0    0    0    0  0.00000000000E+00  0.00000000000E+00  0.45593999997E+02  0.45594000000E+02  0.51100000000E-03 0.  1.
         11   -1    0    0    0    0 -0.00000000000E+00 -0.00000000000E+00 -0.45593999997E+02  0.45594000000E+02  0.51100000000E-03 0. -1.
    9900012    2    1    2    0    0 -0.23201251988E+02 -0.21014437360E+02  0.30061909045E+02  0.47787273660E+02  0.20000011928E+02 0.  0.
         12    1    1    2    0    0  0.23201251988E+02  0.21014437360E+02 -0.30061909045E+02  0.43400726340E+02  0.00000000000E+00 0. -1.
         11    1    3    3    0    0 -0.90166093895E+01 -0.17820550929E+02  0.98223544303E+01  0.22256458099E+02  0.51100000000E-03 0. -1.
        -11    1    3    3    0    0 -0.86439742949E+01 -0.39675917698E+01  0.96207046348E+01  0.13528415798E+02  0.51100000000E-03 0.  1.
         12    1    3    3    0    0 -0.55406683034E+01  0.77370533839E+00  0.10618849980E+02  0.12002399764E+02  0.00000000000E+00 0. -1.
</event>
<event>
 7    1  0.1246400E-009  0.4778727E+02  0.7816164E-02  0.1312668E+00
        -11   -1    0    0    0    0  0.00000000000E+00  0.00000000000E+00  0.45593999997E+02  0.45594000000E+02  0.51100000000E-03 0.  1.
         11   -1    0    0    0    0 -0.00000000000E+00 -0.00000000000E+00 -0.45593999997E+02  0.45594000000E+02  0.51100000000E-03 0. -1.
    9900012    2    1    2    0    0 -0.32226349901E+02 -0.21911781019E+02  0.19103909213E+02  0.47787272787E+02  0.20000007946E+02 0.  0.
         12    1    1    2    0    0  0.32226349901E+02  0.21911781019E+02 -0.19103909213E+02  0.43400727213E+02  0.00000000000E+00 0. -1.
         11    1    3    3    0    0 -0.13079813470E+02 -0.12835867633E+02  0.30771447314E+01  0.18582514315E+02  0.51100000000E-03 0. -1.
        -11    1    3    3    0    0 -0.15090986479E+02 -0.11640733370E+02  0.15104253205E+02  0.24318367779E+02  0.51100000000E-03 0.  1.
         12    1    3    3    0    0 -0.40555499514E+01  0.25648199831E+01  0.92251127700E+00  0.48863906935E+01  0.00000000000E+00 0. -1.
</event>
<event>
 7    1  0.1246400E-009  0.4778727E+02  0.7816164E-02  0.1312668E+00
        -11   -1    0    0    0    0  0.00000000000E+00  0.00000000000E+00  0.45593999997E+02  0.45594000000E+02  0.51100000000E-03 0.  1.
         11   -1    0    0    0    0 -0.00000000000E+00 -0.00000000000E+00 -0.45593999997E+02  0.45594000000E+02  0.51100000000E-03 0. -1.
    9900012    2    1    2    0    0 -0.77954043550E+01 -0.41330771392E+02  0.10706180192E+02  0.47787270890E+02  0.19999999297E+02 0.  0.
         12    1    1    2    0    0  0.77954043550E+01  0.41330771392E+02 -0.10706180192E+02  0.43400729110E+02  0.00000000000E+00 0. -1.
         11    1    3    3    0    0  0.16550806597E+01 -0.28154198118E+01 -0.25260654902E+01  0.41287876948E+01  0.51100000000E-03 0. -1.
        -11    1    3    3    0    0 -0.11358629550E+00 -0.25925931869E+02  0.85695030379E+01  0.27305736168E+02  0.51100000000E-03 0.  1.
        -12    1    3    3    0    0 -0.93368987192E+01 -0.12589419712E+02  0.46627426443E+01  0.16352747027E+02  0.00000000000E+00 0.  1.
</event>
<event>
 7    1  0.1246400E-009  0.4778727E+02  0.7816164E-02  0.1312668E+00
        -11   -1    0    0    0    0  0.00000000000E+00  0.00000000000E+00  0.45593999997E+02  0.45594000000E+02  0.51100000000E-03 0.  1.
         11   -1    0    0    0    0 -0.00000000000E+00 -0.00000000000E+00 -0.45593999997E+02  0.45594000000E+02  0.51100000000E-03 0. -1.
    9900012    2    1    2    0    0 -0.98267144665E+01  0.32302260826E+02  0.27269444664E+02  0.47787274384E+02  0.20000015226E+02 0.  0.
         12    1    1    2    0    0  0.98267144665E+01 -0.32302260826E+02 -0.27269444664E+02  0.43400725616E+02  0.00000000000E+00 0. -1.
         11    1    3    3    0    0 -0.16891185151E+01 -0.12031961249E+01 -0.11423914966E+01  0.23676699233E+01  0.51100000000E-03 0. -1.
        -11    1    3    3    0    0 -0.13540969219E+01  0.97813933824E+01  0.38346393515E+01  0.10593096535E+02  0.51100000000E-03 0.  1.
        -12    1    3    3    0    0 -0.67834990295E+01  0.23724063569E+02  0.24577196810E+02  0.34826507926E+02  0.00000000000E+00 0.  1.
</event>
<event>
 7    1  0.1246400E-009  0.4778728E+02  0.7816164E-02  0.1312668E+00
        -11   -1    0    0    0    0  0.00000000000E+00  0.00000000000E+00  0.45593999997E+02  0.45594000000E+02  0.51100000000E-03 0. -1.
         11   -1    0    0    0    0 -0.00000000000E+00 -0.00000000000E+00 -0.45593999997E+02  0.45594000000E+02  0.51100000000E-03 0.  1.
    9900012    2    1    2    0    0  0.41851733587E+02 -0.92101553929E+01 -0.68722633212E+01  0.47787279157E+02  0.20000036986E+02 0.  0.
         12    1    1    2    0    0 -0.41851733587E+02  0.92101553929E+01  0.68722633212E+01  0.43400720843E+02  0.00000000000E+00 0. -1.
         11    1    3    3    0    0  0.12328128746E+01 -0.32169488094E+01 -0.32517290596E+00  0.34603937501E+01  0.51100000000E-03 0. -1.
        -11    1    3    3    0    0  0.37019010692E+02 -0.42469280664E+00 -0.70125768444E+01  0.37679752532E+02  0.51100000000E-03 0.  1.
        -12    1    3    3    0    0  0.35999100198E+01 -0.55685137768E+01  0.46548642921E+00  0.66471328744E+01  0.00000000000E+00 0.  1.
</event>
<event>
 7    1  0.1246400E-009  0.4778727E+02  0.7816164E-02  0.1312668E+00
        -11   -1    0    0    0    0  0.00000000000E+00  0.00000000000E+00  0.45593999997E+02  0.45594000000E+02  0.51100000000E-03 0.  1.
         11   -1    0    0    0    0 -0.00000000000E+00 -0.00000000000E+00 -0.45593999997E+02  0.45594000000E+02  0.51100000000E-03 0. -1.
    9900012    2    1    2    0    0 -0.15022225345E+02 -0.27575408712E+01  0.40624524184E+02  0.47787271306E+02  0.20000001193E+02 0.  0.
         12    1    1    2    0    0  0.15022225345E+02  0.27575408712E+01 -0.40624524184E+02  0.43400728694E+02  0.00000000000E+00 0. -1.
         11    1    3    3    0    0  0.40047292370E+00 -0.61919041707E+00 -0.16929324476E+01  0.18465632587E+01  0.51100000000E-03 0. -1.
        -11    1    3    3    0    0 -0.92180569396E+01 -0.18932862565E+01  0.13464299548E+02  0.16426943391E+02  0.51100000000E-03 0.  1.
        -12    1    3    3    0    0 -0.62046413288E+01 -0.24506419771E+00  0.28853157084E+02  0.29513764657E+02  0.00000000000E+00 0.  1.
</event>
<event>
 7    1  0.1246400E-009  0.4778727E+02  0.7816164E-02  0.1312668E+00
        -11   -1    0    0    0    0  0.00000000000E+00  0.00000000000E+00  0.45593999997E+02  0.45594000000E+02  0.51100000000E-03 0.  1.
         11   -1    0    0    0    0 -0.00000000000E+00 -0.00000000000E+00 -0.45593999997E+02  0.45594000000E+02  0.51100000000E-03 0. -1.
    9900012    2    1    2    0    0  0.30093110229E+02  0.17009066911E+02  0.26243464645E+02  0.47787273313E+02  0.20000010342E+02 0.  0.
         12    1    1    2    0    0 -0.30093110229E+02 -0.17009066911E+02 -0.26243464645E+02  0.43400726687E+02  0.00000000000E+00 0. -1.
         11    1    3    3    0    0  0.61282398226E+01  0.72817542391E+01  0.10062698993E+01  0.95703629760E+01  0.51100000000E-03 0. -1.
        -11    1    3    3    0    0  0.52296445789E+01  0.54491818365E+01  0.15422413116E+01  0.77085195487E+01  0.51100000000E-03 0.  1.
        -12    1    3    3    0    0  0.18735225827E+02  0.42781308355E+01  0.23694953434E+02  0.30508390788E+02  0.00000000000E+00 0.  1.
</event>
<event>
 7    1  0.1246400E-009  0.4778728E+02  0.7816164E-02  0.1312668E+00
        -11   -1    0    0    0    0  0.00000000000E+00  0.00000000000E+00  0.45593999997E+02  0.45594000000E+02  0.51100000000E-03 0.  1.
         11   -1    0    0    0    0 -0.00000000000E+00 -0.00000000000E+00 -0.45593999997E+02  0.45594000000E+02  0.51100000000E-03 0. -1.
    9900012    2    1    2    0    0  0.38258896034E+02  0.20324858043E+02 -0.26038064755E+01  0.47787276638E+02  0.20000025503E+02 0.  0.
         12    1    1    2    0    0 -0.38258896034E+02 -0.20324858043E+02  0.26038064755E+01  0.43400723362E+02  0.00000000000E+00 0. -1.
         11    1    3    3    0    0  0.24236931930E+02  0.78106665902E+01 -0.81378299779E+01  0.26733119140E+02  0.51100000000E-03 0. -1.
        -11    1    3    3    0    0  0.13888586575E+02  0.10183851068E+02  0.27817765736E+01  0.17445398843E+02  0.51100000000E-03 0.  1.
         12    1    3    3    0    0  0.13337752931E+00  0.23303403841E+01  0.27522469287E+01  0.36087586547E+01  0.00000000000E+00 0. -1.
</event>
<event>
 7    1  0.1246400E-009  0.4778727E+02  0.7816164E-02  0.1312668E+00
        -11   -1    0    0    0    0  0.00000000000E+00  0.00000000000E+00  0.45593999997E+02  0.45594000000E+02  0.51100000000E-03 0.  1.
         11   -1    0    0    0    0 -0.00000000000E+00 -0.00000000000E+00 -0.45593999997E+02  0.45594000000E+02  0.51100000000E-03 0. -1.
    9900012    2    1    2    0    0  0.51046470243E+01  0.22182406065E+02  0.36952765631E+02  0.47787269040E+02  0.19999990862E+02 0.  0.
         12    1    1    2    0    0 -0.51046470243E+01 -0.22182406065E+02 -0.36952765631E+02  0.43400730960E+02  0.00000000000E+00 0. -1.
         11    1    3    3    0    0  0.48880613758E+01  0.57556199399E+01  0.21274937953E+02  0.22575280509E+02  0.51100000000E-03 0. -1.
        -11    1    3    3    0    0  0.21618734291E+01  0.16900538263E+02  0.15758176498E+02  0.23208231667E+02  0.51100000000E-03 0.  1.
        -12    1    3    3    0    0 -0.19452877807E+01 -0.47375213814E+00 -0.80348820063E-01  0.20037568642E+01  0.00000000000E+00 0.  1.
</event>
<event>
 7    1  0.1246400E-009  0.4778727E+02  0.7816164E-02  0.1312668E+00
        -11   -1    0    0    0    0  0.00000000000E+00  0.00000000000E+00  0.45593999997E+02  0.45594000000E+02  0.51100000000E-03 0. -1.
         11   -1    0    0    0    0 -0.00000000000E+00 -0.00000000000E+00 -0.45593999997E+02  0.45594000000E+02  0.51100000000E-03 0.  1.
    9900012    2    1    2    0    0 -0.32004494515E+02 -0.26802385221E+02  0.11872976373E+02  0.47787273155E+02  0.20000009624E+02 0.  0.
         12    1    1    2    0    0  0.32004494515E+02  0.26802385221E+02 -0.11872976373E+02  0.43400726845E+02  0.00000000000E+00 0. -1.
         11    1    3    3    0    0 -0.80986080971E+00 -0.24148969467E+01  0.71463885541E+01  0.75867299558E+01  0.51100000000E-03 0. -1.
        -11    1    3    3    0    0 -0.14098031823E+02 -0.12836839615E+02  0.43874422224E+01  0.19564984081E+02  0.51100000000E-03 0.  1.
         12    1    3    3    0    0 -0.17096601883E+02 -0.11550648659E+02  0.33914559656E+00  0.20635559118E+02  0.00000000000E+00 0. -1.
</event>
<event>
 7    1  0.1246400E-009  0.4778728E+02  0.7816164E-02  0.1312668E+00
        -11   -1    0    0    0    0  0.00000000000E+00  0.00000000000E+00  0.45593999997E+02  0.45594000000E+02  0.51100000000E-03 0.  1.
         11   -1    0    0    0    0 -0.00000000000E+00 -0.00000000000E+00 -0.45593999997E+02  0.45594000000E+02  0.51100000000E-03 0. -1.
    9900012    2    1    2    0    0 -0.17625378976E+01 -0.83704139213E+01  0.42549408914E+02  0.47787279177E+02  0.20000037080E+02 0.  0.
         12    1    1    2    0    0  0.17625378976E+01  0.83704139213E+01 -0.42549408914E+02  0.43400720823E+02  0.00000000000E+00 0. -1.
         11    1    3    3    0    0 -0.44106900926E+01  0.73831197967E+00  0.75214079956E+01  0.87504782823E+01  0.51100000000E-03 0. -1.
        -11    1    3    3    0    0  0.55581467817E+01 -0.28856578702E+01  0.29672319893E+02  0.30326005096E+02  0.51100000000E-03 0.  1.
        -12    1    3    3    0    0 -0.29099945866E+01 -0.62230680308E+01  0.53556810254E+01  0.87107957993E+01  0.00000000000E+00 0.  1.
</event>
<event>
 7    1  0.1246400E-009  0.4778727E+02  0.7816164E-02  0.1312668E+00
        -11   -1    0    0    0    0  0.00000000000E+00  0.00000000000E+00  0.45593999997E+02  0.45594000000E+02  0.51100000000E-03 0.  1.
         11   -1    0    0    0    0 -0.00000000000E+00 -0.00000000000E+00 -0.45593999997E+02  0.45594000000E+02  0.51100000000E-03 0. -1.
    9900012    2    1    2    0    0  0.31475983362E+02 -0.24077834762E+02 -0.17695859940E+02  0.47787272881E+02  0.20000008373E+02 0.  0.
         12    1    1    2    0    0 -0.31475983362E+02  0.24077834762E+02  0.17695859940E+02  0.43400727119E+02  0.00000000000E+00 0. -1.
         11    1    3    3    0    0  0.31396467104E+01 -0.12268127161E+02 -0.72934719124E+01  0.14613659990E+02  0.51100000000E-03 0.  1.
        -11    1    3    3    0    0  0.11730336411E+02 -0.27911598594E+01 -0.70922447278E+01  0.13988970699E+02  0.51100000000E-03 0. -1.
        -12    1    3    3    0    0  0.16606000241E+02 -0.90185477416E+01 -0.33101432999E+01  0.19184642192E+02  0.00000000000E+00 0.  1.
</event>
<event>
 7    1  0.1246400E-009  0.4778727E+02  0.7816164E-02  0.1312668E+00
        -11   -1    0    0    0    0  0.00000000000E+00  0.00000000000E+00  0.45593999997E+02  0.45594000000E+02  0.51100000000E-03 0.  1.
         11   -1    0    0    0    0 -0.00000000000E+00 -0.00000000000E+00 -0.45593999997E+02  0.45594000000E+02  0.51100000000E-03 0. -1.
    9900012    2    1    2    0    0  0.39633085366E+02 -0.30633569764E+01  0.17420034847E+02  0.47787271600E+02  0.20000002532E+02 0.  0.
         12    1    1    2    0    0 -0.39633085366E+02  0.30633569764E+01 -0.17420034847E+02  0.43400728400E+02  0.00000000000E+00 0. -1.
         11    1    3    3    0    0  0.51177228940E+01 -0.48031665308E+01  0.36887674920E+01  0.79289660242E+01  0.51100000000E-03 0. -1.
        -11    1    3    3    0    0  0.34888496622E+02  0.68897802840E+00  0.15159826141E+02  0.38046053884E+02  0.51100000000E-03 0.  1.
         12    1    3    3    0    0 -0.37313414968E+00  0.10508315260E+01 -0.14285587859E+01  0.18122516918E+01  0.00000000000E+00 0. -1.
</event>
<event>
 7    1  0.1246400E-009  0.4778727E+02  0.7816164E-02  0.1312668E+00
        -11   -1    0    0    0    0  0.00000000000E+00  0.00000000000E+00  0.45593999997E+02  0.45594000000E+02  0.51100000000E-03 0.  1.
         11   -1    0    0    0    0 -0.00000000000E+00 -0.00000000000E+00 -0.45593999997E+02  0.45594000000E+02  0.51100000000E-03 0. -1.
    9900012    2    1    2    0    0 -0.31233483763E+02 -0.17372025668E+02  0.24623272558E+02  0.47787270337E+02  0.19999996777E+02 0.  0.
         12    1    1    2    0    0  0.31233483763E+02  0.17372025668E+02 -0.24623272558E+02  0.43400729663E+02  0.00000000000E+00 0. -1.
         11    1    3    3    0    0 -0.12970213082E+02  0.20816711284E+01  0.94821284325E+01  0.16200942626E+02  0.51100000000E-03 0. -1.
        -11    1    3    3    0    0 -0.24011381545E+01 -0.65398562413E+01  0.59509284022E+01  0.91623541299E+01  0.51100000000E-03 0.  1.
        -12    1    3    3    0    0 -0.15862132526E+02 -0.12913840555E+02  0.91902157232E+01  0.22423973582E+02  0.00000000000E+00 0.  1.
</event>
<event>
 7    1  0.1246400E-009  0.4778728E+02  0.7816164E-02  0.1312668E+00
        -11   -1    0    0    0    0  0.00000000000E+00  0.00000000000E+00  0.45593999997E+02  0.45594000000E+02  0.51100000000E-03 0. -1.
         11   -1    0    0    0    0 -0.00000000000E+00 -0.00000000000E+00 -0.45593999997E+02  0.45594000000E+02  0.51100000000E-03 0.  1.
    9900012    2    1    2    0    0 -0.28930091927E+02  0.26947442136E+02 -0.17902732781E+02  0.47787277683E+02  0.20000030268E+02 0.  0.
         12    1    1    2    0    0  0.28930091927E+02 -0.26947442136E+02  0.17902732781E+02  0.43400722317E+02  0.00000000000E+00 0. -1.
         11    1    3    3    0    0 -0.71629170999E+01  0.10103560695E+02 -0.47283267461E+01  0.13256937587E+02  0.51100000000E-03 0. -1.
        -11    1    3    3    0    0 -0.16736881888E+02  0.15104286014E+02 -0.26028092640E+01  0.22694432966E+02  0.51100000000E-03 0.  1.
         12    1    3    3    0    0 -0.50302929390E+01  0.17395954275E+01 -0.10571596771E+02  0.11835907130E+02  0.00000000000E+00 0. -1.
</event>
<event>
 7    1  0.1246400E-009  0.4778728E+02  0.7816164E-02  0.1312668E+00
        -11   -1    0    0    0    0  0.00000000000E+00  0.00000000000E+00  0.45593999997E+02  0.45594000000E+02  0.51100000000E-03 0.  1.
         11   -1    0    0    0    0 -0.00000000000E+00 -0.00000000000E+00 -0.45593999997E+02  0.45594000000E+02  0.51100000000E-03 0. -1.
    9900012    2    1    2    0    0  0.19484701964E+02 -0.33462556132E+02  0.19601692991E+02  0.47787278329E+02  0.20000033212E+02 0.  0.
         12    1    1    2    0    0 -0.19484701964E+02  0.33462556132E+02 -0.19601692991E+02  0.43400721671E+02  0.00000000000E+00 0. -1.
         11    1    3    3    0    0 -0.22102502515E+01 -0.48861802437E+01  0.52109033079E+01  0.74775314839E+01  0.51100000000E-03 0. -1.
        -11    1    3    3    0    0  0.11915143560E+02 -0.19256644355E+02  0.34091600030E+01  0.22900029914E+02  0.51100000000E-03 0.  1.
         12    1    3    3    0    0  0.97798086547E+01 -0.93197315324E+01  0.10981629680E+02  0.17409716930E+02  0.00000000000E+00 0. -1.
</event>
<event>
 7    1  0.1246400E-009  0.4778727E+02  0.7816164E-02  0.1312668E+00
        -11   -1    0    0    0    0  0.00000000000E+00  0.00000000000E+00  0.45593999997E+02  0.45594000000E+02  0.51100000000E-03 0. -1.
         11   -1    0    0    0    0 -0.00000000000E+00 -0.00000000000E+00 -0.45593999997E+02  0.45594000000E+02  0.51100000000E-03 0.  1.
    9900012    2    1    2    0    0  0.14655763720E+02 -0.37190599105E+02  0.16902417097E+02  0.47787265263E+02  0.19999973640E+02 0.  0.
         12    1    1    2    0    0 -0.14655763720E+02  0.37190599105E+02 -0.16902417097E+02  0.43400734737E+02  0.00000000000E+00 0. -1.
         11    1    3    3    0    0  0.84615814854E-02 -0.24805853322E+02  0.12401060824E+02  0.27732954052E+02  0.51100000000E-03 0. -1.
        -11    1    3    3    0    0  0.68304151547E+01 -0.81230869857E+01  0.29656587889E+01  0.11019720762E+02  0.51100000000E-03 0.  1.
         12    1    3    3    0    0  0.78168869837E+01 -0.42616587977E+01  0.15356974840E+01  0.90345904493E+01  0.00000000000E+00 0. -1.
</event>
<event>
 7    1  0.1246400E-009  0.4778727E+02  0.7816164E-02  0.1312668E+00
        -11   -1    0    0    0    0  0.00000000000E+00  0.00000000000E+00  0.45593999997E+02  0.45594000000E+02  0.51100000000E-03 0.  1.
         11   -1    0    0    0    0 -0.00000000000E+00 -0.00000000000E+00 -0.45593999997E+02  0.45594000000E+02  0.51100000000E-03 0. -1.
    9900012    2    1    2    0    0  0.19757600731E+02  0.17510492438E+02  0.34447687622E+02  0.47787270576E+02  0.19999997862E+02 0.  0.
         12    1    1    2    0    0 -0.19757600731E+02 -0.17510492438E+02 -0.34447687622E+02  0.43400729424E+02  0.00000000000E+00 0. -1.
         11    1    3    3    0    0  0.69783928044E+01  0.18674486770E+01  0.36560353675E+01  0.80964143646E+01  0.51100000000E-03 0. -1.
        -11    1    3    3    0    0 -0.11007996137E+01  0.79089967340E+01  0.16452850574E+02  0.18288255286E+02  0.51100000000E-03 0.  1.
        -12    1    3    3    0    0  0.13880007540E+02  0.77340470273E+01  0.14338801681E+02  0.21402600925E+02  0.00000000000E+00 0.  1.
</event>
<event>
 7    1  0.1246400E-009  0.4778726E+02  0.7816164E-02  0.1312668E+00
        -11   -1    0    0    0    0  0.00000000000E+00  0.00000000000E+00  0.45593999997E+02  0.45594000000E+02  0.51100000000E-03 0.  1.
         11   -1    0    0    0    0 -0.00000000000E+00 -0.00000000000E+00 -0.45593999997E+02  0.45594000000E+02  0.51100000000E-03 0. -1.
    9900012    2    1    2    0    0 -0.61721355659E+01 -0.46026726091E+01  0.42712340220E+02  0.47787264296E+02  0.19999969232E+02 0.  0.
         12    1    1    2    0    0  0.61721355659E+01  0.46026726091E+01 -0.42712340220E+02  0.43400735704E+02  0.00000000000E+00 0. -1.
         11    1    3    3    0    0 -0.41416311267E+01  0.21891734376E+01  0.17661862550E+02  0.18272574469E+02  0.51100000000E-03 0. -1.
        -11    1    3    3    0    0 -0.47745705518E+01 -0.45523132619E+01  0.25120259917E+02  0.25972053029E+02  0.51100000000E-03 0.  1.
         12    1    3    3    0    0  0.27440661126E+01 -0.22395327848E+01 -0.69782246869E-01  0.35426367986E+01  0.00000000000E+00 0. -1.
</event>
<event>
 7    1  0.1246400E-009  0.4778728E+02  0.7816164E-02  0.1312668E+00
        -11   -1    0    0    0    0  0.00000000000E+00  0.00000000000E+00  0.45593999997E+02  0.45594000000E+02  0.51100000000E-03 0. -1.
         11   -1    0    0    0    0 -0.00000000000E+00 -0.00000000000E+00 -0.45593999997E+02  0.45594000000E+02  0.51100000000E-03 0.  1.
    9900012    2    1    2    0    0 -0.18043240897E+01 -0.27297186533E+02 -0.33693186582E+02  0.47787276503E+02  0.20000024886E+02 0.  0.
         12    1    1    2    0    0  0.18043240897E+01  0.27297186533E+02  0.33693186582E+02  0.43400723497E+02  0.00000000000E+00 0. -1.
         11    1    3    3    0    0  0.48170967884E+01 -0.60766302325E+01 -0.57737026284E+01  0.96677556213E+01  0.51100000000E-03 0. -1.
        -11    1    3    3    0    0 -0.95480907698E+01 -0.86484568516E+01 -0.11813690323E+02  0.17479276947E+02  0.51100000000E-03 0.  1.
        -12    1    3    3    0    0  0.29266698918E+01 -0.12572099449E+02 -0.16105793630E+02  0.20640243935E+02  0.00000000000E+00 0.  1.
</event>
<event>
 7    1  0.1246400E-009  0.4778727E+02  0.7816164E-02  0.1312668E+00
        -11   -1    0    0    0    0  0.00000000000E+00  0.00000000000E+00  0.45593999997E+02  0.45594000000E+02  0.51100000000E-03 0.  1.
         11   -1    0    0    0    0 -0.00000000000E+00 -0.00000000000E+00 -0.45593999997E+02  0.45594000000E+02  0.51100000000E-03 0. -1.
    9900012    2    1    2    0    0  0.19745173534E+02 -0.36762553217E+02  0.11927528090E+02  0.47787272780E+02  0.20000007912E+02 0.  0.
         12    1    1    2    0    0 -0.19745173534E+02  0.36762553217E+02 -0.11927528090E+02  0.43400727220E+02  0.00000000000E+00 0. -1.
         11    1    3    3    0    0  0.14151132349E+02 -0.22452940523E+02  0.95027693943E+01  0.28190276893E+02  0.51100000000E-03 0.  1.
        -11    1    3    3    0    0 -0.19490442641E+01 -0.52202807566E+01  0.50240731213E+01  0.75027605394E+01  0.51100000000E-03 0. -1.
        -12    1    3    3    0    0  0.75430854482E+01 -0.90893319374E+01 -0.25993144252E+01  0.12094235347E+02  0.00000000000E+00 0.  1.
</event>
<event>
 7    1  0.1246400E-009  0.4778727E+02  0.7816164E-02  0.1312668E+00
        -11   -1    0    0    0    0  0.00000000000E+00  0.00000000000E+00  0.45593999997E+02  0.45594000000E+02  0.51100000000E-03 0.  1.
         11   -1    0    0    0    0 -0.00000000000E+00 -0.00000000000E+00 -0.45593999997E+02  0.45594000000E+02  0.51100000000E-03 0. -1.
    9900012    2    1    2    0    0  0.20160540969E+02 -0.38433533715E+02 -0.19844051524E+00  0.47787270690E+02  0.19999998384E+02 0.  0.
         12    1    1    2    0    0 -0.20160540969E+02  0.38433533715E+02  0.19844051524E+00  0.43400729310E+02  0.00000000000E+00 0. -1.
         11    1    3    3    0    0  0.17925253990E+02 -0.25466067612E+02  0.17586352484E+01  0.31191795851E+02  0.51100000000E-03 0. -1.
        -11    1    3    3    0    0  0.51427973740E+01 -0.11235635444E+02  0.57313572409E+00  0.12369977910E+02  0.51100000000E-03 0.  1.
         12    1    3    3    0    0 -0.29075103946E+01 -0.17318306584E+01 -0.25302114878E+01  0.42254969290E+01  0.00000000000E+00 0. -1.
</event>
<event>
 7    1  0.1246400E-009  0.4778727E+02  0.7816164E-02  0.1312668E+00
        -11   -1    0    0    0    0  0.00000000000E+00  0.00000000000E+00  0.45593999997E+02  0.45594000000E+02  0.51100000000E-03 0.  1.
         11   -1    0    0    0    0 -0.00000000000E+00 -0.00000000000E+00 -0.45593999997E+02  0.45594000000E+02  0.51100000000E-03 0. -1.
    9900012    2    1    2    0    0 -0.42309979374E+01 -0.13250419474E+02  0.41111412592E+02  0.47787271836E+02  0.20000003611E+02 0.  0.
         12    1    1    2    0    0  0.42309979374E+01  0.13250419474E+02 -0.41111412592E+02  0.43400728164E+02  0.00000000000E+00 0. -1.
         11    1    3    3    0    0 -0.21089974388E+00 -0.10269783467E+02  0.11929424391E+02  0.15742429855E+02  0.51100000000E-03 0. -1.
        -11    1    3    3    0    0 -0.57335192440E+01 -0.67319671450E+01  0.16661378697E+02  0.18862506856E+02  0.51100000000E-03 0.  1.
         12    1    3    3    0    0  0.17134210505E+01  0.37513311377E+01  0.12520609504E+02  0.13182335125E+02  0.00000000000E+00 0. -1.
</event>
<event>
 7    1  0.1246400E-009  0.4778727E+02  0.7816164E-02  0.1312668E+00
        -11   -1    0    0    0    0  0.00000000000E+00  0.00000000000E+00  0.45593999997E+02  0.45594000000E+02  0.51100000000E-03 0. -1.
         11   -1    0    0    0    0 -0.00000000000E+00 -0.00000000000E+00 -0.45593999997E+02  0.45594000000E+02  0.51100000000E-03 0.  1.
    9900012    2    1    2    0    0 -0.14290147328E+02 -0.37661573914E+02 -0.16156138932E+02  0.47787270910E+02  0.19999999387E+02 0.  0.
         12    1    1    2    0    0  0.14290147328E+02  0.37661573914E+02  0.16156138932E+02  0.43400729090E+02  0.00000000000E+00 0. -1.
         11    1    3    3    0    0  0.51972281265E+00 -0.46532049711E+01 -0.21512533447E+01  0.51527002163E+01  0.51100000000E-03 0.  1.
        -11    1    3    3    0    0  0.31855538270E+01 -0.63992242704E+01 -0.64660842681E+01  0.96388832585E+01  0.51100000000E-03 0. -1.
         12    1    3    3    0    0 -0.17995423967E+02 -0.26609144673E+02 -0.75388013191E+01  0.32995687435E+02  0.00000000000E+00 0. -1.
</event>
<event>
 7    1  0.1246400E-009  0.4778729E+02  0.7816164E-02  0.1312668E+00
        -11   -1    0    0    0    0  0.00000000000E+00  0.00000000000E+00  0.45593999997E+02  0.45594000000E+02  0.51100000000E-03 0.  1.
         11   -1    0    0    0    0 -0.00000000000E+00 -0.00000000000E+00 -0.45593999997E+02  0.45594000000E+02  0.51100000000E-03 0. -1.
    9900012    2    1    2    0    0  0.56798511167E+01  0.96735128765E+01  0.41925932476E+02  0.47787292931E+02  0.20000099791E+02 0.  0.
         12    1    1    2    0    0 -0.56798511167E+01 -0.96735128765E+01 -0.41925932476E+02  0.43400707069E+02  0.00000000000E+00 0. -1.
         11    1    3    3    0    0  0.38839044560E+01  0.79530700482E+00  0.17002988827E+02  0.17459062300E+02  0.51100000000E-03 0. -1.
        -11    1    3    3    0    0  0.51467791061E+00  0.21902078038E+01  0.23193576481E+02  0.23302443945E+02  0.51100000000E-03 0.  1.
         12    1    3    3    0    0  0.12812687501E+01  0.66879980679E+01  0.17293671674E+01  0.70257866866E+01  0.00000000000E+00 0. -1.
</event>
<event>
 7    1  0.1246400E-009  0.4778727E+02  0.7816164E-02  0.1312668E+00
        -11   -1    0    0    0    0  0.00000000000E+00  0.00000000000E+00  0.45593999997E+02  0.45594000000E+02  0.51100000000E-03 0.  1.
         11   -1    0    0    0    0 -0.00000000000E+00 -0.00000000000E+00 -0.45593999997E+02  0.45594000000E+02  0.51100000000E-03 0. -1.
    9900012    2    1    2    0    0  0.25630798410E+02 -0.34885186343E+02 -0.31160410054E+01  0.47787265388E+02  0.19999974209E+02 0.  0.
         12    1    1    2    0    0 -0.25630798410E+02  0.34885186343E+02  0.31160410054E+01  0.43400734612E+02  0.00000000000E+00 0. -1.
         11    1    3    3    0    0  0.22999552956E+02 -0.28703906717E+02  0.37387779621E+01  0.36971234195E+02  0.51100000000E-03 0.  1.
        -11    1    3    3    0    0 -0.12244246863E+01 -0.18836835029E+01 -0.64634826067E+00  0.23377864930E+01  0.51100000000E-03 0. -1.
        -12    1    3    3    0    0  0.38556701403E+01 -0.42975961237E+01 -0.62084707069E+01  0.84782446999E+01  0.00000000000E+00 0.  1.
</event>
<event>
 7    1  0.1246400E-009  0.4778728E+02  0.7816164E-02  0.1312668E+00
        -11   -1    0    0    0    0  0.00000000000E+00  0.00000000000E+00  0.45593999997E+02  0.45594000000E+02  0.51100000000E-03 0.  1.
         11   -1    0    0    0    0 -0.00000000000E+00 -0.00000000000E+00 -0.45593999997E+02  0.45594000000E+02  0.51100000000E-03 0. -1.
    9900012    2    1    2    0    0  0.11668381618E+02  0.61361060820E+00  0.41798268013E+02  0.47787275853E+02  0.20000021925E+02 0.  0.
         12    1    1    2    0    0 -0.11668381618E+02 -0.61361060820E+00 -0.41798268013E+02  0.43400724147E+02  0.00000000000E+00 0. -1.
         11    1    3    3    0    0 -0.41150201571E+01 -0.10235138300E+01  0.12192860693E+02  0.12909175945E+02  0.51100000000E-03 0. -1.
        -11    1    3    3    0    0  0.75170628025E+01  0.47368022931E+01  0.19690761035E+02  0.21602536878E+02  0.51100000000E-03 0.  1.
        -12    1    3    3    0    0  0.82663389724E+01 -0.30996778549E+01  0.99146462854E+01  0.13275563030E+02  0.00000000000E+00 0.  1.
</event>
<event>
 7    1  0.1246400E-009  0.4778727E+02  0.7816164E-02  0.1312668E+00
        -11   -1    0    0    0    0  0.00000000000E+00  0.00000000000E+00  0.45593999997E+02  0.45594000000E+02  0.51100000000E-03 0. -1.
         11   -1    0    0    0    0 -0.00000000000E+00 -0.00000000000E+00 -0.45593999997E+02  0.45594000000E+02  0.51100000000E-03 0.  1.
    9900012    2    1    2    0    0 -0.81580862197E+01  0.16794651691E+02 -0.39179187340E+02  0.47787269398E+02  0.19999992493E+02 0.  0.
         12    1    1    2    0    0  0.81580862197E+01 -0.16794651691E+02  0.39179187340E+02  0.43400730602E+02  0.00000000000E+00 0. -1.
         11    1    3    3    0    0  0.15755415130E+01  0.12600920468E+01 -0.43489563946E+01  0.47941198367E+01  0.51100000000E-03 0. -1.
        -11    1    3    3    0    0  0.35809512940E+00  0.64520790585E+01 -0.26014680601E+02  0.26805245071E+02  0.51100000000E-03 0.  1.
         12    1    3    3    0    0 -0.10091722862E+02  0.90824805853E+01 -0.88155503448E+01  0.16187904490E+02  0.00000000000E+00 0. -1.
</event>
<event>
 7    1  0.1246400E-009  0.4778722E+02  0.7816164E-02  0.1312668E+00
        -11   -1    0    0    0    0  0.00000000000E+00  0.00000000000E+00  0.45593999997E+02  0.45594000000E+02  0.51100000000E-03 0.  1.
         11   -1    0    0    0    0 -0.00000000000E+00 -0.00000000000E+00 -0.45593999997E+02  0.45594000000E+02  0.51100000000E-03 0. -1.
    9900012    2    1    2    0    0 -0.26057936856E+02  0.25329327793E+02  0.23728405171E+02  0.47787215081E+02  0.19999744839E+02 0.  0.
         12    1    1    2    0    0  0.26057936856E+02 -0.25329327793E+02 -0.23728405171E+02  0.43400784919E+02  0.00000000000E+00 0. -1.
         11    1    3    3    0    0  0.50828450322E+00  0.70604059420E+00 -0.32581162760E+00  0.92897789784E+00  0.51100000000E-03 0. -1.
        -11    1    3    3    0    0 -0.17890810885E+02  0.25734331739E+02  0.17240279378E+02  0.35770996317E+02  0.51100000000E-03 0.  1.
         12    1    3    3    0    0 -0.86754104738E+01 -0.11110445405E+01  0.68139374207E+01  0.11087240867E+02  0.00000000000E+00 0. -1.
</event>
<event>
 7    1  0.1246400E-009  0.4778727E+02  0.7816164E-02  0.1312668E+00
        -11   -1    0    0    0    0  0.00000000000E+00  0.00000000000E+00  0.45593999997E+02  0.45594000000E+02  0.51100000000E-03 0. -1.
         11   -1    0    0    0    0 -0.00000000000E+00 -0.00000000000E+00 -0.45593999997E+02  0.45594000000E+02  0.51100000000E-03 0.  1.
    9900012    2    1    2    0    0 -0.35121610255E+01 -0.39956904761E+02 -0.16575100679E+02  0.47787268720E+02  0.19999989400E+02 0.  0.
         12    1    1    2    0    0  0.35121610255E+01  0.39956904761E+02  0.16575100679E+02  0.43400731280E+02  0.00000000000E+00 0. -1.
         11    1    3    3    0    0  0.32198699898E+01 -0.10665517153E+02 -0.75357786925E+01  0.13450233443E+02  0.51100000000E-03 0.  1.
        -11    1    3    3    0    0 -0.74666094547E+01 -0.29941830315E+02 -0.10483657518E+02  0.32590957866E+02  0.51100000000E-03 0. -1.
         12    1    3    3    0    0  0.73457843939E+00  0.65044270765E+00  0.14443355313E+01  0.17460774114E+01  0.00000000000E+00 0. -1.
</event>
<event>
 7    1  0.1246400E-009  0.4778727E+02  0.7816164E-02  0.1312668E+00
        -11   -1    0    0    0    0  0.00000000000E+00  0.00000000000E+00  0.45593999997E+02  0.45594000000E+02  0.51100000000E-03 0. -1.
         11   -1    0    0    0    0 -0.00000000000E+00 -0.00000000000E+00 -0.45593999997E+02  0.45594000000E+02  0.51100000000E-03 0.  1.
    9900012    2    1    2    0    0  0.11321320866E+02  0.35716162925E+02 -0.21904489477E+02  0.47787271210E+02  0.20000000756E+02 0.  0.
         12    1    1    2    0    0 -0.11321320866E+02 -0.35716162925E+02  0.21904489477E+02  0.43400728790E+02  0.00000000000E+00 0. -1.
         11    1    3    3    0    0  0.30083569981E+01 -0.11966516994E+01 -0.17258150923E+01  0.36688724578E+01  0.51100000000E-03 0. -1.
        -11    1    3    3    0    0  0.15306130117E+01  0.20504731282E+02 -0.60651939419E+01  0.21437662161E+02  0.51100000000E-03 0.  1.
        -12    1    3    3    0    0  0.67823508561E+01  0.16408083343E+02 -0.14113480442E+02  0.22680736591E+02  0.00000000000E+00 0.  1.
</event>
<event>
 7    1  0.1246400E-009  0.4778727E+02  0.7816164E-02  0.1312668E+00
        -11   -1    0    0    0    0  0.00000000000E+00  0.00000000000E+00  0.45593999997E+02  0.45594000000E+02  0.51100000000E-03 0.  1.
         11   -1    0    0    0    0 -0.00000000000E+00 -0.00000000000E+00 -0.45593999997E+02  0.45594000000E+02  0.51100000000E-03 0. -1.
    9900012    2    1    2    0    0 -0.20160651839E+02  0.26949005371E+01  0.38339392644E+02  0.47787269594E+02  0.19999993385E+02 0.  0.
         12    1    1    2    0    0  0.20160651839E+02 -0.26949005371E+01 -0.38339392644E+02  0.43400730406E+02  0.00000000000E+00 0. -1.
         11    1    3    3    0    0 -0.33339976875E+01 -0.60097163374E+00  0.35768851744E+00  0.34065596754E+01  0.51100000000E-03 0. -1.
        -11    1    3    3    0    0 -0.14129935256E+02  0.88638640881E+01  0.25885140848E+02  0.30793890204E+02  0.51100000000E-03 0.  1.
         12    1    3    3    0    0 -0.26967188957E+01 -0.55679919172E+01  0.12096563278E+02  0.13586819714E+02  0.00000000000E+00 0. -1.
</event>
<event>
 7    1  0.1246400E-009  0.4778727E+02  0.7816164E-02  0.1312668E+00
        -11   -1    0    0    0    0  0.00000000000E+00  0.00000000000E+00  0.45593999997E+02  0.45594000000E+02  0.51100000000E-03 0.  1.
         11   -1    0    0    0    0 -0.00000000000E+00 -0.00000000000E+00 -0.45593999997E+02  0.45594000000E+02  0.51100000000E-03 0. -1.
    9900012    2    1    2    0    0 -0.36848581898E+01  0.23511379473E+02  0.36294079819E+02  0.47787269885E+02  0.19999994714E+02 0.  0.
         12    1    1    2    0    0  0.36848581898E+01 -0.23511379473E+02 -0.36294079819E+02  0.43400730115E+02  0.00000000000E+00 0. -1.
         11    1    3    3    0    0  0.36563751963E+00  0.63013853385E+01  0.78538175374E+01  0.10075891928E+02  0.51100000000E-03 0. -1.
        -11    1    3    3    0    0 -0.21629638878E+00  0.12047730121E+02  0.28852703102E+02  0.31267763939E+02  0.51100000000E-03 0.  1.
         12    1    3    3    0    0 -0.38341993207E+01  0.51622640142E+01 -0.41244082052E+00  0.64436140181E+01  0.00000000000E+00 0. -1.
</event>
<event>
 7    1  0.1246400E-009  0.4778727E+02  0.7816164E-02  0.1312668E+00
        -11   -1    0    0    0    0  0.00000000000E+00  0.00000000000E+00  0.45593999997E+02  0.45594000000E+02  0.51100000000E-03 0. -1.
         11   -1    0    0    0    0 -0.00000000000E+00 -0.00000000000E+00 -0.45593999997E+02  0.45594000000E+02  0.51100000000E-03 0.  1.
    9900012    2    1    2    0    0 -0.31969792975E+02  0.24881613436E+02  0.15571156523E+02  0.47787271141E+02  0.20000000439E+02 0.  0.
         12    1    1    2    0    0  0.31969792975E+02 -0.24881613436E+02 -0.15571156523E+02  0.43400728859E+02  0.00000000000E+00 0. -1.
         11    1    3    3    0    0 -0.16148295146E+02  0.22867605620E+02  0.75070472865E+01  0.28983626104E+02  0.51100000000E-03 0. -1.
        -11    1    3    3    0    0 -0.11452907990E+02  0.38067196930E+01  0.44732048018E+01  0.12871277237E+02  0.51100000000E-03 0.  1.
         12    1    3    3    0    0 -0.43685898391E+01 -0.17927118767E+01  0.35909044345E+01  0.59323677999E+01  0.00000000000E+00 0. -1.
</event>
<event>
 7    1  0.1246400E-009  0.4778727E+02  0.7816164E-02  0.1312668E+00
        -11   -1    0    0    0    0  0.00000000000E+00  0.00000000000E+00  0.45593999997E+02  0.45594000000E+02  0.51100000000E-03 0.  1.
         11   -1    0    0    0    0 -0.00000000000E+00 -0.00000000000E+00 -0.45593999997E+02  0.45594000000E+02  0.51100000000E-03 0. -1.
    9900012    2    1    2    0    0  0.13178015789E+01 -0.38682149157E+02  0.19636143618E+02  0.47787269585E+02  0.19999993346E+02 0.  0.
         12    1    1    2    0    0 -0.13178015789E+01  0.38682149157E+02 -0.19636143618E+02  0.43400730415E+02  0.00000000000E+00 0. -1.
         11    1    3    3    0    0 -0.85771299659E-01 -0.38414765261E+01 -0.23229495718E+01  0.44900326938E+01  0.51100000000E-03 0. -1.
        -11    1    3    3    0    0  0.73421480936E+01 -0.18755934148E+02  0.11028692697E+02  0.22963542132E+02  0.51100000000E-03 0.  1.
         12    1    3    3    0    0 -0.59385752151E+01 -0.16084738483E+02  0.10930400492E+02  0.20333694759E+02  0.00000000000E+00 0. -1.
</event>
<event>
 7    1  0.1246400E-009  0.4778727E+02  0.7816164E-02  0.1312668E+00
        -11   -1    0    0    0    0  0.00000000000E+00  0.00000000000E+00  0.45593999997E+02  0.45594000000E+02  0.51100000000E-03 0.  1.
         11   -1    0    0    0    0 -0.00000000000E+00 -0.00000000000E+00 -0.45593999997E+02  0.45594000000E+02  0.51100000000E-03 0. -1.
    9900012    2    1    2    0    0 -0.10716193271E+02  0.14394690904E+02  0.39516824048E+02  0.47787270660E+02  0.19999998245E+02 0.  0.
         12    1    1    2    0    0  0.10716193271E+02 -0.14394690904E+02 -0.39516824048E+02  0.43400729340E+02  0.00000000000E+00 0. -1.
         11    1    3    3    0    0  0.44438217705E+01  0.39625685420E+01  0.36169554813E+01  0.69664817945E+01  0.51100000000E-03 0. -1.
        -11    1    3    3    0    0 -0.56170575292E+01  0.76363261848E+01  0.18049534188E+02  0.20387508370E+02  0.51100000000E-03 0.  1.
         12    1    3    3    0    0 -0.95429575123E+01  0.27957961772E+01  0.17850334379E+02  0.20433280495E+02  0.00000000000E+00 0. -1.
</event>
<event>
 7    1  0.1436846E-009  0.4778727E+02  0.7816164E-02  0.1312668E+00
        -11   -1    0    0    0    0  0.00000000000E+00  0.00000000000E+00  0.45593999997E+02  0.45594000000E+02  0.51100000000E-03 0. -1.
         11   -1    0    0    0    0 -0.00000000000E+00 -0.00000000000E+00 -0.45593999997E+02  0.45594000000E+02  0.51100000000E-03 0.  1.
    9900012    2    1    2    0    0  0.33878102301E+02  0.26624375652E+02  0.51999994235E+01  0.47787272029E+02  0.20000004490E+02 0.  0.
         12    1    1    2    0    0 -0.33878102301E+02 -0.26624375652E+02 -0.51999994235E+01  0.43400727971E+02  0.00000000000E+00 0. -1.
         11    1    3    3    0    0 -0.17496678708E-01  0.19062264030E+01  0.19235121698E+01  0.27081182695E+01  0.51100000000E-03 0. -1.
        -11    1    3    3    0    0  0.34530940298E+02  0.25986922249E+02  0.41453409090E+01  0.43415317773E+02  0.51100000000E-03 0.  1.
        -12    1    3    3    0    0 -0.63534131817E+00 -0.12687729997E+01 -0.86885365523E+00  0.16638359864E+01  0.00000000000E+00 0.  1.
</event>
<event>
 7    1  0.1246400E-009  0.4778727E+02  0.7816164E-02  0.1312668E+00
        -11   -1    0    0    0    0  0.00000000000E+00  0.00000000000E+00  0.45593999997E+02  0.45594000000E+02  0.51100000000E-03 0.  1.
         11   -1    0    0    0    0 -0.00000000000E+00 -0.00000000000E+00 -0.45593999997E+02  0.45594000000E+02  0.51100000000E-03 0. -1.
    9900012    2    1    2    0    0 -0.79151662490E+00 -0.23953547609E+02  0.36183202104E+02  0.47787273553E+02  0.20000011439E+02 0.  0.
         12    1    1    2    0    0  0.79151662490E+00  0.23953547609E+02 -0.36183202104E+02  0.43400726447E+02  0.00000000000E+00 0. -1.
         11    1    3    3    0    0  0.21157703562E+01 -0.59654812063E+01  0.15827351019E+01  0.65244540681E+01  0.51100000000E-03 0. -1.
        -11    1    3    3    0    0 -0.28028347015E+01 -0.12511485366E+02  0.10572450387E+02  0.16618359000E+02  0.51100000000E-03 0.  1.
         12    1    3    3    0    0 -0.10445227966E+00 -0.54765810371E+01  0.24028016615E+02  0.24644460485E+02  0.00000000000E+00 0. -1.
</event>
<event>
 7    1  0.1246400E-009  0.4778727E+02  0.7816164E-02  0.1312668E+00
        -11   -1    0    0    0    0  0.00000000000E+00  0.00000000000E+00  0.45593999997E+02  0.45594000000E+02  0.51100000000E-03 0.  1.
         11   -1    0    0    0    0 -0.00000000000E+00 -0.00000000000E+00 -0.45593999997E+02  0.45594000000E+02  0.51100000000E-03 0. -1.
    9900012    2    1    2    0    0 -0.41069426475E+02 -0.72431087171E+01  0.12019278075E+02  0.47787268897E+02  0.19999990207E+02 0.  0.
         12    1    1    2    0    0  0.41069426475E+02  0.72431087171E+01 -0.12019278075E+02  0.43400731103E+02  0.00000000000E+00 0. -1.
         11    1    3    3    0    0 -0.28030702308E+02 -0.27914078702E+01  0.11065608341E+02  0.30264829720E+02  0.51100000000E-03 0.  1.
        -11    1    3    3    0    0  0.11938107326E+00  0.13627981869E+01  0.27044272292E+01  0.30307420937E+01  0.51100000000E-03 0. -1.
         12    1    3    3    0    0 -0.13158105241E+02 -0.58144990338E+01 -0.17507574954E+01  0.14491697083E+02  0.00000000000E+00 0. -1.
</event>
<event>
 7    1  0.1246400E-009  0.4778727E+02  0.7816164E-02  0.1312668E+00
        -11   -1    0    0    0    0  0.00000000000E+00  0.00000000000E+00  0.45593999997E+02  0.45594000000E+02  0.51100000000E-03 0. -1.
         11   -1    0    0    0    0 -0.00000000000E+00 -0.00000000000E+00 -0.45593999997E+02  0.45594000000E+02  0.51100000000E-03 0.  1.
    9900012    2    1    2    0    0 -0.40395971630E+02 -0.83153060230E+01 -0.13514602330E+02  0.47787270578E+02  0.19999997873E+02 0.  0.
         12    1    1    2    0    0  0.40395971630E+02  0.83153060230E+01  0.13514602330E+02  0.43400729422E+02  0.00000000000E+00 0. -1.
         11    1    3    3    0    0 -0.93488831306E+01  0.36426535672E+01 -0.19887929472E+01  0.10228677258E+02  0.51100000000E-03 0. -1.
        -11    1    3    3    0    0 -0.96520276945E+01 -0.49154638354E+01 -0.10384490280E+02  0.15005367772E+02  0.51100000000E-03 0.  1.
        -12    1    3    3    0    0 -0.21395060805E+02 -0.70424957548E+01 -0.11413191022E+01  0.22553225548E+02  0.00000000000E+00 0.  1.
</event>
<event>
 7    1  0.1246400E-009  0.4778727E+02  0.7816164E-02  0.1312668E+00
        -11   -1    0    0    0    0  0.00000000000E+00  0.00000000000E+00  0.45593999997E+02  0.45594000000E+02  0.51100000000E-03 0. -1.
         11   -1    0    0    0    0 -0.00000000000E+00 -0.00000000000E+00 -0.45593999997E+02  0.45594000000E+02  0.51100000000E-03 0.  1.
    9900012    2    1    2    0    0 -0.15555592483E+02  0.35396944752E+02 -0.19715560137E+02  0.47787268822E+02  0.19999989866E+02 0.  0.
         12    1    1    2    0    0  0.15555592483E+02 -0.35396944752E+02  0.19715560137E+02  0.43400731178E+02  0.00000000000E+00 0. -1.
         11    1    3    3    0    0  0.18235959985E+01  0.62634766650E+01 -0.27740407668E+01  0.70888606091E+01  0.51100000000E-03 0. -1.
        -11    1    3    3    0    0 -0.77897220938E+00  0.59347006582E+01  0.21644464140E+01  0.63649271909E+01  0.51100000000E-03 0.  1.
         12    1    3    3    0    0 -0.16600216272E+02  0.23198767429E+02 -0.19105965785E+02  0.34333481022E+02  0.00000000000E+00 0. -1.
</event>
<event>
 7    1  0.1246400E-009  0.4778727E+02  0.7816164E-02  0.1312668E+00
        -11   -1    0    0    0    0  0.00000000000E+00  0.00000000000E+00  0.45593999997E+02  0.45594000000E+02  0.51100000000E-03 0.  1.
         11   -1    0    0    0    0 -0.00000000000E+00 -0.00000000000E+00 -0.45593999997E+02  0.45594000000E+02  0.51100000000E-03 0. -1.
    9900012    2    1    2    0    0 -0.29011950270E+01  0.37534345280E+02  0.21595821650E+02  0.47787268199E+02  0.19999987025E+02 0.  0.
         12    1    1    2    0    0  0.29011950270E+01 -0.37534345280E+02 -0.21595821650E+02  0.43400731801E+02  0.00000000000E+00 0. -1.
         11    1    3    3    0    0  0.15705395312E+01  0.37293427694E+01 -0.22758478856E+01  0.46426367260E+01  0.51100000000E-03 0. -1.
        -11    1    3    3    0    0  0.32605804904E+01  0.46090847247E+01  0.49183736258E+01  0.74876863261E+01  0.51100000000E-03 0.  1.
        -12    1    3    3    0    0 -0.77323150486E+01  0.29195917785E+02  0.18953295910E+02  0.35656945147E+02  0.00000000000E+00 0.  1.
</event>
<event>
 7    1  0.1700678E-009  0.4778727E+02  0.7816164E-02  0.1312668E+00
        -11   -1    0    0    0    0  0.00000000000E+00  0.00000000000E+00  0.45593999997E+02  0.45594000000E+02  0.51100000000E-03 0.  1.
         11   -1    0    0    0    0 -0.00000000000E+00 -0.00000000000E+00 -0.45593999997E+02  0.45594000000E+02  0.51100000000E-03 0. -1.
    9900012    2    1    2    0    0  0.32254647556E+02  0.28866204327E+02  0.31628525181E+01  0.47787266397E+02  0.19999978810E+02 0.  0.
         12    1    1    2    0    0 -0.32254647556E+02 -0.28866204327E+02 -0.31628525181E+01  0.43400733603E+02  0.00000000000E+00 0. -1.
         11    1    3    3    0    0  0.14914879799E+01  0.12276649226E+01  0.46304066015E+01  0.50172067042E+01  0.51100000000E-03 0. -1.
        -11    1    3    3    0    0  0.19604302098E+02  0.11100797798E+02  0.15976899006E+01  0.22585592438E+02  0.51100000000E-03 0.  1.
        -12    1    3    3    0    0  0.11158857478E+02  0.16537741607E+02 -0.30652439841E+01  0.20184467255E+02  0.00000000000E+00 0.  1.
</event>
<event>
 7    1  0.1246400E-009  0.4778729E+02  0.7816164E-02  0.1312668E+00
        -11   -1    0    0    0    0  0.00000000000E+00  0.00000000000E+00  0.45593999997E+02  0.45594000000E+02  0.51100000000E-03 0.  1.
         11   -1    0    0    0    0 -0.00000000000E+00 -0.00000000000E+00 -0.45593999997E+02  0.45594000000E+02  0.51100000000E-03 0. -1.
    9900012    2    1    2    0    0 -0.39098633086E+02  0.13260668603E+02  0.13381813350E+02  0.47787292983E+02  0.20000100028E+02 0.  0.
         12    1    1    2    0    0  0.39098633086E+02 -0.13260668603E+02 -0.13381813350E+02  0.43400707017E+02  0.00000000000E+00 0. -1.
         11    1    3    3    0    0 -0.62356143476E+01  0.47606004750E+01  0.10350722740E+02  0.12987827558E+02  0.51100000000E-03 0. -1.
        -11    1    3    3    0    0 -0.58316237086E+01  0.24251424393E+01 -0.20328261955E+01  0.66348725332E+01  0.51100000000E-03 0.  1.
         12    1    3    3    0    0 -0.27031395030E+02  0.60749256886E+01  0.50639168060E+01  0.28164592893E+02  0.00000000000E+00 0. -1.
</event>
<event>
 7    1  0.1246400E-009  0.4778727E+02  0.7816164E-02  0.1312668E+00
        -11   -1    0    0    0    0  0.00000000000E+00  0.00000000000E+00  0.45593999997E+02  0.45594000000E+02  0.51100000000E-03 0.  1.
         11   -1    0    0    0    0 -0.00000000000E+00 -0.00000000000E+00 -0.45593999997E+02  0.45594000000E+02  0.51100000000E-03 0. -1.
    9900012    2    1    2    0    0 -0.41620477196E+02 -0.10454589907E+02  0.64854262033E+01  0.47787270454E+02  0.19999997306E+02 0.  0.
         12    1    1    2    0    0  0.41620477196E+02  0.10454589907E+02 -0.64854262033E+01  0.43400729546E+02  0.00000000000E+00 0. -1.
         11    1    3    3    0    0 -0.28175271696E+02 -0.10043108955E+02  0.11746899657E+02  0.32135644142E+02  0.51100000000E-03 0. -1.
        -11    1    3    3    0    0 -0.10693758575E+02 -0.28346593375E+01 -0.42150395419E+01  0.11838848112E+02  0.51100000000E-03 0.  1.
        -12    1    3    3    0    0 -0.27514469255E+01  0.24231783855E+01 -0.10464339117E+01  0.38127782001E+01  0.00000000000E+00 0.  1.
</event>
<event>
 7    1  0.1246400E-009  0.4778725E+02  0.7816164E-02  0.1312668E+00
        -11   -1    0    0    0    0  0.00000000000E+00  0.00000000000E+00  0.45593999997E+02  0.45594000000E+02  0.51100000000E-03 0.  1.
         11   -1    0    0    0    0 -0.00000000000E+00 -0.00000000000E+00 -0.45593999997E+02  0.45594000000E+02  0.51100000000E-03 0. -1.
    9900012    2    1    2    0    0 -0.18841465275E+02 -0.23244936037E+02  0.31437191300E+02  0.47787252749E+02  0.19999916585E+02 0.  0.
         12    1    1    2    0    0  0.18841465275E+02  0.23244936037E+02 -0.31437191300E+02  0.43400747251E+02  0.00000000000E+00 0. -1.
         11    1    3    3    0    0 -0.28395722805E+01 -0.78871008321E+01  0.12485420033E+02  0.15038458828E+02  0.51100000000E-03 0. -1.
        -11    1    3    3    0    0 -0.93977706364E+01  0.48870561432E+00  0.82801958225E+01  0.12534694621E+02  0.51100000000E-03 0.  1.
         12    1    3    3    0    0 -0.66041223585E+01 -0.15846540819E+02  0.10671575444E+02  0.20214099301E+02  0.00000000000E+00 0. -1.
</event>
<event>
 7    1  0.1246400E-009  0.4778727E+02  0.7816164E-02  0.1312668E+00
        -11   -1    0    0    0    0  0.00000000000E+00  0.00000000000E+00  0.45593999997E+02  0.45594000000E+02  0.51100000000E-03 0.  1.
         11   -1    0    0    0    0 -0.00000000000E+00 -0.00000000000E+00 -0.45593999997E+02  0.45594000000E+02  0.51100000000E-03 0. -1.
    9900012    2    1    2    0    0  0.23294326006E+02 -0.34304046030E+02  0.12815221152E+02  0.47787273148E+02  0.20000009589E+02 0.  0.
         12    1    1    2    0    0 -0.23294326006E+02  0.34304046030E+02 -0.12815221152E+02  0.43400726852E+02  0.00000000000E+00 0. -1.
         11    1    3    3    0    0  0.11738504147E+02 -0.18877792700E+02  0.10030469142E+01  0.22252407515E+02  0.51100000000E-03 0. -1.
        -11    1    3    3    0    0  0.11808664932E+02 -0.61624417188E+01  0.61156274176E+01  0.14656778445E+02  0.51100000000E-03 0.  1.
         12    1    3    3    0    0 -0.25284307253E+00 -0.92638116111E+01  0.56965468205E+01  0.10878087188E+02  0.00000000000E+00 0. -1.
</event>
<event>
 7    1  0.1246400E-009  0.4778727E+02  0.7816164E-02  0.1312668E+00
        -11   -1    0    0    0    0  0.00000000000E+00  0.00000000000E+00  0.45593999997E+02  0.45594000000E+02  0.51100000000E-03 0.  1.
         11   -1    0    0    0    0 -0.00000000000E+00 -0.00000000000E+00 -0.45593999997E+02  0.45594000000E+02  0.51100000000E-03 0. -1.
    9900012    2    1    2    0    0  0.32369416380E+02 -0.28635547332E+02  0.39812030003E+01  0.47787266537E+02  0.19999979451E+02 0.  0.
         12    1    1    2    0    0 -0.32369416380E+02  0.28635547332E+02 -0.39812030003E+01  0.43400733463E+02  0.00000000000E+00 0. -1.
         11    1    3    3    0    0  0.11979339016E+02 -0.97590337795E+01 -0.62848285649E+01  0.16680598728E+02  0.51100000000E-03 0. -1.
        -11    1    3    3    0    0  0.52400526283E+01 -0.26323826908E+01  0.61838395243E+01  0.85221747049E+01  0.51100000000E-03 0.  1.
        -12    1    3    3    0    0  0.15150024736E+02 -0.16244130862E+02  0.40821920409E+01  0.22584493105E+02  0.00000000000E+00 0.  1.
</event>
<event>
 7    1  0.1246400E-009  0.4778727E+02  0.7816164E-02  0.1312668E+00
        -11   -1    0    0    0    0  0.00000000000E+00  0.00000000000E+00  0.45593999997E+02  0.45594000000E+02  0.51100000000E-03 0.  1.
         11   -1    0    0    0    0 -0.00000000000E+00 -0.00000000000E+00 -0.45593999997E+02  0.45594000000E+02  0.51100000000E-03 0. -1.
    9900012    2    1    2    0    0 -0.14398916873E+02 -0.33986818344E+02  0.22829594650E+02  0.47787273968E+02  0.20000013329E+02 0.  0.
         12    1    1    2    0    0  0.14398916873E+02  0.33986818344E+02 -0.22829594650E+02  0.43400726032E+02  0.00000000000E+00 0. -1.
         11    1    3    3    0    0 -0.16038522678E+02 -0.20688378108E+02  0.15733520841E+02  0.30541559828E+02  0.51100000000E-03 0. -1.
        -11    1    3    3    0    0 -0.12181888452E+01 -0.96580915613E+01  0.12883618782E+01  0.98195006625E+01  0.51100000000E-03 0.  1.
        -12    1    3    3    0    0  0.28577946505E+01 -0.36403486742E+01  0.58077119308E+01  0.74262134770E+01  0.00000000000E+00 0.  1.
</event>
<event>
 7    1  0.1246400E-009  0.4778727E+02  0.7816164E-02  0.1312668E+00
        -11   -1    0    0    0    0  0.00000000000E+00  0.00000000000E+00  0.45593999997E+02  0.45594000000E+02  0.51100000000E-03 0.  1.
         11   -1    0    0    0    0 -0.00000000000E+00 -0.00000000000E+00 -0.45593999997E+02  0.45594000000E+02  0.51100000000E-03 0. -1.
    9900012    2    1    2    0    0 -0.88151574817E+00  0.36295410103E+02  0.23780016395E+02  0.47787273689E+02  0.20000012056E+02 0.  0.
         12    1    1    2    0    0  0.88151574817E+00 -0.36295410103E+02 -0.23780016395E+02  0.43400726311E+02  0.00000000000E+00 0. -1.
         11    1    3    3    0    0  0.28241648456E+01  0.53359872464E+01 -0.10804222609E+01  0.61331867322E+01  0.51100000000E-03 0.  1.
        -11    1    3    3    0    0  0.12599772457E+01  0.55433225621E+01  0.10755414695E+02  0.12165315993E+02  0.51100000000E-03 0. -1.
        -12    1    3    3    0    0 -0.49656578394E+01  0.25416100295E+02  0.14105023961E+02  0.29488770963E+02  0.00000000000E+00 0.  1.
</event>
<event>
 7    1  0.1246400E-009  0.4778727E+02  0.7816164E-02  0.1312668E+00
        -11   -1    0    0    0    0  0.00000000000E+00  0.00000000000E+00  0.45593999997E+02  0.45594000000E+02  0.51100000000E-03 0.  1.
         11   -1    0    0    0    0 -0.00000000000E+00 -0.00000000000E+00 -0.45593999997E+02  0.45594000000E+02  0.51100000000E-03 0. -1.
    9900012    2    1    2    0    0 -0.16424072229E+02 -0.31757490447E+02  0.24603558613E+02  0.47787269079E+02  0.19999991038E+02 0.  0.
         12    1    1    2    0    0  0.16424072229E+02  0.31757490447E+02 -0.24603558613E+02  0.43400730921E+02  0.00000000000E+00 0. -1.
         11    1    3    3    0    0  0.16784188489E-02 -0.32818764176E+01 -0.15975450947E+01  0.36500501679E+01  0.51100000000E-03 0. -1.
        -11    1    3    3    0    0 -0.16498413896E+02 -0.18522452249E+02  0.14334198834E+02  0.28648702499E+02  0.51100000000E-03 0.  1.
        -12    1    3    3    0    0  0.72663247857E-01 -0.99531617803E+01  0.11866904874E+02  0.15488516412E+02  0.00000000000E+00 0.  1.
</event>
<event>
 7    1  0.1246400E-009  0.4778726E+02  0.7816164E-02  0.1312668E+00
        -11   -1    0    0    0    0  0.00000000000E+00  0.00000000000E+00  0.45593999997E+02  0.45594000000E+02  0.51100000000E-03 0.  1.
         11   -1    0    0    0    0 -0.00000000000E+00 -0.00000000000E+00 -0.45593999997E+02  0.45594000000E+02  0.51100000000E-03 0. -1.
    9900012    2    1    2    0    0 -0.18533693497E+02  0.30235232770E+02  0.25019136615E+02  0.47787259312E+02  0.19999946506E+02 0.  0.
         12    1    1    2    0    0  0.18533693497E+02 -0.30235232770E+02 -0.25019136615E+02  0.43400740688E+02  0.00000000000E+00 0. -1.
         11    1    3    3    0    0 -0.88877541433E+01  0.21367026255E+02  0.90913754692E+01  0.24863529372E+02  0.51100000000E-03 0. -1.
        -11    1    3    3    0    0 -0.33948109878E+01  0.89416564578E+01  0.12668622445E+02  0.15873624563E+02  0.51100000000E-03 0.  1.
         12    1    3    3    0    0 -0.62511283663E+01 -0.73449942225E-01  0.32591387015E+01  0.70501053766E+01  0.00000000000E+00 0. -1.
</event>
<event>
 7    1  0.1246400E-009  0.4778727E+02  0.7816164E-02  0.1312668E+00
        -11   -1    0    0    0    0  0.00000000000E+00  0.00000000000E+00  0.45593999997E+02  0.45594000000E+02  0.51100000000E-03 0.  1.
         11   -1    0    0    0    0 -0.00000000000E+00 -0.00000000000E+00 -0.45593999997E+02  0.45594000000E+02  0.51100000000E-03 0. -1.
    9900012    2    1    2    0    0  0.22178562518E+02 -0.36615495943E+02  0.71442203152E+01  0.47787273481E+02  0.20000011107E+02 0.  0.
         12    1    1    2    0    0 -0.22178562518E+02  0.36615495943E+02 -0.71442203152E+01  0.43400726519E+02  0.00000000000E+00 0. -1.
         11    1    3    3    0    0 -0.33164491521E+01 -0.54387640440E+01  0.33673840919E+01  0.72054330327E+01  0.51100000000E-03 0. -1.
        -11    1    3    3    0    0  0.69025639822E+01 -0.10054795361E+02  0.44321257834E-01  0.12196157752E+02  0.51100000000E-03 0.  1.
        -12    1    3    3    0    0  0.18592447688E+02 -0.21121936538E+02  0.37325149655E+01  0.28385682696E+02  0.00000000000E+00 0.  1.
</event>
<event>
 7    1  0.1246400E-009  0.4778727E+02  0.7816164E-02  0.1312668E+00
        -11   -1    0    0    0    0  0.00000000000E+00  0.00000000000E+00  0.45593999997E+02  0.45594000000E+02  0.51100000000E-03 0.  1.
         11   -1    0    0    0    0 -0.00000000000E+00 -0.00000000000E+00 -0.45593999997E+02  0.45594000000E+02  0.51100000000E-03 0. -1.
    9900012    2    1    2    0    0  0.70090317196E+01 -0.12507451943E+01  0.42812759496E+02  0.47787271149E+02  0.20000000475E+02 0.  0.
         12    1    1    2    0    0 -0.70090317196E+01  0.12507451943E+01 -0.42812759496E+02  0.43400728851E+02  0.00000000000E+00 0. -1.
         11    1    3    3    0    0 -0.24187599230E+01 -0.94344218960E+00  0.33327374022E+00  0.26175473974E+01  0.51100000000E-03 0. -1.
        -11    1    3    3    0    0 -0.21324345998E+00  0.15997784720E+01  0.25500764288E+02  0.25551785524E+02  0.51100000000E-03 0.  1.
        -12    1    3    3    0    0  0.96410351027E+01 -0.19070814767E+01  0.16978721468E+02  0.19617938228E+02  0.00000000000E+00 0.  1.
</event>
<event>
 7    1  0.1246400E-009  0.4778727E+02  0.7816164E-02  0.1312668E+00
        -11   -1    0    0    0    0  0.00000000000E+00  0.00000000000E+00  0.45593999997E+02  0.45594000000E+02  0.51100000000E-03 0. -1.
         11   -1    0    0    0    0 -0.00000000000E+00 -0.00000000000E+00 -0.45593999997E+02  0.45594000000E+02  0.51100000000E-03 0.  1.
    9900012    2    1    2    0    0  0.14225805670E+02 -0.32576015574E+02 -0.24900858111E+02  0.47787273367E+02  0.20000010588E+02 0.  0.
         12    1    1    2    0    0 -0.14225805670E+02  0.32576015574E+02  0.24900858111E+02  0.43400726633E+02  0.00000000000E+00 0. -1.
         11    1    3    3    0    0 -0.42488071018E-01 -0.39136011788E+01 -0.74279228429E+00  0.39836942731E+01  0.51100000000E-03 0. -1.
        -11    1    3    3    0    0  0.12986153751E+02 -0.28057451176E+02 -0.26727929860E+02  0.40868606419E+02  0.51100000000E-03 0.  1.
        -12    1    3    3    0    0  0.12821399902E+01 -0.60496321926E+00  0.25698640337E+01  0.29349726750E+01  0.00000000000E+00 0.  1.
</event>
<event>
 7    1  0.1246400E-009  0.4778727E+02  0.7816164E-02  0.1312668E+00
        -11   -1    0    0    0    0  0.00000000000E+00  0.00000000000E+00  0.45593999997E+02  0.45594000000E+02  0.51100000000E-03 0.  1.
         11   -1    0    0    0    0 -0.00000000000E+00 -0.00000000000E+00 -0.45593999997E+02  0.45594000000E+02  0.51100000000E-03 0. -1.
    9900012    2    1    2    0    0 -0.20242799411E+02  0.16615436584E+02  0.34608953787E+02  0.47787270247E+02  0.19999996363E+02 0.  0.
         12    1    1    2    0    0  0.20242799411E+02 -0.16615436584E+02 -0.34608953787E+02  0.43400729753E+02  0.00000000000E+00 0. -1.
         11    1    3    3    0    0 -0.55682187288E+00 -0.30305133113E+01  0.35433978762E+01  0.46957140350E+01  0.51100000000E-03 0.  1.
        -11    1    3    3    0    0 -0.14012084879E+01  0.25567024468E+01  0.98802527007E+01  0.10301432246E+02  0.51100000000E-03 0. -1.
         12    1    3    3    0    0 -0.18284769050E+02  0.17089247449E+02  0.21185303210E+02  0.32790123966E+02  0.00000000000E+00 0. -1.
</event>
<event>
 7    1  0.1246400E-009  0.4778727E+02  0.7816164E-02  0.1312668E+00
        -11   -1    0    0    0    0  0.00000000000E+00  0.00000000000E+00  0.45593999997E+02  0.45594000000E+02  0.51100000000E-03 0. -1.
         11   -1    0    0    0    0 -0.00000000000E+00 -0.00000000000E+00 -0.45593999997E+02  0.45594000000E+02  0.51100000000E-03 0.  1.
    9900012    2    1    2    0    0 -0.42447263397E+02  0.90226237447E+01 -0.66717397857E+00  0.47787273851E+02  0.20000012796E+02 0.  0.
         12    1    1    2    0    0  0.42447263397E+02 -0.90226237447E+01  0.66717397857E+00  0.43400726149E+02  0.00000000000E+00 0. -1.
         11    1    3    3    0    0 -0.10466254187E+02  0.56732110416E+01  0.54371653770E+01  0.13087802254E+02  0.51100000000E-03 0. -1.
        -11    1    3    3    0    0 -0.87034063887E+01 -0.40480862009E+01 -0.31197204919E+01  0.10093014459E+02  0.51100000000E-03 0.  1.
         12    1    3    3    0    0 -0.23277602821E+02  0.73974989039E+01 -0.29846188637E+01  0.24606457138E+02  0.00000000000E+00 0. -1.
</event>
<event>
 7    1  0.1246400E-009  0.4778726E+02  0.7816164E-02  0.1312668E+00
        -11   -1    0    0    0    0  0.00000000000E+00  0.00000000000E+00  0.45593999997E+02  0.45594000000E+02  0.51100000000E-03 0.  1.
         11   -1    0    0    0    0 -0.00000000000E+00 -0.00000000000E+00 -0.45593999997E+02  0.45594000000E+02  0.51100000000E-03 0. -1.
    9900012    2    1    2    0    0 -0.33423134285E+02 -0.91841020976E+01  0.26118397927E+02  0.47787258681E+02  0.19999943631E+02 0.  0.
         12    1    1    2    0    0  0.33423134285E+02  0.91841020976E+01 -0.26118397927E+02  0.43400741319E+02  0.00000000000E+00 0. -1.
         11    1    3    3    0    0 -0.10175697059E+01 -0.48433511155E+01  0.79285555237E+01  0.93464159488E+01  0.51100000000E-03 0. -1.
        -11    1    3    3    0    0 -0.63761397739E+01 -0.41264276979E+01  0.60935001000E+01  0.97372125217E+01  0.51100000000E-03 0.  1.
        -12    1    3    3    0    0 -0.26029424805E+02 -0.21432328421E+00  0.12096342303E+02  0.28703630211E+02  0.00000000000E+00 0.  1.
</event>
<event>
 7    1  0.1246400E-009  0.4778727E+02  0.7816164E-02  0.1312668E+00
        -11   -1    0    0    0    0  0.00000000000E+00  0.00000000000E+00  0.45593999997E+02  0.45594000000E+02  0.51100000000E-03 0.  1.
         11   -1    0    0    0    0 -0.00000000000E+00 -0.00000000000E+00 -0.45593999997E+02  0.45594000000E+02  0.51100000000E-03 0. -1.
    9900012    2    1    2    0    0 -0.24903358614E+02  0.23551494492E+02  0.26622795137E+02  0.47787269776E+02  0.19999994219E+02 0.  0.
         12    1    1    2    0    0  0.24903358614E+02 -0.23551494492E+02 -0.26622795137E+02  0.43400730224E+02  0.00000000000E+00 0. -1.
         11    1    3    3    0    0 -0.81751386944E+01  0.12086019642E+02  0.72073371472E+01  0.16274227247E+02  0.51100000000E-03 0. -1.
        -11    1    3    3    0    0 -0.15105243786E+02  0.14681886974E+02  0.17740632010E+02  0.27540083866E+02  0.51100000000E-03 0.  1.
         12    1    3    3    0    0 -0.16229761331E+01 -0.32164121244E+01  0.16748259799E+01  0.39729586640E+01  0.00000000000E+00 0. -1.
</event>
<event>
 7    1  0.1246400E-009  0.4778727E+02  0.7816164E-02  0.1312668E+00
        -11   -1    0    0    0    0  0.00000000000E+00  0.00000000000E+00  0.45593999997E+02  0.45594000000E+02  0.51100000000E-03 0. -1.
         11   -1    0    0    0    0 -0.00000000000E+00 -0.00000000000E+00 -0.45593999997E+02  0.45594000000E+02  0.51100000000E-03 0.  1.
    9900012    2    1    2    0    0 -0.19802794839E+02 -0.10545767830E+02 -0.37151841309E+02  0.47787271720E+02  0.20000003081E+02 0.  0.
         12    1    1    2    0    0  0.19802794839E+02  0.10545767830E+02  0.37151841309E+02  0.43400728280E+02  0.00000000000E+00 0. -1.
         11    1    3    3    0    0 -0.42130282235E+01  0.17065597109E+01 -0.22921885355E+00  0.45513178754E+01  0.51100000000E-03 0. -1.
        -11    1    3    3    0    0 -0.13896115062E+02 -0.83647215486E+01 -0.19795312992E+02  0.25591502440E+02  0.51100000000E-03 0.  1.
        -12    1    3    3    0    0 -0.16936515536E+01 -0.38876059925E+01 -0.17127309463E+02  0.17644451405E+02  0.00000000000E+00 0.  1.
</event>
<event>
 7    1  0.1246400E-009  0.4778727E+02  0.7816164E-02  0.1312668E+00
        -11   -1    0    0    0    0  0.00000000000E+00  0.00000000000E+00  0.45593999997E+02  0.45594000000E+02  0.51100000000E-03 0.  1.
         11   -1    0    0    0    0 -0.00000000000E+00 -0.00000000000E+00 -0.45593999997E+02  0.45594000000E+02  0.51100000000E-03 0. -1.
    9900012    2    1    2    0    0  0.40105529010E+02  0.15710087239E+02  0.53257126184E+01  0.47787268288E+02  0.19999987430E+02 0.  0.
         12    1    1    2    0    0 -0.40105529010E+02 -0.15710087239E+02 -0.53257126184E+01  0.43400731712E+02  0.00000000000E+00 0. -1.
         11    1    3    3    0    0  0.12200986412E+02 -0.10623000184E+01  0.52378709856E+01  0.13320204333E+02  0.51100000000E-03 0. -1.
        -11    1    3    3    0    0  0.10619594669E+02  0.11639382006E+02  0.34399120654E+01  0.16127120006E+02  0.51100000000E-03 0.  1.
        -12    1    3    3    0    0  0.17284947929E+02  0.51330052521E+01 -0.33520704326E+01  0.18339943948E+02  0.00000000000E+00 0.  1.
</event>
<event>
 7    1  0.1410772E-009  0.4778727E+02  0.7816164E-02  0.1312668E+00
        -11   -1    0    0    0    0  0.00000000000E+00  0.00000000000E+00  0.45593999997E+02  0.45594000000E+02  0.51100000000E-03 0.  1.
         11   -1    0    0    0    0 -0.00000000000E+00 -0.00000000000E+00 -0.45593999997E+02  0.45594000000E+02  0.51100000000E-03 0. -1.
    9900012    2    1    2    0    0  0.11659180436E+02  0.39821697872E+02  0.12724761760E+02  0.47787266461E+02  0.19999979104E+02 0.  0.
         12    1    1    2    0    0 -0.11659180436E+02 -0.39821697872E+02 -0.12724761760E+02  0.43400733539E+02  0.00000000000E+00 0. -1.
         11    1    3    3    0    0  0.51973716863E+01  0.73679778537E+01 -0.35325235055E+01  0.96839296092E+01  0.51100000000E-03 0. -1.
        -11    1    3    3    0    0  0.73622817724E+01  0.14404142422E+02  0.97932693592E+01  0.18910067076E+02  0.51100000000E-03 0.  1.
        -12    1    3    3    0    0 -0.90047302248E+00  0.18049577597E+02  0.64640159059E+01  0.19193269776E+02  0.00000000000E+00 0.  1.
</event>
<event>
 7    1  0.1246400E-009  0.4778726E+02  0.7816164E-02  0.1312668E+00
        -11   -1    0    0    0    0  0.00000000000E+00  0.00000000000E+00  0.45593999997E+02  0.45594000000E+02  0.51100000000E-03 0. -1.
         11   -1    0    0    0    0 -0.00000000000E+00 -0.00000000000E+00 -0.45593999997E+02  0.45594000000E+02  0.51100000000E-03 0.  1.
    9900012    2    1    2    0    0  0.29191524944E+02 -0.24641714585E+02 -0.20597684667E+02  0.47787264523E+02  0.19999970268E+02 0.  0.
         12    1    1    2    0    0 -0.29191524944E+02  0.24641714585E+02  0.20597684667E+02  0.43400735477E+02  0.00000000000E+00 0. -1.
         11    1    3    3    0    0 -0.26429361014E+01 -0.25069068409E+01 -0.27569870804E+01  0.45684429697E+01  0.51100000000E-03 0. -1.
        -11    1    3    3    0    0  0.21672994439E+01 -0.43891627348E+00 -0.26446620553E+01  0.34473282440E+01  0.51100000000E-03 0.  1.
         12    1    3    3    0    0  0.29667161602E+02 -0.21695891471E+02 -0.15196035531E+02  0.39771493310E+02  0.00000000000E+00 0. -1.
</event>
<event>
 7    1  0.1246400E-009  0.4778727E+02  0.7816164E-02  0.1312668E+00
        -11   -1    0    0    0    0  0.00000000000E+00  0.00000000000E+00  0.45593999997E+02  0.45594000000E+02  0.51100000000E-03 0.  1.
         11   -1    0    0    0    0 -0.00000000000E+00 -0.00000000000E+00 -0.45593999997E+02  0.45594000000E+02  0.51100000000E-03 0. -1.
    9900012    2    1    2    0    0  0.29196062905E+02  0.27910301707E+02  0.15881685394E+02  0.47787274643E+02  0.20000016408E+02 0.  0.
         12    1    1    2    0    0 -0.29196062905E+02 -0.27910301707E+02 -0.15881685394E+02  0.43400725357E+02  0.00000000000E+00 0. -1.
         11    1    3    3    0    0  0.71094954310E+01  0.49023616004E+01  0.12871288523E+01  0.87312528017E+01  0.51100000000E-03 0. -1.
        -11    1    3    3    0    0  0.24596051141E+02  0.23033086806E+02  0.13245511979E+02  0.36206800569E+02  0.51100000000E-03 0.  1.
         12    1    3    3    0    0 -0.25094836667E+01 -0.25146699705E-01  0.13490445625E+01  0.28492212728E+01  0.00000000000E+00 0. -1.
</event>
<event>
 7    1  0.1246400E-009  0.4778727E+02  0.7816164E-02  0.1312668E+00
        -11   -1    0    0    0    0  0.00000000000E+00  0.00000000000E+00  0.45593999997E+02  0.45594000000E+02  0.51100000000E-03 0.  1.
         11   -1    0    0    0    0 -0.00000000000E+00 -0.00000000000E+00 -0.45593999997E+02  0.45594000000E+02  0.51100000000E-03 0. -1.
    9900012    2    1    2    0    0  0.47845385363E+01 -0.38227375313E+02  0.19984967810E+02  0.47787274537E+02  0.20000015925E+02 0.  0.
         12    1    1    2    0    0 -0.47845385363E+01  0.38227375313E+02 -0.19984967810E+02  0.43400725463E+02  0.00000000000E+00 0. -1.
         11    1    3    3    0    0  0.62326364743E+01 -0.26158497489E+02  0.59550763325E+01  0.27542252680E+02  0.51100000000E-03 0. -1.
        -11    1    3    3    0    0 -0.18980072929E+01 -0.12242063992E+02  0.93000888683E+01  0.15490713853E+02  0.51100000000E-03 0.  1.
        -12    1    3    3    0    0  0.44990935482E+00  0.17318616802E+00  0.47298026088E+01  0.47543080038E+01  0.00000000000E+00 0.  1.
</event>
<event>
 7    1  0.1246400E-009  0.4778727E+02  0.7816164E-02  0.1312668E+00
        -11   -1    0    0    0    0  0.00000000000E+00  0.00000000000E+00  0.45593999997E+02  0.45594000000E+02  0.51100000000E-03 0.  1.
         11   -1    0    0    0    0 -0.00000000000E+00 -0.00000000000E+00 -0.45593999997E+02  0.45594000000E+02  0.51100000000E-03 0. -1.
    9900012    2    1    2    0    0  0.21952241471E+02  0.30959022632E+02  0.21053776969E+02  0.47787268295E+02  0.19999987462E+02 0.  0.
         12    1    1    2    0    0 -0.21952241471E+02 -0.30959022632E+02 -0.21053776969E+02  0.43400731705E+02  0.00000000000E+00 0. -1.
         11    1    3    3    0    0  0.10692388319E+02  0.73030191888E+01  0.10757381118E+02  0.16833968814E+02  0.51100000000E-03 0. -1.
        -11    1    3    3    0    0  0.10815478092E+02  0.12195504978E+02  0.10663040590E+02  0.19478330086E+02  0.51100000000E-03 0.  1.
         12    1    3    3    0    0  0.44437505972E+00  0.11460498465E+02 -0.36664473972E+00  0.11474969395E+02  0.00000000000E+00 0. -1.
</event>
<event>
 7    1  0.1246400E-009  0.4778727E+02  0.7816164E-02  0.1312668E+00
        -11   -1    0    0    0    0  0.00000000000E+00  0.00000000000E+00  0.45593999997E+02  0.45594000000E+02  0.51100000000E-03 0.  1.
         11   -1    0    0    0    0 -0.00000000000E+00 -0.00000000000E+00 -0.45593999997E+02  0.45594000000E+02  0.51100000000E-03 0. -1.
    9900012    2    1    2    0    0  0.15028843452E+02 -0.19919088474E+02  0.35510377241E+02  0.47787272898E+02  0.20000008453E+02 0.  0.
         12    1    1    2    0    0 -0.15028843452E+02  0.19919088474E+02 -0.35510377241E+02  0.43400727102E+02  0.00000000000E+00 0. -1.
         11    1    3    3    0    0  0.72333345231E+01 -0.18756317528E+02  0.21862647575E+02  0.29700099912E+02  0.51100000000E-03 0.  1.
        -11    1    3    3    0    0  0.56258216287E+01 -0.77473228363E+00  0.16857680463E+01  0.59238410914E+01  0.51100000000E-03 0. -1.
        -12    1    3    3    0    0  0.21696873003E+01 -0.38803866218E+00  0.11961961620E+02  0.12163331895E+02  0.00000000000E+00 0.  1.
</event>
<event>
 7    1  0.1246400E-009  0.4778727E+02  0.7816164E-02  0.1312668E+00
        -11   -1    0    0    0    0  0.00000000000E+00  0.00000000000E+00  0.45593999997E+02  0.45594000000E+02  0.51100000000E-03 0.  1.
         11   -1    0    0    0    0 -0.00000000000E+00 -0.00000000000E+00 -0.45593999997E+02  0.45594000000E+02  0.51100000000E-03 0. -1.
    9900012    2    1    2    0    0 -0.10213327740E+02  0.95481822543E+01  0.41087028665E+02  0.47787265301E+02  0.19999973814E+02 0.  0.
         12    1    1    2    0    0  0.10213327740E+02 -0.95481822543E+01 -0.41087028665E+02  0.43400734699E+02  0.00000000000E+00 0. -1.
         11    1    3    3    0    0  0.42897368547E+00 -0.20033356909E+01  0.18292073767E+02  0.18406448198E+02  0.51100000000E-03 0. -1.
        -11    1    3    3    0    0 -0.97574483940E-01  0.70755050724E+01  0.90530539683E+01  0.11490434249E+02  0.51100000000E-03 0.  1.
         12    1    3    3    0    0 -0.10544726942E+02  0.44760128729E+01  0.13741900929E+02  0.17890382854E+02  0.00000000000E+00 0. -1.
</event>
<event>
 7    1  0.1246400E-009  0.4778727E+02  0.7816164E-02  0.1312668E+00
        -11   -1    0    0    0    0  0.00000000000E+00  0.00000000000E+00  0.45593999997E+02  0.45594000000E+02  0.51100000000E-03 0.  1.
         11   -1    0    0    0    0 -0.00000000000E+00 -0.00000000000E+00 -0.45593999997E+02  0.45594000000E+02  0.51100000000E-03 0. -1.
    9900012    2    1    2    0    0 -0.40192656642E+02 -0.33353786574E+01  0.16032742822E+02  0.47787271422E+02  0.20000001721E+02 0.  0.
         12    1    1    2    0    0  0.40192656642E+02  0.33353786574E+01 -0.16032742822E+02  0.43400728578E+02  0.00000000000E+00 0. -1.
         11    1    3    3    0    0 -0.78814217175E+01 -0.41904969317E+01 -0.31672218630E+01  0.94714501220E+01  0.51100000000E-03 0. -1.
        -11    1    3    3    0    0 -0.20090898014E+02 -0.26584417403E+01  0.98509517103E+01  0.22533369596E+02  0.51100000000E-03 0.  1.
        -12    1    3    3    0    0 -0.12220336910E+02  0.35135600146E+01  0.93490129752E+01  0.15782451704E+02  0.00000000000E+00 0.  1.
</event>
<event>
 7    1  0.1246400E-009  0.4778727E+02  0.7816164E-02  0.1312668E+00
        -11   -1    0    0    0    0  0.00000000000E+00  0.00000000000E+00  0.45593999997E+02  0.45594000000E+02  0.51100000000E-03 0.  1.
         11   -1    0    0    0    0 -0.00000000000E+00 -0.00000000000E+00 -0.45593999997E+02  0.45594000000E+02  0.51100000000E-03 0. -1.
    9900012    2    1    2    0    0 -0.20282618591E+02 -0.14609502352E+02  0.35479589164E+02  0.47787269325E+02  0.19999992159E+02 0.  0.
         12    1    1    2    0    0  0.20282618591E+02  0.14609502352E+02 -0.35479589164E+02  0.43400730675E+02  0.00000000000E+00 0. -1.
         11    1    3    3    0    0 -0.58774811461E+01 -0.32534575045E+01  0.21913241751E+01  0.70662346591E+01  0.51100000000E-03 0. -1.
        -11    1    3    3    0    0 -0.99673728680E+01 -0.14489896118E+02  0.28445038656E+02  0.33442874216E+02  0.51100000000E-03 0.  1.
        -12    1    3    3    0    0 -0.44377645774E+01  0.31338512698E+01  0.48432263323E+01  0.72781604497E+01  0.00000000000E+00 0.  1.
</event>
<event>
 7    1  0.1246400E-009  0.4778727E+02  0.7816164E-02  0.1312668E+00
        -11   -1    0    0    0    0  0.00000000000E+00  0.00000000000E+00  0.45593999997E+02  0.45594000000E+02  0.51100000000E-03 0.  1.
         11   -1    0    0    0    0 -0.00000000000E+00 -0.00000000000E+00 -0.45593999997E+02  0.45594000000E+02  0.51100000000E-03 0. -1.
    9900012    2    1    2    0    0  0.22759173174E+02 -0.36950832900E+02  0.52836179460E+00  0.47787272106E+02  0.20000004839E+02 0.  0.
         12    1    1    2    0    0 -0.22759173174E+02  0.36950832900E+02 -0.52836179460E+00  0.43400727894E+02  0.00000000000E+00 0. -1.
         11    1    3    3    0    0  0.16967417784E+01 -0.29651669804E+01 -0.30129920049E+01  0.45551365476E+01  0.51100000000E-03 0. -1.
        -11    1    3    3    0    0  0.44336269613E+01 -0.16918479821E+02  0.75834171859E+01  0.19063059145E+02  0.51100000000E-03 0.  1.
         12    1    3    3    0    0  0.16628804435E+02 -0.17067186098E+02 -0.40420633864E+01  0.24169076413E+02  0.00000000000E+00 0. -1.
</event>
<event>
 7    1  0.1246400E-009  0.4778727E+02  0.7816164E-02  0.1312668E+00
        -11   -1    0    0    0    0  0.00000000000E+00  0.00000000000E+00  0.45593999997E+02  0.45594000000E+02  0.51100000000E-03 0.  1.
         11   -1    0    0    0    0 -0.00000000000E+00 -0.00000000000E+00 -0.45593999997E+02  0.45594000000E+02  0.51100000000E-03 0. -1.
    9900012    2    1    2    0    0  0.29564108258E+02 -0.26961000397E+02  0.16813426735E+02  0.47787270075E+02  0.19999995579E+02 0.  0.
         12    1    1    2    0    0 -0.29564108258E+02  0.26961000397E+02 -0.16813426735E+02  0.43400729925E+02  0.00000000000E+00 0. -1.
         11    1    3    3    0    0  0.24211231860E+01 -0.57657607221E+01 -0.19678987053E+01  0.65557958908E+01  0.51100000000E-03 0. -1.
        -11    1    3    3    0    0  0.21561343434E+02 -0.21460489533E+02  0.12680011834E+02  0.32957955671E+02  0.51100000000E-03 0.  1.
         12    1    3    3    0    0  0.55816416375E+01  0.26524985796E+00  0.61013136063E+01  0.82735185126E+01  0.00000000000E+00 0. -1.
</event>
<event>
 7    1  0.1246400E-009  0.4778727E+02  0.7816164E-02  0.1312668E+00
        -11   -1    0    0    0    0  0.00000000000E+00  0.00000000000E+00  0.45593999997E+02  0.45594000000E+02  0.51100000000E-03 0. -1.
         11   -1    0    0    0    0 -0.00000000000E+00 -0.00000000000E+00 -0.45593999997E+02  0.45594000000E+02  0.51100000000E-03 0.  1.
    9900012    2    1    2    0    0 -0.21435863338E+02 -0.35959340299E+02 -0.11447826528E+02  0.47787272771E+02  0.20000007872E+02 0.  0.
         12    1    1    2    0    0  0.21435863338E+02  0.35959340299E+02  0.11447826528E+02  0.43400727229E+02  0.00000000000E+00 0. -1.
         11    1    3    3    0    0 -0.13991441888E+02 -0.12098473682E+02 -0.41399616976E+01  0.18954492730E+02  0.51100000000E-03 0.  1.
        -11    1    3    3    0    0 -0.31487019990E+01 -0.86187371906E+01  0.33234592727E+01  0.97592180444E+01  0.51100000000E-03 0. -1.
         12    1    3    3    0    0 -0.42957194515E+01 -0.15242129427E+02 -0.10631324103E+02  0.19073561997E+02  0.00000000000E+00 0. -1.
</event>
<event>
 7    1  0.1246400E-009  0.4778727E+02  0.7816164E-02  0.1312668E+00
        -11   -1    0    0    0    0  0.00000000000E+00  0.00000000000E+00  0.45593999997E+02  0.45594000000E+02  0.51100000000E-03 0. -1.
         11   -1    0    0    0    0 -0.00000000000E+00 -0.00000000000E+00 -0.45593999997E+02  0.45594000000E+02  0.51100000000E-03 0.  1.
    9900012    2    1    2    0    0  0.37051154108E+02  0.15574691196E+02 -0.16378786432E+02  0.47787266463E+02  0.19999979112E+02 0.  0.
         12    1    1    2    0    0 -0.37051154108E+02 -0.15574691196E+02  0.16378786432E+02  0.43400733537E+02  0.00000000000E+00 0. -1.
         11    1    3    3    0    0  0.41791932086E+00  0.64389323415E+01 -0.14165968402E+01  0.66061526720E+01  0.51100000000E-03 0. -1.
        -11    1    3    3    0    0  0.15481620192E+02  0.23941371322E+01 -0.94925423455E+01  0.18317227323E+02  0.51100000000E-03 0.  1.
         12    1    3    3    0    0  0.21151614595E+02  0.67416217223E+01 -0.54696472463E+01  0.22863886468E+02  0.00000000000E+00 0. -1.
</event>
<event>
 7    1  0.1246400E-009  0.4778727E+02  0.7816164E-02  0.1312668E+00
        -11   -1    0    0    0    0  0.00000000000E+00  0.00000000000E+00  0.45593999997E+02  0.45594000000E+02  0.51100000000E-03 0.  1.
         11   -1    0    0    0    0 -0.00000000000E+00 -0.00000000000E+00 -0.45593999997E+02  0.45594000000E+02  0.51100000000E-03 0. -1.
    9900012    2    1    2    0    0  0.32532761110E+02 -0.49343749443E+01  0.28300087777E+02  0.47787267636E+02  0.19999984461E+02 0.  0.
         12    1    1    2    0    0 -0.32532761110E+02  0.49343749443E+01 -0.28300087777E+02  0.43400732364E+02  0.00000000000E+00 0. -1.
         11    1    3    3    0    0  0.10109243674E+02 -0.24235256584E+01  0.11555564300E+02  0.15543530835E+02  0.51100000000E-03 0.  1.
        -11    1    3    3    0    0  0.11470049687E+02 -0.95722722873E+00  0.17728326573E+02  0.21136979139E+02  0.51100000000E-03 0. -1.
         12    1    3    3    0    0  0.10953467750E+02 -0.15536220572E+01 -0.98380309582E+00  0.11106757662E+02  0.00000000000E+00 0. -1.
</event>
<event>
 7    1  0.1246400E-009  0.4778727E+02  0.7816164E-02  0.1312668E+00
        -11   -1    0    0    0    0  0.00000000000E+00  0.00000000000E+00  0.45593999997E+02  0.45594000000E+02  0.51100000000E-03 0.  1.
         11   -1    0    0    0    0 -0.00000000000E+00 -0.00000000000E+00 -0.45593999997E+02  0.45594000000E+02  0.51100000000E-03 0. -1.
    9900012    2    1    2    0    0 -0.10108911547E+02  0.32091240217E+02  0.27415058028E+02  0.47787271919E+02  0.20000003985E+02 0.  0.
         12    1    1    2    0    0  0.10108911547E+02 -0.32091240217E+02 -0.27415058028E+02  0.43400728081E+02  0.00000000000E+00 0. -1.
         11    1    3    3    0    0  0.18792829592E+01 -0.98426806929E-01 -0.30798868839E+00  0.19068952699E+01  0.51100000000E-03 0. -1.
        -11    1    3    3    0    0 -0.30987890363E+01  0.12913612949E+01  0.66176385043E+01  0.74204613819E+01  0.51100000000E-03 0.  1.
        -12    1    3    3    0    0 -0.88894054699E+01  0.30898305729E+02  0.21105408212E+02  0.38459915267E+02  0.00000000000E+00 0.  1.
</event>
<event>
 7    1  0.1246400E-009  0.4778727E+02  0.7816164E-02  0.1312668E+00
        -11   -1    0    0    0    0  0.00000000000E+00  0.00000000000E+00  0.45593999997E+02  0.45594000000E+02  0.51100000000E-03 0. -1.
         11   -1    0    0    0    0 -0.00000000000E+00 -0.00000000000E+00 -0.45593999997E+02  0.45594000000E+02  0.51100000000E-03 0.  1.
    9900012    2    1    2    0    0  0.85272178519E+00  0.43301929458E+02  0.27998212081E+01  0.47787271572E+02  0.20000002406E+02 0.  0.
         12    1    1    2    0    0 -0.85272178519E+00 -0.43301929458E+02 -0.27998212081E+01  0.43400728428E+02  0.00000000000E+00 0. -1.
         11    1    3    3    0    0  0.46499800755E+00  0.14646815258E+02 -0.47612431592E+01  0.15408272357E+02  0.51100000000E-03 0.  1.
        -11    1    3    3    0    0  0.36975799929E+01  0.17322857325E+02 -0.10842996986E+01  0.17746244386E+02  0.51100000000E-03 0. -1.
        -12    1    3    3    0    0 -0.33098562153E+01  0.11332256876E+02  0.86453640660E+01  0.14632754829E+02  0.00000000000E+00 0.  1.
</event>
<event>
 7    1  0.1246400E-009  0.4778727E+02  0.7816164E-02  0.1312668E+00
        -11   -1    0    0    0    0  0.00000000000E+00  0.00000000000E+00  0.45593999997E+02  0.45594000000E+02  0.51100000000E-03 0. -1.
         11   -1    0    0    0    0 -0.00000000000E+00 -0.00000000000E+00 -0.45593999997E+02  0.45594000000E+02  0.51100000000E-03 0.  1.
    9900012    2    1    2    0    0 -0.15574195822E+02 -0.39716988938E+02 -0.79767528162E+01  0.47787269922E+02  0.19999994883E+02 0.  0.
         12    1    1    2    0    0  0.15574195822E+02  0.39716988938E+02  0.79767528162E+01  0.43400730078E+02  0.00000000000E+00 0. -1.
         11    1    3    3    0    0 -0.12899475899E+02 -0.20647098086E+02  0.14222974187E+01  0.24386924121E+02  0.51100000000E-03 0. -1.
        -11    1    3    3    0    0 -0.55120908168E+01 -0.79642191577E+01 -0.61993301059E+01  0.11499722866E+02  0.51100000000E-03 0.  1.
         12    1    3    3    0    0  0.28373708936E+01 -0.11105671694E+02 -0.31997201290E+01  0.11900622936E+02  0.00000000000E+00 0. -1.
</event>
<event>
 7    1  0.1246400E-009  0.4778730E+02  0.7816164E-02  0.1312668E+00
        -11   -1    0    0    0    0  0.00000000000E+00  0.00000000000E+00  0.45593999997E+02  0.45594000000E+02  0.51100000000E-03 0.  1.
         11   -1    0    0    0    0 -0.00000000000E+00 -0.00000000000E+00 -0.45593999997E+02  0.45594000000E+02  0.51100000000E-03 0. -1.
    9900012    2    1    2    0    0 -0.13364897687E+02 -0.22426454140E+02  0.34670656537E+02  0.47787300003E+02  0.20000132035E+02 0.  0.
         12    1    1    2    0    0  0.13364897687E+02  0.22426454140E+02 -0.34670656537E+02  0.43400699997E+02  0.00000000000E+00 0. -1.
         11    1    3    3    0    0 -0.13657193321E+02 -0.94224969343E+01  0.24747164379E+02  0.29794706290E+02  0.51100000000E-03 0.  1.
        -11    1    3    3    0    0 -0.11802011675E+01 -0.38075269852E+01 -0.49638288401E+00  0.40170303419E+01  0.51100000000E-03 0. -1.
        -12    1    3    3    0    0  0.14724968015E+01 -0.91964302210E+01  0.10419875042E+02  0.13975563371E+02  0.00000000000E+00 0.  1.
</event>
<event>
 7    1  0.1246400E-009  0.4778727E+02  0.7816164E-02  0.1312668E+00
        -11   -1    0    0    0    0  0.00000000000E+00  0.00000000000E+00  0.45593999997E+02  0.45594000000E+02  0.51100000000E-03 0.  1.
         11   -1    0    0    0    0 -0.00000000000E+00 -0.00000000000E+00 -0.45593999997E+02  0.45594000000E+02  0.51100000000E-03 0. -1.
    9900012    2    1    2    0    0 -0.14669385677E+02 -0.27431479516E+02  0.30264607105E+02  0.47787269732E+02  0.19999994018E+02 0.  0.
         12    1    1    2    0    0  0.14669385677E+02  0.27431479516E+02 -0.30264607105E+02  0.43400730268E+02  0.00000000000E+00 0. -1.
         11    1    3    3    0    0 -0.14806831549E+02 -0.13120199930E+02  0.13108180406E+02  0.23731967903E+02  0.51100000000E-03 0. -1.
        -11    1    3    3    0    0 -0.34684699855E+01 -0.74193882384E+01  0.49148578898E+01  0.95516194548E+01  0.51100000000E-03 0.  1.
        -12    1    3    3    0    0  0.36059158583E+01 -0.68918913479E+01  0.12241568809E+02  0.14503682375E+02  0.00000000000E+00 0.  1.
</event>
<event>
 7    1  0.1246400E-009  0.4778727E+02  0.7816164E-02  0.1312668E+00
        -11   -1    0    0    0    0  0.00000000000E+00  0.00000000000E+00  0.45593999997E+02  0.45594000000E+02  0.51100000000E-03 0.  1.
         11   -1    0    0    0    0 -0.00000000000E+00 -0.00000000000E+00 -0.45593999997E+02  0.45594000000E+02  0.51100000000E-03 0. -1.
    9900012    2    1    2    0    0 -0.36168437972E+02  0.17385090799E+02  0.16529554796E+02  0.47787268794E+02  0.19999989740E+02 0.  0.
         12    1    1    2    0    0  0.36168437972E+02 -0.17385090799E+02 -0.16529554796E+02  0.43400731206E+02  0.00000000000E+00 0. -1.
         11    1    3    3    0    0  0.87236822971E+00 -0.65945130233E+00  0.40914148631E+01  0.42350416989E+01  0.51100000000E-03 0. -1.
        -11    1    3    3    0    0 -0.13559898166E+02  0.40575529585E+01  0.19947148984E+01  0.14293826012E+02  0.51100000000E-03 0.  1.
        -12    1    3    3    0    0 -0.23480908036E+02  0.13986989143E+02  0.10443425035E+02  0.29258401083E+02  0.00000000000E+00 0.  1.
</event>
<event>
 7    1  0.1246400E-009  0.4778727E+02  0.7816164E-02  0.1312668E+00
        -11   -1    0    0    0    0  0.00000000000E+00  0.00000000000E+00  0.45593999997E+02  0.45594000000E+02  0.51100000000E-03 0.  1.
         11   -1    0    0    0    0 -0.00000000000E+00 -0.00000000000E+00 -0.45593999997E+02  0.45594000000E+02  0.51100000000E-03 0. -1.
    9900012    2    1    2    0    0  0.15672521409E+02  0.55950377202E+01  0.40083552043E+02  0.47787268223E+02  0.19999987134E+02 0.  0.
         12    1    1    2    0    0 -0.15672521409E+02 -0.55950377202E+01 -0.40083552043E+02  0.43400731777E+02  0.00000000000E+00 0. -1.
         11    1    3    3    0    0  0.16932954768E+01 -0.25162543825E+00  0.12634706609E+02  0.12750152010E+02  0.51100000000E-03 0.  1.
        -11    1    3    3    0    0 -0.17456002186E+01  0.29416449431E+01  0.13143454634E+02  0.13581266328E+02  0.51100000000E-03 0. -1.
         12    1    3    3    0    0  0.15724826151E+02  0.29050182154E+01  0.14305390801E+02  0.21455849885E+02  0.00000000000E+00 0. -1.
</event>
<event>
 7    1  0.1246400E-009  0.4778727E+02  0.7816164E-02  0.1312668E+00
        -11   -1    0    0    0    0  0.00000000000E+00  0.00000000000E+00  0.45593999997E+02  0.45594000000E+02  0.51100000000E-03 0.  1.
         11   -1    0    0    0    0 -0.00000000000E+00 -0.00000000000E+00 -0.45593999997E+02  0.45594000000E+02  0.51100000000E-03 0. -1.
    9900012    2    1    2    0    0  0.68217278423E+00  0.16396070143E+02  0.40178683586E+02  0.47787273156E+02  0.20000009630E+02 0.  0.
         12    1    1    2    0    0 -0.68217278423E+00 -0.16396070143E+02 -0.40178683586E+02  0.43400726844E+02  0.00000000000E+00 0. -1.
         11    1    3    3    0    0 -0.79277295497E+01  0.26345781857E+01  0.87249196767E+01  0.12079491780E+02  0.51100000000E-03 0. -1.
        -11    1    3    3    0    0  0.40271049158E+01  0.25000488782E+01  0.92015683845E+01  0.10350684972E+02  0.51100000000E-03 0.  1.
        -12    1    3    3    0    0  0.45827974181E+01  0.11261443079E+02  0.22252195525E+02  0.25357096405E+02  0.00000000000E+00 0.  1.
</event>
<event>
 7    1  0.1246400E-009  0.4778725E+02  0.7816164E-02  0.1312668E+00
        -11   -1    0    0    0    0  0.00000000000E+00  0.00000000000E+00  0.45593999997E+02  0.45594000000E+02  0.51100000000E-03 0. -1.
         11   -1    0    0    0    0 -0.00000000000E+00 -0.00000000000E+00 -0.45593999997E+02  0.45594000000E+02  0.51100000000E-03 0.  1.
    9900012    2    1    2    0    0  0.30159198838E+02 -0.18208694242E+02 -0.25347406841E+02  0.47787252839E+02  0.19999916993E+02 0.  0.
         12    1    1    2    0    0 -0.30159198838E+02  0.18208694242E+02  0.25347406841E+02  0.43400747161E+02  0.00000000000E+00 0. -1.
         11    1    3    3    0    0  0.51343120721E+01 -0.15469193674E+01 -0.62652096404E+01  0.82466339850E+01  0.51100000000E-03 0. -1.
        -11    1    3    3    0    0  0.22341577962E+02 -0.91356070728E+01 -0.20197546428E+02  0.31472945595E+02  0.51100000000E-03 0.  1.
         12    1    3    3    0    0  0.26833088042E+01 -0.75261678016E+01  0.11153492273E+01  0.80676732591E+01  0.00000000000E+00 0. -1.
</event>
<event>
 7    1  0.1246400E-009  0.4778727E+02  0.7816164E-02  0.1312668E+00
        -11   -1    0    0    0    0  0.00000000000E+00  0.00000000000E+00  0.45593999997E+02  0.45594000000E+02  0.51100000000E-03 0.  1.
         11   -1    0    0    0    0 -0.00000000000E+00 -0.00000000000E+00 -0.45593999997E+02  0.45594000000E+02  0.51100000000E-03 0. -1.
    9900012    2    1    2    0    0  0.37331211538E+02 -0.20546586922E+02  0.82366181493E+01  0.47787268813E+02  0.19999989826E+02 0.  0.
         12    1    1    2    0    0 -0.37331211538E+02  0.20546586922E+02 -0.82366181493E+01  0.43400731187E+02  0.00000000000E+00 0. -1.
         11    1    3    3    0    0  0.15226140102E+02 -0.86618816029E+01 -0.33499971721E+01  0.17834966123E+02  0.51100000000E-03 0. -1.
        -11    1    3    3    0    0  0.92685100417E+01 -0.10313351647E+02  0.23591188932E+01  0.14065416553E+02  0.51100000000E-03 0.  1.
         12    1    3    3    0    0  0.12836561395E+02 -0.15713536715E+01  0.92274964282E+01  0.15886886137E+02  0.00000000000E+00 0. -1.
</event>
<event>
 7    1  0.1246400E-009  0.4778727E+02  0.7816164E-02  0.1312668E+00
        -11   -1    0    0    0    0  0.00000000000E+00  0.00000000000E+00  0.45593999997E+02  0.45594000000E+02  0.51100000000E-03 0.  1.
         11   -1    0    0    0    0 -0.00000000000E+00 -0.00000000000E+00 -0.45593999997E+02  0.45594000000E+02  0.51100000000E-03 0. -1.
    9900012    2    1    2    0    0  0.25214978293E+02  0.24756016477E+01  0.35237763427E+02  0.47787266075E+02  0.19999977344E+02 0.  0.
         12    1    1    2    0    0 -0.25214978293E+02 -0.24756016477E+01 -0.35237763427E+02  0.43400733925E+02  0.00000000000E+00 0. -1.
         11    1    3    3    0    0  0.35832353899E+01  0.53841705575E+00 -0.13129492388E+01  0.38539985405E+01  0.51100000000E-03 0. -1.
        -11    1    3    3    0    0  0.17483154455E+02  0.47324910641E+01  0.21716694100E+02  0.28278471745E+02  0.51100000000E-03 0.  1.
        -12    1    3    3    0    0  0.41485884488E+01 -0.27953064722E+01  0.14834018566E+02  0.15654795790E+02  0.00000000000E+00 0.  1.
</event>
<event>
 7    1  0.1246400E-009  0.4778726E+02  0.7816164E-02  0.1312668E+00
        -11   -1    0    0    0    0  0.00000000000E+00  0.00000000000E+00  0.45593999997E+02  0.45594000000E+02  0.51100000000E-03 0. -1.
         11   -1    0    0    0    0 -0.00000000000E+00 -0.00000000000E+00 -0.45593999997E+02  0.45594000000E+02  0.51100000000E-03 0.  1.
    9900012    2    1    2    0    0  0.10820277756E+02  0.34822388738E+02 -0.23536074486E+02  0.47787263021E+02  0.19999963417E+02 0.  0.
         12    1    1    2    0    0 -0.10820277756E+02 -0.34822388738E+02  0.23536074486E+02  0.43400736979E+02  0.00000000000E+00 0. -1.
         11    1    3    3    0    0  0.76610767230E+00  0.62919763321E+01  0.10173100376E+01  0.64195644013E+01  0.51100000000E-03 0. -1.
        -11    1    3    3    0    0  0.26083634495E+01  0.12509945266E+01 -0.82153722067E+01  0.87098156092E+01  0.51100000000E-03 0.  1.
        -12    1    3    3    0    0  0.74458066345E+01  0.27279417879E+02 -0.16338012317E+02  0.32657883010E+02  0.00000000000E+00 0.  1.
</event>
<event>
 7    1  0.1246400E-009  0.4778727E+02  0.7816164E-02  0.1312668E+00
        -11   -1    0    0    0    0  0.00000000000E+00  0.00000000000E+00  0.45593999997E+02  0.45594000000E+02  0.51100000000E-03 0.  1.
         11   -1    0    0    0    0 -0.00000000000E+00 -0.00000000000E+00 -0.45593999997E+02  0.45594000000E+02  0.51100000000E-03 0. -1.
    9900012    2    1    2    0    0  0.27341684829E+02 -0.10786507338E+02  0.31932846019E+02  0.47787272763E+02  0.20000007837E+02 0.  0.
         12    1    1    2    0    0 -0.27341684829E+02  0.10786507338E+02 -0.31932846019E+02  0.43400727237E+02  0.00000000000E+00 0. -1.
         11    1    3    3    0    0  0.74300205847E+01  0.36009403399E+01  0.67737477438E+01  0.10679683328E+02  0.51100000000E-03 0. -1.
        -11    1    3    3    0    0  0.28401615107E+01  0.20685014096E+01  0.40454005948E+01  0.53582162818E+01  0.51100000000E-03 0.  1.
        -12    1    3    3    0    0  0.17071502733E+02 -0.16455949088E+02  0.21113697680E+02  0.31749373154E+02  0.00000000000E+00 0.  1.
</event>
<event>
 7    1  0.1246400E-009  0.4778724E+02  0.7816164E-02  0.1312668E+00
        -11   -1    0    0    0    0  0.00000000000E+00  0.00000000000E+00  0.45593999997E+02  0.45594000000E+02  0.51100000000E-03 0.  1.
         11   -1    0    0    0    0 -0.00000000000E+00 -0.00000000000E+00 -0.45593999997E+02  0.45594000000E+02  0.51100000000E-03 0. -1.
    9900012    2    1    2    0    0 -0.40426746629E+02  0.57929118596E+01  0.14688309279E+02  0.47787238483E+02  0.19999851538E+02 0.  0.
         12    1    1    2    0    0  0.40426746629E+02 -0.57929118596E+01 -0.14688309279E+02  0.43400761517E+02  0.00000000000E+00 0. -1.
         11    1    3    3    0    0 -0.15036796601E+02  0.23796476541E+01  0.30591129228E+00  0.15227000918E+02  0.51100000000E-03 0. -1.
        -11    1    3    3    0    0  0.70517964351E+00 -0.35465817424E+00  0.42369856196E+01  0.43098849349E+01  0.51100000000E-03 0.  1.
        -12    1    3    3    0    0 -0.26095129671E+02  0.37679223797E+01  0.10145412367E+02  0.28250352630E+02  0.00000000000E+00 0.  1.
</event>
<event>
 7    1  0.1246400E-009  0.4778727E+02  0.7816164E-02  0.1312668E+00
        -11   -1    0    0    0    0  0.00000000000E+00  0.00000000000E+00  0.45593999997E+02  0.45594000000E+02  0.51100000000E-03 0.  1.
         11   -1    0    0    0    0 -0.00000000000E+00 -0.00000000000E+00 -0.45593999997E+02  0.45594000000E+02  0.51100000000E-03 0. -1.
    9900012    2    1    2    0    0  0.93814886768E+01 -0.10692493677E+02  0.41003437806E+02  0.47787266564E+02  0.19999979573E+02 0.  0.
         12    1    1    2    0    0 -0.93814886768E+01  0.10692493677E+02 -0.41003437806E+02  0.43400733436E+02  0.00000000000E+00 0. -1.
         11    1    3    3    0    0  0.11009576367E+02 -0.22909542657E+01  0.26711000683E+02  0.28981663185E+02  0.51100000000E-03 0. -1.
        -11    1    3    3    0    0  0.25447690585E+01 -0.55342246956E+01  0.38650329071E+01  0.72140122107E+01  0.51100000000E-03 0.  1.
        -12    1    3    3    0    0 -0.41728567487E+01 -0.28673147156E+01  0.10427404216E+02  0.11591591168E+02  0.00000000000E+00 0.  1.
</event>
<event>
 7    1  0.1246400E-009  0.4778727E+02  0.7816164E-02  0.1312668E+00
        -11   -1    0    0    0    0  0.00000000000E+00  0.00000000000E+00  0.45593999997E+02  0.45594000000E+02  0.51100000000E-03 0. -1.
         11   -1    0    0    0    0 -0.00000000000E+00 -0.00000000000E+00 -0.45593999997E+02  0.45594000000E+02  0.51100000000E-03 0.  1.
    9900012    2    1    2    0    0 -0.52323605546E+01  0.15104684898E+02 -0.40349647961E+02  0.47787271971E+02  0.20000004226E+02 0.  0.
         12    1    1    2    0    0  0.52323605546E+01 -0.15104684898E+02  0.40349647961E+02  0.43400728029E+02  0.00000000000E+00 0. -1.
         11    1    3    3    0    0 -0.52552291438E+01 -0.43709218041E+00 -0.82248658850E+01  0.97702048093E+01  0.51100000000E-03 0. -1.
        -11    1    3    3    0    0 -0.49878088883E+00 -0.14741790276E+01 -0.98992362557E+01  0.10020821568E+02  0.51100000000E-03 0.  1.
        -12    1    3    3    0    0  0.52164947800E+00  0.17015956106E+02 -0.22225545820E+02  0.27996245595E+02  0.00000000000E+00 0.  1.
</event>
<event>
 7    1  0.1246400E-009  0.4778726E+02  0.7816164E-02  0.1312668E+00
        -11   -1    0    0    0    0  0.00000000000E+00  0.00000000000E+00  0.45593999997E+02  0.45594000000E+02  0.51100000000E-03 0. -1.
         11   -1    0    0    0    0 -0.00000000000E+00 -0.00000000000E+00 -0.45593999997E+02  0.45594000000E+02  0.51100000000E-03 0.  1.
    9900012    2    1    2    0    0 -0.19235135868E+02 -0.26193639423E+02 -0.28766763260E+02  0.47787264216E+02  0.19999968869E+02 0.  0.
         12    1    1    2    0    0  0.19235135868E+02  0.26193639423E+02  0.28766763260E+02  0.43400735784E+02  0.00000000000E+00 0. -1.
         11    1    3    3    0    0 -0.71764697331E+01 -0.17943415344E+01 -0.28453192286E+00  0.74028601262E+01  0.51100000000E-03 0. -1.
        -11    1    3    3    0    0 -0.11765450411E+02 -0.16432799913E+02 -0.17019232358E+02  0.26421903918E+02  0.51100000000E-03 0.  1.
        -12    1    3    3    0    0 -0.29321572426E+00 -0.79664979757E+01 -0.11462998979E+02  0.13962500172E+02  0.00000000000E+00 0.  1.
</event>
<event>
 7    1  0.1246400E-009  0.4778727E+02  0.7816164E-02  0.1312668E+00
        -11   -1    0    0    0    0  0.00000000000E+00  0.00000000000E+00  0.45593999997E+02  0.45594000000E+02  0.51100000000E-03 0. -1.
         11   -1    0    0    0    0 -0.00000000000E+00 -0.00000000000E+00 -0.45593999997E+02  0.45594000000E+02  0.51100000000E-03 0.  1.
    9900012    2    1    2    0    0  0.43321275668E+02  0.24130274631E+01  0.10332274942E+01  0.47787272056E+02  0.20000004611E+02 0.  0.
         12    1    1    2    0    0 -0.43321275668E+02 -0.24130274631E+01 -0.10332274942E+01  0.43400727944E+02  0.00000000000E+00 0. -1.
         11    1    3    3    0    0  0.22360254395E+02  0.44286650913E+01 -0.35521817187E+01  0.23069721418E+02  0.51100000000E-03 0. -1.
        -11    1    3    3    0    0  0.18236589817E+02 -0.62058651972E+01  0.41080601708E+01  0.19696754292E+02  0.51100000000E-03 0.  1.
         12    1    3    3    0    0  0.27244314566E+01  0.41902275691E+01  0.47734904204E+00  0.50207963462E+01  0.00000000000E+00 0. -1.
</event>
<event>
 7    1  0.1317037E-009  0.4778727E+02  0.7816164E-02  0.1312668E+00
        -11   -1    0    0    0    0  0.00000000000E+00  0.00000000000E+00  0.45593999997E+02  0.45594000000E+02  0.51100000000E-03 0.  1.
         11   -1    0    0    0    0 -0.00000000000E+00 -0.00000000000E+00 -0.45593999997E+02  0.45594000000E+02  0.51100000000E-03 0. -1.
    9900012    2    1    2    0    0  0.58824839485E+01 -0.28912866418E+02  0.31828692655E+02  0.47787272609E+02  0.20000007133E+02 0.  0.
         12    1    1    2    0    0 -0.58824839485E+01  0.28912866418E+02 -0.31828692655E+02  0.43400727391E+02  0.00000000000E+00 0. -1.
         11    1    3    3    0    0  0.62361746274E+01 -0.64598356566E+01  0.23237133446E+01  0.92746425625E+01  0.51100000000E-03 0. -1.
        -11    1    3    3    0    0  0.29457503163E+01 -0.66422436517E+01  0.15564813783E+02  0.17177318592E+02  0.51100000000E-03 0.  1.
        -12    1    3    3    0    0 -0.32994409953E+01 -0.15810787110E+02  0.13940165528E+02  0.21335311455E+02  0.00000000000E+00 0.  1.
</event>
<event>
 7    1  0.1246400E-009  0.4778727E+02  0.7816164E-02  0.1312668E+00
        -11   -1    0    0    0    0  0.00000000000E+00  0.00000000000E+00  0.45593999997E+02  0.45594000000E+02  0.51100000000E-03 0.  1.
         11   -1    0    0    0    0 -0.00000000000E+00 -0.00000000000E+00 -0.45593999997E+02  0.45594000000E+02  0.51100000000E-03 0. -1.
    9900012    2    1    2    0    0  0.46179784980E+01 -0.16533007206E+02  0.39861722646E+02  0.47787274372E+02  0.20000015174E+02 0.  0.
         12    1    1    2    0    0 -0.46179784980E+01  0.16533007206E+02 -0.39861722646E+02  0.43400725628E+02  0.00000000000E+00 0. -1.
         11    1    3    3    0    0 -0.49326886030E+00  0.29233032128E+01  0.13839727878E+01  0.32717574453E+01  0.51100000000E-03 0. -1.
        -11    1    3    3    0    0 -0.19923973528E+01 -0.11690824518E+02  0.20622802335E+02  0.23789598600E+02  0.51100000000E-03 0.  1.
        -12    1    3    3    0    0  0.71036447111E+01 -0.77654859006E+01  0.17854947524E+02  0.20725918328E+02  0.00000000000E+00 0.  1.
</event>
<event>
 7    1  0.1246400E-009  0.4778727E+02  0.7816164E-02  0.1312668E+00
        -11   -1    0    0    0    0  0.00000000000E+00  0.00000000000E+00  0.45593999997E+02  0.45594000000E+02  0.51100000000E-03 0. -1.
         11   -1    0    0    0    0 -0.00000000000E+00 -0.00000000000E+00 -0.45593999997E+02  0.45594000000E+02  0.51100000000E-03 0.  1.
    9900012    2    1    2    0    0  0.39828294160E+02  0.14370343963E+02  0.95301316542E+01  0.47787271773E+02  0.20000003322E+02 0.  0.
         12    1    1    2    0    0 -0.39828294160E+02 -0.14370343963E+02 -0.95301316542E+01  0.43400728227E+02  0.00000000000E+00 0. -1.
         11    1    3    3    0    0  0.13082022218E+02  0.10832834510E+01  0.98584169705E+01  0.16416491519E+02  0.51100000000E-03 0. -1.
        -11    1    3    3    0    0  0.14381325300E+02  0.22638700226E+01 -0.21084124585E+01  0.14710303471E+02  0.51100000000E-03 0.  1.
        -12    1    3    3    0    0  0.12364946642E+02  0.11023190489E+02  0.17801271423E+01  0.16660476783E+02  0.00000000000E+00 0.  1.
</event>
<event>
 7    1  0.1246400E-009  0.4778727E+02  0.7816164E-02  0.1312668E+00
        -11   -1    0    0    0    0  0.00000000000E+00  0.00000000000E+00  0.45593999997E+02  0.45594000000E+02  0.51100000000E-03 0.  1.
         11   -1    0    0    0    0 -0.00000000000E+00 -0.00000000000E+00 -0.45593999997E+02  0.45594000000E+02  0.51100000000E-03 0. -1.
    9900012    2    1    2    0    0 -0.96289173915E+01  0.36510810634E+02 -0.21397851007E+02  0.47787269926E+02  0.19999994899E+02 0.  0.
         12    1    1    2    0    0  0.96289173915E+01 -0.36510810634E+02  0.21397851007E+02  0.43400730074E+02  0.00000000000E+00 0. -1.
         11    1    3    3    0    0 -0.60340480333E+01  0.41963172145E+01 -0.87289671035E+01  0.11411120926E+02  0.51100000000E-03 0. -1.
        -11    1    3    3    0    0  0.31520448759E+01  0.86583610715E+01 -0.55944981734E+01  0.10779657389E+02  0.51100000000E-03 0.  1.
         12    1    3    3    0    0 -0.67469142341E+01  0.23656132347E+02 -0.70743857306E+01  0.25596491611E+02  0.00000000000E+00 0. -1.
</event>
<event>
 7    1  0.1246400E-009  0.4778727E+02  0.7816164E-02  0.1312668E+00
        -11   -1    0    0    0    0  0.00000000000E+00  0.00000000000E+00  0.45593999997E+02  0.45594000000E+02  0.51100000000E-03 0.  1.
         11   -1    0    0    0    0 -0.00000000000E+00 -0.00000000000E+00 -0.45593999997E+02  0.45594000000E+02  0.51100000000E-03 0. -1.
    9900012    2    1    2    0    0 -0.19521463629E+02  0.38468112142E+02  0.47686678939E+01  0.47787269735E+02  0.19999994031E+02 0.  0.
         12    1    1    2    0    0  0.19521463629E+02 -0.38468112142E+02 -0.47686678939E+01  0.43400730265E+02  0.00000000000E+00 0. -1.
         11    1    3    3    0    0 -0.25583078715E+01  0.29271334881E+01 -0.36533552733E+01  0.53347965881E+01  0.51100000000E-03 0. -1.
        -11    1    3    3    0    0  0.20934468556E+01  0.29162706903E+01  0.20571035907E+01  0.41374907759E+01  0.51100000000E-03 0.  1.
         12    1    3    3    0    0 -0.19056602613E+02  0.32624707964E+02  0.63649195764E+01  0.38314982371E+02  0.00000000000E+00 0. -1.
</event>
<event>
 7    1  0.1246400E-009  0.4778727E+02  0.7816164E-02  0.1312668E+00
        -11   -1    0    0    0    0  0.00000000000E+00  0.00000000000E+00  0.45593999997E+02  0.45594000000E+02  0.51100000000E-03 0.  1.
         11   -1    0    0    0    0 -0.00000000000E+00 -0.00000000000E+00 -0.45593999997E+02  0.45594000000E+02  0.51100000000E-03 0. -1.
    9900012    2    1    2    0    0 -0.44355457627E+01 -0.43023431431E+02 -0.35963481250E+01  0.47787269152E+02  0.19999991371E+02 0.  0.
         12    1    1    2    0    0  0.44355457627E+01  0.43023431431E+02  0.35963481250E+01  0.43400730848E+02  0.00000000000E+00 0. -1.
         11    1    3    3    0    0 -0.33582972395E+01 -0.33228691508E+01 -0.19327389996E+01  0.51044196579E+01  0.51100000000E-03 0. -1.
        -11    1    3    3    0    0  0.64704131416E+00 -0.16442024837E+01  0.38066127252E+01  0.41967088261E+01  0.51100000000E-03 0.  1.
        -12    1    3    3    0    0 -0.17242898374E+01 -0.38056359797E+02 -0.54702218506E+01  0.38486140668E+02  0.00000000000E+00 0.  1.
</event>
<event>
 7    1  0.1246400E-009  0.4778727E+02  0.7816164E-02  0.1312668E+00
        -11   -1    0    0    0    0  0.00000000000E+00  0.00000000000E+00  0.45593999997E+02  0.45594000000E+02  0.51100000000E-03 0.  1.
         11   -1    0    0    0    0 -0.00000000000E+00 -0.00000000000E+00 -0.45593999997E+02  0.45594000000E+02  0.51100000000E-03 0. -1.
    9900012    2    1    2    0    0 -0.28925861916E+02  0.26009646476E+02  0.19246197750E+02  0.47787270453E+02  0.19999997303E+02 0.  0.
         12    1    1    2    0    0  0.28925861916E+02 -0.26009646476E+02 -0.19246197750E+02  0.43400729547E+02  0.00000000000E+00 0. -1.
         11    1    3    3    0    0  0.57825248749E+00  0.25890338721E+01 -0.22485233027E+01  0.34775464963E+01  0.51100000000E-03 0. -1.
        -11    1    3    3    0    0 -0.63928250298E+01  0.16638449773E+01  0.14304296219E+01  0.67588994026E+01  0.51100000000E-03 0.  1.
        -12    1    3    3    0    0 -0.23111289374E+02  0.21756767626E+02  0.20064291431E+02  0.37550824554E+02  0.00000000000E+00 0.  1.
</event>
<event>
 7    1  0.1246400E-009  0.4778727E+02  0.7816164E-02  0.1312668E+00
        -11   -1    0    0    0    0  0.00000000000E+00  0.00000000000E+00  0.45593999997E+02  0.45594000000E+02  0.51100000000E-03 0.  1.
         11   -1    0    0    0    0 -0.00000000000E+00 -0.00000000000E+00 -0.45593999997E+02  0.45594000000E+02  0.51100000000E-03 0. -1.
    9900012    2    1    2    0    0 -0.68383787302E+01  0.37612465355E+02  0.20546584808E+02  0.47787272805E+02  0.20000008028E+02 0.  0.
         12    1    1    2    0    0  0.68383787302E+01 -0.37612465355E+02 -0.20546584808E+02  0.43400727195E+02  0.00000000000E+00 0. -1.
         11    1    3    3    0    0  0.10319508913E+01  0.31927252031E+02  0.14742986834E+02  0.35181955687E+02  0.51100000000E-03 0. -1.
        -11    1    3    3    0    0 -0.56960016638E+01  0.65789405370E+01  0.53378100189E+01  0.10208776107E+02  0.51100000000E-03 0.  1.
         12    1    3    3    0    0 -0.21743279577E+01 -0.89372721296E+00  0.46578795526E+00  0.23965410112E+01  0.00000000000E+00 0. -1.
</event>
<event>
 7    1  0.1246400E-009  0.4778727E+02  0.7816164E-02  0.1312668E+00
        -11   -1    0    0    0    0  0.00000000000E+00  0.00000000000E+00  0.45593999997E+02  0.45594000000E+02  0.51100000000E-03 0. -1.
         11   -1    0    0    0    0 -0.00000000000E+00 -0.00000000000E+00 -0.45593999997E+02  0.45594000000E+02  0.51100000000E-03 0.  1.
    9900012    2    1    2    0    0 -0.41001966832E+00 -0.70138791209E+01 -0.42828269707E+02  0.47787270714E+02  0.19999998495E+02 0.  0.
         12    1    1    2    0    0  0.41001966832E+00  0.70138791209E+01  0.42828269707E+02  0.43400729286E+02  0.00000000000E+00 0. -1.
         11    1    3    3    0    0  0.43512692330E+01 -0.79941304741E+00 -0.73020674391E+01  0.85377277016E+01  0.51100000000E-03 0. -1.
        -11    1    3    3    0    0 -0.73124141925E+01 -0.78930911094E+01 -0.14790637289E+02  0.18290304542E+02  0.51100000000E-03 0.  1.
        -12    1    3    3    0    0  0.25511252911E+01  0.16786250358E+01 -0.20735564979E+02  0.20959238470E+02  0.00000000000E+00 0.  1.
</event>
<event>
 7    1  0.1246400E-009  0.4778727E+02  0.7816164E-02  0.1312668E+00
        -11   -1    0    0    0    0  0.00000000000E+00  0.00000000000E+00  0.45593999997E+02  0.45594000000E+02  0.51100000000E-03 0.  1.
         11   -1    0    0    0    0 -0.00000000000E+00 -0.00000000000E+00 -0.45593999997E+02  0.45594000000E+02  0.51100000000E-03 0. -1.
    9900012    2    1    2    0    0 -0.38397034594E+02 -0.15053854374E+02 -0.13515625708E+02  0.47787274944E+02  0.20000017779E+02 0.  0.
         12    1    1    2    0    0  0.38397034594E+02  0.15053854374E+02  0.13515625708E+02  0.43400725056E+02  0.00000000000E+00 0. -1.
         11    1    3    3    0    0 -0.26435880089E+02 -0.66358657932E+01 -0.71244178271E+01  0.28171755368E+02  0.51100000000E-03 0. -1.
        -11    1    3    3    0    0 -0.10806775146E+02 -0.10777827120E+02 -0.34042725929E+01  0.15637679452E+02  0.51100000000E-03 0.  1.
         12    1    3    3    0    0 -0.11543793594E+01  0.23598385395E+01 -0.29869352876E+01  0.39778401238E+01  0.00000000000E+00 0. -1.
</event>
<event>
 7    1  0.1246400E-009  0.4778727E+02  0.7816164E-02  0.1312668E+00
        -11   -1    0    0    0    0  0.00000000000E+00  0.00000000000E+00  0.45593999997E+02  0.45594000000E+02  0.51100000000E-03 0.  1.
         11   -1    0    0    0    0 -0.00000000000E+00 -0.00000000000E+00 -0.45593999997E+02  0.45594000000E+02  0.51100000000E-03 0. -1.
    9900012    2    1    2    0    0  0.42826284668E+02  0.30218565133E+01  0.63561890235E+01  0.47787269429E+02  0.19999992633E+02 0.  0.
         12    1    1    2    0    0 -0.42826284668E+02 -0.30218565133E+01 -0.63561890235E+01  0.43400730571E+02  0.00000000000E+00 0. -1.
         11    1    3    3    0    0  0.53314782460E+01  0.44052081781E+01 -0.73464635574E-01  0.69163514004E+01  0.51100000000E-03 0. -1.
        -11    1    3    3    0    0  0.56929339603E+01 -0.53526370164E+01 -0.12540004791E+01  0.79140847588E+01  0.51100000000E-03 0.  1.
         12    1    3    3    0    0  0.31801872461E+02  0.39692853516E+01  0.76836541382E+01  0.32956833270E+02  0.00000000000E+00 0. -1.
</event>
<event>
 7    1  0.1246400E-009  0.4778726E+02  0.7816164E-02  0.1312668E+00
        -11   -1    0    0    0    0  0.00000000000E+00  0.00000000000E+00  0.45593999997E+02  0.45594000000E+02  0.51100000000E-03 0.  1.
         11   -1    0    0    0    0 -0.00000000000E+00 -0.00000000000E+00 -0.45593999997E+02  0.45594000000E+02  0.51100000000E-03 0. -1.
    9900012    2    1    2    0    0 -0.37242215664E+02 -0.55619501837E+01  0.21580224283E+02  0.47787262708E+02  0.19999961991E+02 0.  0.
         12    1    1    2    0    0  0.37242215664E+02  0.55619501837E+01 -0.21580224283E+02  0.43400737292E+02  0.00000000000E+00 0. -1.
         11    1    3    3    0    0 -0.15459333872E+02 -0.97684618547E+01  0.11015292759E+02  0.21348314350E+02  0.51100000000E-03 0. -1.
        -11    1    3    3    0    0 -0.20259928883E+02  0.24384573630E+01  0.12025575085E+02  0.23685971567E+02  0.51100000000E-03 0.  1.
        -12    1    3    3    0    0 -0.15229529088E+01  0.17680543079E+01 -0.14606435616E+01  0.27529767911E+01  0.00000000000E+00 0.  1.
</event>
<event>
 7    1  0.1246400E-009  0.4778727E+02  0.7816164E-02  0.1312668E+00
        -11   -1    0    0    0    0  0.00000000000E+00  0.00000000000E+00  0.45593999997E+02  0.45594000000E+02  0.51100000000E-03 0.  1.
         11   -1    0    0    0    0 -0.00000000000E+00 -0.00000000000E+00 -0.45593999997E+02  0.45594000000E+02  0.51100000000E-03 0. -1.
    9900012    2    1    2    0    0  0.70005372381E+01 -0.21322512224E+01  0.42779309130E+02  0.47787270668E+02  0.19999998282E+02 0.  0.
         12    1    1    2    0    0 -0.70005372381E+01  0.21322512224E+01 -0.42779309130E+02  0.43400729332E+02  0.00000000000E+00 0. -1.
         11    1    3    3    0    0 -0.37081703562E+01  0.10192621937E+01  0.11081354579E+02  0.11729699159E+02  0.51100000000E-03 0. -1.
        -11    1    3    3    0    0 -0.97675608785E+00 -0.43443601841E+01  0.14964790816E+02  0.15613214989E+02  0.51100000000E-03 0.  1.
        -12    1    3    3    0    0  0.11685463682E+02  0.11928467681E+01  0.16733163736E+02  0.20444356519E+02  0.00000000000E+00 0.  1.
</event>
<event>
 7    1  0.1246400E-009  0.4778727E+02  0.7816164E-02  0.1312668E+00
        -11   -1    0    0    0    0  0.00000000000E+00  0.00000000000E+00  0.45593999997E+02  0.45594000000E+02  0.51100000000E-03 0.  1.
         11   -1    0    0    0    0 -0.00000000000E+00 -0.00000000000E+00 -0.45593999997E+02  0.45594000000E+02  0.51100000000E-03 0. -1.
    9900012    2    1    2    0    0 -0.42332806161E+02  0.27407219404E+01  0.91676164733E+01  0.47787271596E+02  0.20000002514E+02 0.  0.
         12    1    1    2    0    0  0.42332806161E+02 -0.27407219404E+01 -0.91676164733E+01  0.43400728404E+02  0.00000000000E+00 0. -1.
         11    1    3    3    0    0 -0.51308120195E+01 -0.58700772919E+01 -0.14755760043E+00  0.77977440904E+01  0.51100000000E-03 0. -1.
        -11    1    3    3    0    0 -0.23005329500E+02  0.16558036141E+01  0.60869407870E+01  0.23854511510E+02  0.51100000000E-03 0.  1.
        -12    1    3    3    0    0 -0.14196664642E+02  0.69549956182E+01  0.32282332867E+01  0.16135015995E+02  0.00000000000E+00 0.  1.
</event>
<event>
 7    1  0.1246400E-009  0.4778726E+02  0.7816164E-02  0.1312668E+00
        -11   -1    0    0    0    0  0.00000000000E+00  0.00000000000E+00  0.45593999997E+02  0.45594000000E+02  0.51100000000E-03 0.  1.
         11   -1    0    0    0    0 -0.00000000000E+00 -0.00000000000E+00 -0.45593999997E+02  0.45594000000E+02  0.51100000000E-03 0. -1.
    9900012    2    1    2    0    0  0.28849212170E+02  0.24057127812E+02  0.21739415751E+02  0.47787255323E+02  0.19999928318E+02 0.  0.
         12    1    1    2    0    0 -0.28849212170E+02 -0.24057127812E+02 -0.21739415751E+02  0.43400744677E+02  0.00000000000E+00 0. -1.
         11    1    3    3    0    0  0.11280574985E+01  0.31748136665E+00  0.39004371323E+01  0.40726794893E+01  0.51100000000E-03 0. -1.
        -11    1    3    3    0    0  0.13557207780E+02  0.22404047655E+01  0.32400841166E+01  0.14117912086E+02  0.51100000000E-03 0.  1.
         12    1    3    3    0    0  0.14163946891E+02  0.21499241679E+02  0.14598894502E+02  0.29596663748E+02  0.00000000000E+00 0. -1.
</event>
<event>
 7    1  0.1246400E-009  0.4778727E+02  0.7816164E-02  0.1312668E+00
        -11   -1    0    0    0    0  0.00000000000E+00  0.00000000000E+00  0.45593999997E+02  0.45594000000E+02  0.51100000000E-03 0.  1.
         11   -1    0    0    0    0 -0.00000000000E+00 -0.00000000000E+00 -0.45593999997E+02  0.45594000000E+02  0.51100000000E-03 0. -1.
    9900012    2    1    2    0    0 -0.12646802114E+02 -0.18816783860E+02  0.37008245444E+02  0.47787272017E+02  0.20000004436E+02 0.  0.
         12    1    1    2    0    0  0.12646802114E+02  0.18816783860E+02 -0.37008245444E+02  0.43400727983E+02  0.00000000000E+00 0. -1.
         11    1    3    3    0    0 -0.73821509330E+01  0.16574011385E+01  0.13268174187E+02  0.15273754530E+02  0.51100000000E-03 0. -1.
        -11    1    3    3    0    0 -0.55939581268E+01 -0.86993042715E+01  0.12593033782E+02  0.16295851080E+02  0.51100000000E-03 0.  1.
         12    1    3    3    0    0  0.32930694587E+00 -0.11774880727E+02  0.11147037475E+02  0.16217666407E+02  0.00000000000E+00 0. -1.
</event>
<event>
 7    1  0.1246400E-009  0.4778727E+02  0.7816164E-02  0.1312668E+00
        -11   -1    0    0    0    0  0.00000000000E+00  0.00000000000E+00  0.45593999997E+02  0.45594000000E+02  0.51100000000E-03 0.  1.
         11   -1    0    0    0    0 -0.00000000000E+00 -0.00000000000E+00 -0.45593999997E+02  0.45594000000E+02  0.51100000000E-03 0. -1.
    9900012    2    1    2    0    0  0.23148298845E+02 -0.27092250809E+02  0.24774774894E+02  0.47787271154E+02  0.20000000500E+02 0.  0.
         12    1    1    2    0    0 -0.23148298845E+02  0.27092250809E+02 -0.24774774894E+02  0.43400728846E+02  0.00000000000E+00 0. -1.
         11    1    3    3    0    0 -0.17367427642E+01  0.24016145782E+00  0.28782536468E+00  0.17767376443E+01  0.51100000000E-03 0. -1.
        -11    1    3    3    0    0  0.16057765349E+02 -0.19776967848E+02  0.22953535085E+02  0.34290597231E+02  0.51100000000E-03 0.  1.
         12    1    3    3    0    0  0.88272762596E+01 -0.75554444191E+01  0.15334144442E+01  0.11719936279E+02  0.00000000000E+00 0. -1.
</event>
<event>
 7    1  0.1246400E-009  0.4778728E+02  0.7816164E-02  0.1312668E+00
        -11   -1    0    0    0    0  0.00000000000E+00  0.00000000000E+00  0.45593999997E+02  0.45594000000E+02  0.51100000000E-03 0. -1.
         11   -1    0    0    0    0 -0.00000000000E+00 -0.00000000000E+00 -0.45593999997E+02  0.45594000000E+02  0.51100000000E-03 0.  1.
    9900012    2    1    2    0    0  0.39715855353E+02  0.12440954717E+02  0.12308382728E+02  0.47787276434E+02  0.20000024571E+02 0.  0.
         12    1    1    2    0    0 -0.39715855353E+02 -0.12440954717E+02 -0.12308382728E+02  0.43400723566E+02  0.00000000000E+00 0. -1.
         11    1    3    3    0    0  0.41738487097E+01  0.52283345163E+01 -0.23309544221E+01  0.70844790666E+01  0.51100000000E-03 0. -1.
        -11    1    3    3    0    0  0.20828498829E+02  0.98002362026E+01  0.82179392925E+01  0.24441880443E+02  0.51100000000E-03 0.  1.
        -12    1    3    3    0    0  0.14713507814E+02 -0.25876160016E+01  0.64213978580E+01  0.16260916924E+02  0.00000000000E+00 0.  1.
</event>
<event>
 7    1  0.1246400E-009  0.4778727E+02  0.7816164E-02  0.1312668E+00
        -11   -1    0    0    0    0  0.00000000000E+00  0.00000000000E+00  0.45593999997E+02  0.45594000000E+02  0.51100000000E-03 0.  1.
         11   -1    0    0    0    0 -0.00000000000E+00 -0.00000000000E+00 -0.45593999997E+02  0.45594000000E+02  0.51100000000E-03 0. -1.
    9900012    2    1    2    0    0  0.26464515085E+02  0.61579893648E+00  0.34392926782E+02  0.47787272130E+02  0.20000004948E+02 0.  0.
         12    1    1    2    0    0 -0.26464515085E+02 -0.61579893648E+00 -0.34392926782E+02  0.43400727870E+02  0.00000000000E+00 0. -1.
         11    1    3    3    0    0  0.26285338881E+02 -0.29041132723E+01  0.32935362544E+02  0.42238501633E+02  0.51100000000E-03 0.  1.
        -11    1    3    3    0    0  0.12299728779E+01  0.34576110794E+01  0.21832874829E+01  0.42702051650E+01  0.51100000000E-03 0. -1.
        -12    1    3    3    0    0 -0.10507966738E+01  0.62301129310E-01 -0.72572324484E+00  0.12785653321E+01  0.00000000000E+00 0.  1.
</event>
<event>
 7    1  0.1246400E-009  0.4778727E+02  0.7816164E-02  0.1312668E+00
        -11   -1    0    0    0    0  0.00000000000E+00  0.00000000000E+00  0.45593999997E+02  0.45594000000E+02  0.51100000000E-03 0. -1.
         11   -1    0    0    0    0 -0.00000000000E+00 -0.00000000000E+00 -0.45593999997E+02  0.45594000000E+02  0.51100000000E-03 0.  1.
    9900012    2    1    2    0    0  0.24996998246E+02 -0.15592052016E+02 -0.31869445516E+02  0.47787267692E+02  0.19999984715E+02 0.  0.
         12    1    1    2    0    0 -0.24996998246E+02  0.15592052016E+02  0.31869445516E+02  0.43400732308E+02  0.00000000000E+00 0. -1.
         11    1    3    3    0    0  0.17099247738E+01  0.29247070005E+00 -0.47997609394E+01  0.51036347027E+01  0.51100000000E-03 0. -1.
        -11    1    3    3    0    0 -0.12485605409E+01 -0.38446695621E+01 -0.91476560066E+01  0.10000999857E+02  0.51100000000E-03 0.  1.
         12    1    3    3    0    0  0.24535634013E+02 -0.12039853154E+02 -0.17922028570E+02  0.32682633132E+02  0.00000000000E+00 0. -1.
</event>
<event>
 7    1  0.1246400E-009  0.4778727E+02  0.7816164E-02  0.1312668E+00
        -11   -1    0    0    0    0  0.00000000000E+00  0.00000000000E+00  0.45593999997E+02  0.45594000000E+02  0.51100000000E-03 0.  1.
         11   -1    0    0    0    0 -0.00000000000E+00 -0.00000000000E+00 -0.45593999997E+02  0.45594000000E+02  0.51100000000E-03 0. -1.
    9900012    2    1    2    0    0  0.11764840863E+02  0.12648360310E+02  0.39814956914E+02  0.47787270822E+02  0.19999998987E+02 0.  0.
         12    1    1    2    0    0 -0.11764840863E+02 -0.12648360310E+02 -0.39814956914E+02  0.43400729178E+02  0.00000000000E+00 0. -1.
         11    1    3    3    0    0  0.14664287371E+01  0.13877882629E+01 -0.23077549417E+00  0.20321483936E+01  0.51100000000E-03 0. -1.
        -11    1    3    3    0    0  0.91696331644E+01  0.13556520403E+02  0.39975109184E+02  0.43195726320E+02  0.51100000000E-03 0.  1.
        -12    1    3    3    0    0  0.11287789617E+01 -0.22959483564E+01  0.70623224782E-01  0.25593961083E+01  0.00000000000E+00 0.  1.
</event>
<event>
 7    1  0.1246400E-009  0.4778727E+02  0.7816164E-02  0.1312668E+00
        -11   -1    0    0    0    0  0.00000000000E+00  0.00000000000E+00  0.45593999997E+02  0.45594000000E+02  0.51100000000E-03 0.  1.
         11   -1    0    0    0    0 -0.00000000000E+00 -0.00000000000E+00 -0.45593999997E+02  0.45594000000E+02  0.51100000000E-03 0. -1.
    9900012    2    1    2    0    0 -0.14230741627E+02 -0.12293978214E+02  0.39114799044E+02  0.47787269455E+02  0.19999992752E+02 0.  0.
         12    1    1    2    0    0  0.14230741627E+02  0.12293978214E+02 -0.39114799044E+02  0.43400730545E+02  0.00000000000E+00 0. -1.
         11    1    3    3    0    0 -0.23349194659E+01 -0.51389617717E+01  0.42553293594E+01  0.70688475172E+01  0.51100000000E-03 0. -1.
        -11    1    3    3    0    0 -0.58292079147E+01 -0.11427070101E+02  0.27097481069E+02  0.29980511612E+02  0.51100000000E-03 0.  1.
         12    1    3    3    0    0 -0.60666142465E+01  0.42720536585E+01  0.77619886160E+01  0.10737910325E+02  0.00000000000E+00 0. -1.
</event>
<event>
 7    1  0.1246400E-009  0.4778727E+02  0.7816164E-02  0.1312668E+00
        -11   -1    0    0    0    0  0.00000000000E+00  0.00000000000E+00  0.45593999997E+02  0.45594000000E+02  0.51100000000E-03 0.  1.
         11   -1    0    0    0    0 -0.00000000000E+00 -0.00000000000E+00 -0.45593999997E+02  0.45594000000E+02  0.51100000000E-03 0. -1.
    9900012    2    1    2    0    0  0.73456698468E+00  0.43218992148E+02  0.38990433946E+01  0.47787269473E+02  0.19999992834E+02 0.  0.
         12    1    1    2    0    0 -0.73456698468E+00 -0.43218992148E+02 -0.38990433946E+01  0.43400730527E+02  0.00000000000E+00 0. -1.
         11    1    3    3    0    0  0.29793795609E+01  0.18307813965E+02  0.40564815915E+01  0.18987042896E+02  0.51100000000E-03 0.  1.
        -11    1    3    3    0    0 -0.18019686165E+01 -0.12229823450E+01 -0.14731042068E+01  0.26292228844E+01  0.51100000000E-03 0. -1.
         12    1    3    3    0    0 -0.44284395972E+00  0.26134160527E+02  0.13156660098E+01  0.26171003693E+02  0.00000000000E+00 0. -1.
</event>
<event>
 7    1  0.1246400E-009  0.4778727E+02  0.7816164E-02  0.1312668E+00
        -11   -1    0    0    0    0  0.00000000000E+00  0.00000000000E+00  0.45593999997E+02  0.45594000000E+02  0.51100000000E-03 0.  1.
         11   -1    0    0    0    0 -0.00000000000E+00 -0.00000000000E+00 -0.45593999997E+02  0.45594000000E+02  0.51100000000E-03 0. -1.
    9900012    2    1    2    0    0  0.16681376801E+02 -0.15820898765E+02  0.36811057638E+02  0.47787272655E+02  0.20000007341E+02 0.  0.
         12    1    1    2    0    0 -0.16681376801E+02  0.15820898765E+02 -0.36811057638E+02  0.43400727345E+02  0.00000000000E+00 0. -1.
         11    1    3    3    0    0 -0.20771106560E+01 -0.41690446565E+01  0.85050716258E+01  0.96969874521E+01  0.51100000000E-03 0. -1.
        -11    1    3    3    0    0  0.84259842539E+01 -0.75408384239E+01  0.51965830773E+01  0.12444514081E+02  0.51100000000E-03 0.  1.
        -12    1    3    3    0    0  0.10332503203E+02 -0.41110156848E+01  0.23109402934E+02  0.25645771121E+02  0.00000000000E+00 0.  1.
</event>
<event>
 7    1  0.1246400E-009  0.4778727E+02  0.7816164E-02  0.1312668E+00
        -11   -1    0    0    0    0  0.00000000000E+00  0.00000000000E+00  0.45593999997E+02  0.45594000000E+02  0.51100000000E-03 0.  1.
         11   -1    0    0    0    0 -0.00000000000E+00 -0.00000000000E+00 -0.45593999997E+02  0.45594000000E+02  0.51100000000E-03 0. -1.
    9900012    2    1    2    0    0  0.33898727634E+02 -0.87851033306E+01  0.25638276819E+02  0.47787274038E+02  0.20000013649E+02 0.  0.
         12    1    1    2    0    0 -0.33898727634E+02  0.87851033306E+01 -0.25638276819E+02  0.43400725962E+02  0.00000000000E+00 0. -1.
         11    1    3    3    0    0  0.12756608146E+02  0.28969797458E+01  0.38349802736E+01  0.13631970400E+02  0.51100000000E-03 0. -1.
        -11    1    3    3    0    0  0.36390062438E+01 -0.16424420826E+01  0.10026008981E+02  0.10791702312E+02  0.51100000000E-03 0.  1.
        -12    1    3    3    0    0  0.17503113245E+02 -0.10039640994E+02  0.11777287564E+02  0.23363601326E+02  0.00000000000E+00 0.  1.
</event>
<event>
 7    1  0.1246400E-009  0.4778727E+02  0.7816164E-02  0.1312668E+00
        -11   -1    0    0    0    0  0.00000000000E+00  0.00000000000E+00  0.45593999997E+02  0.45594000000E+02  0.51100000000E-03 0.  1.
         11   -1    0    0    0    0 -0.00000000000E+00 -0.00000000000E+00 -0.45593999997E+02  0.45594000000E+02  0.51100000000E-03 0. -1.
    9900012    2    1    2    0    0  0.14483822249E+02 -0.28590477807E+02  0.29264767708E+02  0.47787272389E+02  0.20000006129E+02 0.  0.
         12    1    1    2    0    0 -0.14483822249E+02  0.28590477807E+02 -0.29264767708E+02  0.43400727611E+02  0.00000000000E+00 0. -1.
         11    1    3    3    0    0  0.31997799870E+01 -0.19339273004E+02  0.14593477261E+02  0.24437996054E+02  0.51100000000E-03 0. -1.
        -11    1    3    3    0    0  0.39003640043E+01 -0.53444610030E+01  0.13339562466E+02  0.14890266278E+02  0.51100000000E-03 0.  1.
         12    1    3    3    0    0  0.73836782574E+01 -0.39067438000E+01  0.13317279812E+01  0.84590100570E+01  0.00000000000E+00 0. -1.
</event>
<event>
 7    1  0.1246400E-009  0.4778729E+02  0.7816164E-02  0.1312668E+00
        -11   -1    0    0    0    0  0.00000000000E+00  0.00000000000E+00  0.45593999997E+02  0.45594000000E+02  0.51100000000E-03 0. -1.
         11   -1    0    0    0    0 -0.00000000000E+00 -0.00000000000E+00 -0.45593999997E+02  0.45594000000E+02  0.51100000000E-03 0.  1.
    9900012    2    1    2    0    0 -0.18341927813E+02  0.33021206738E+02 -0.21372765062E+02  0.47787291518E+02  0.20000093349E+02 0.  0.
         12    1    1    2    0    0  0.18341927813E+02 -0.33021206738E+02  0.21372765062E+02  0.43400708482E+02  0.00000000000E+00 0. -1.
         11    1    3    3    0    0  0.23013814194E+01  0.61103617667E+01 -0.66496353210E+01  0.93193630426E+01  0.51100000000E-03 0. -1.
        -11    1    3    3    0    0 -0.10774966401E+02  0.13891433445E+02 -0.13347760091E+02  0.22073389496E+02  0.51100000000E-03 0.  1.
         12    1    3    3    0    0 -0.98683428310E+01  0.13019411525E+02 -0.13753696505E+01  0.16394538980E+02  0.00000000000E+00 0. -1.
</event>
<event>
 7    1  0.1246400E-009  0.4778727E+02  0.7816164E-02  0.1312668E+00
        -11   -1    0    0    0    0  0.00000000000E+00  0.00000000000E+00  0.45593999997E+02  0.45594000000E+02  0.51100000000E-03 0. -1.
         11   -1    0    0    0    0 -0.00000000000E+00 -0.00000000000E+00 -0.45593999997E+02  0.45594000000E+02  0.51100000000E-03 0.  1.
    9900012    2    1    2    0    0 -0.38603264431E+02  0.11130058039E+02  0.16417461293E+02  0.47787271296E+02  0.20000001147E+02 0.  0.
         12    1    1    2    0    0  0.38603264431E+02 -0.11130058039E+02 -0.16417461293E+02  0.43400728704E+02  0.00000000000E+00 0. -1.
         11    1    3    3    0    0 -0.85153176808E+00 -0.27892808205E+01 -0.13868878886E+01  0.32293423671E+01  0.51100000000E-03 0. -1.
        -11    1    3    3    0    0 -0.11261699906E+02  0.76714280483E+01  0.56845804803E+01  0.14764523310E+02  0.51100000000E-03 0.  1.
         12    1    3    3    0    0 -0.26490032758E+02  0.62479108108E+01  0.12119768702E+02  0.29793405619E+02  0.00000000000E+00 0. -1.
</event>
<event>
 7    1  0.1246400E-009  0.4778727E+02  0.7816164E-02  0.1312668E+00
        -11   -1    0    0    0    0  0.00000000000E+00  0.00000000000E+00  0.45593999997E+02  0.45594000000E+02  0.51100000000E-03 0.  1.
         11   -1    0    0    0    0 -0.00000000000E+00 -0.00000000000E+00 -0.45593999997E+02  0.45594000000E+02  0.51100000000E-03 0. -1.
    9900012    2    1    2    0    0  0.48706548401E+01  0.12103329171E+02  0.41393350068E+02  0.47787270911E+02  0.19999999391E+02 0.  0.
         12    1    1    2    0    0 -0.48706548401E+01 -0.12103329171E+02 -0.41393350068E+02  0.43400729089E+02  0.00000000000E+00 0. -1.
         11    1    3    3    0    0  0.18963028855E+01  0.32564050511E+01  0.91087869851E+00  0.38768335991E+01  0.51100000000E-03 0. -1.
        -11    1    3    3    0    0 -0.45611176316E+01  0.62824556258E+01  0.28397048158E+02  0.29439181155E+02  0.51100000000E-03 0.  1.
        -12    1    3    3    0    0  0.75354695862E+01  0.25644684936E+01  0.12085423212E+02  0.14471256157E+02  0.00000000000E+00 0.  1.
</event>
<event>
 7    1  0.1246400E-009  0.4778728E+02  0.7816164E-02  0.1312668E+00
        -11   -1    0    0    0    0  0.00000000000E+00  0.00000000000E+00  0.45593999997E+02  0.45594000000E+02  0.51100000000E-03 0.  1.
         11   -1    0    0    0    0 -0.00000000000E+00 -0.00000000000E+00 -0.45593999997E+02  0.45594000000E+02  0.51100000000E-03 0. -1.
    9900012    2    1    2    0    0 -0.74525564475E+01 -0.92996159130E+01  0.41732474558E+02  0.47787275508E+02  0.20000020350E+02 0.  0.
         12    1    1    2    0    0  0.74525564475E+01  0.92996159130E+01 -0.41732474558E+02  0.43400724492E+02  0.00000000000E+00 0. -1.
         11    1    3    3    0    0 -0.77835963399E+01 -0.55188797906E+00  0.88915078898E+01  0.11829956261E+02  0.51100000000E-03 0. -1.
        -11    1    3    3    0    0 -0.39072671353E+01 -0.67803639055E+01  0.28585390052E+02  0.29637216398E+02  0.51100000000E-03 0.  1.
         12    1    3    3    0    0  0.42383070277E+01 -0.19673640285E+01  0.42555766164E+01  0.63201028488E+01  0.00000000000E+00 0. -1.
</event>
<event>
 7    1  0.1246400E-009  0.4778731E+02  0.7816164E-02  0.1312668E+00
        -11   -1    0    0    0    0  0.00000000000E+00  0.00000000000E+00  0.45593999997E+02  0.45594000000E+02  0.51100000000E-03 0.  1.
         11   -1    0    0    0    0 -0.00000000000E+00 -0.00000000000E+00 -0.45593999997E+02  0.45594000000E+02  0.51100000000E-03 0. -1.
    9900012    2    1    2    0    0  0.41325253661E+02 -0.21101583085E+01  0.13091619461E+02  0.47787310394E+02  0.20000179408E+02 0.  0.
         12    1    1    2    0    0 -0.41325253661E+02  0.21101583085E+01 -0.13091619461E+02  0.43400689606E+02  0.00000000000E+00 0. -1.
         11    1    3    3    0    0  0.96996780055E+01 -0.33823528531E+01  0.78471026399E+01  0.12926758462E+02  0.51100000000E-03 0. -1.
        -11    1    3    3    0    0  0.13569323461E+02  0.31987670581E+01  0.86197173058E+01  0.16390795484E+02  0.51100000000E-03 0.  1.
        -12    1    3    3    0    0  0.18056252194E+02 -0.19265725136E+01 -0.33752004851E+01  0.18469756448E+02  0.00000000000E+00 0.  1.
</event>
<event>
 7    1  0.1246400E-009  0.4778728E+02  0.7816164E-02  0.1312668E+00
        -11   -1    0    0    0    0  0.00000000000E+00  0.00000000000E+00  0.45593999997E+02  0.45594000000E+02  0.51100000000E-03 0.  1.
         11   -1    0    0    0    0 -0.00000000000E+00 -0.00000000000E+00 -0.45593999997E+02  0.45594000000E+02  0.51100000000E-03 0. -1.
    9900012    2    1    2    0    0  0.30310439336E+01 -0.19503235633E-01  0.43294740272E+02  0.47787284074E+02  0.20000059405E+02 0.  0.
         12    1    1    2    0    0 -0.30310439336E+01  0.19503235633E-01 -0.43294740272E+02  0.43400715926E+02  0.00000000000E+00 0. -1.
         11    1    3    3    0    0 -0.53352236205E+01  0.13645985697E+01  0.18379160378E+02  0.19186460768E+02  0.51100000000E-03 0. -1.
        -11    1    3    3    0    0  0.27743360763E+01  0.33707808454E+01  0.25372558177E+01  0.50494327916E+01  0.51100000000E-03 0.  1.
        -12    1    3    3    0    0  0.55919314778E+01 -0.47548826508E+01  0.22378324076E+02  0.23551390514E+02  0.00000000000E+00 0.  1.
</event>
<event>
 7    1  0.1246400E-009  0.4778727E+02  0.7816164E-02  0.1312668E+00
        -11   -1    0    0    0    0  0.00000000000E+00  0.00000000000E+00  0.45593999997E+02  0.45594000000E+02  0.51100000000E-03 0.  1.
         11   -1    0    0    0    0 -0.00000000000E+00 -0.00000000000E+00 -0.45593999997E+02  0.45594000000E+02  0.51100000000E-03 0. -1.
    9900012    2    1    2    0    0  0.30722003437E+02  0.20587264164E+01  0.30586652727E+02  0.47787272187E+02  0.20000005210E+02 0.  0.
         12    1    1    2    0    0 -0.30722003437E+02 -0.20587264164E+01 -0.30586652727E+02  0.43400727813E+02  0.00000000000E+00 0. -1.
         11    1    3    3    0    0  0.28441834998E+01  0.24867226483E+01 -0.19786403842E+01  0.42647611119E+01  0.51100000000E-03 0. -1.
        -11    1    3    3    0    0  0.16050950042E+02  0.28221988741E+01  0.15374939586E+02  0.22405056824E+02  0.51100000000E-03 0.  1.
        -12    1    3    3    0    0  0.11826869895E+02 -0.32501951060E+01  0.17190353526E+02  0.21117454252E+02  0.00000000000E+00 0.  1.
</event>
<event>
 7    1  0.1246400E-009  0.4778727E+02  0.7816164E-02  0.1312668E+00
        -11   -1    0    0    0    0  0.00000000000E+00  0.00000000000E+00  0.45593999997E+02  0.45594000000E+02  0.51100000000E-03 0.  1.
         11   -1    0    0    0    0 -0.00000000000E+00 -0.00000000000E+00 -0.45593999997E+02  0.45594000000E+02  0.51100000000E-03 0. -1.
    9900012    2    1    2    0    0 -0.22425720450E+02  0.37141456765E+02 -0.11056934286E+01  0.47787270671E+02  0.19999998297E+02 0.  0.
         12    1    1    2    0    0  0.22425720450E+02 -0.37141456765E+02  0.11056934286E+01  0.43400729329E+02  0.00000000000E+00 0. -1.
         11    1    3    3    0    0 -0.95307601297E+01  0.13015141151E+02 -0.62551430302E+01  0.17301910369E+02  0.51100000000E-03 0. -1.
        -11    1    3    3    0    0 -0.12104231164E+02  0.22889985273E+02  0.81495745614E+01  0.27145522718E+02  0.51100000000E-03 0.  1.
        -12    1    3    3    0    0 -0.79072915658E+00  0.12363303421E+01 -0.30001249597E+01  0.33398375840E+01  0.00000000000E+00 0.  1.
</event>
<event>
 7    1  0.1246400E-009  0.4778727E+02  0.7816164E-02  0.1312668E+00
        -11   -1    0    0    0    0  0.00000000000E+00  0.00000000000E+00  0.45593999997E+02  0.45594000000E+02  0.51100000000E-03 0.  1.
         11   -1    0    0    0    0 -0.00000000000E+00 -0.00000000000E+00 -0.45593999997E+02  0.45594000000E+02  0.51100000000E-03 0. -1.
    9900012    2    1    2    0    0 -0.31295528640E+02 -0.75805360232E+01  0.29098945611E+02  0.47787271032E+02  0.19999999943E+02 0.  0.
         12    1    1    2    0    0  0.31295528640E+02  0.75805360232E+01 -0.29098945611E+02  0.43400728968E+02  0.00000000000E+00 0. -1.
         11    1    3    3    0    0 -0.14294873865E+02  0.57962992403E+01  0.14951917391E+02  0.21482558917E+02  0.51100000000E-03 0. -1.
        -11    1    3    3    0    0 -0.90138838140E+01 -0.58421076836E+01  0.96494690191E+01  0.14439272011E+02  0.51100000000E-03 0.  1.
         12    1    3    3    0    0 -0.79867709610E+01 -0.75347275799E+01  0.44975592012E+01  0.11865440104E+02  0.00000000000E+00 0. -1.
</event>
<event>
 7    1  0.1246400E-009  0.4778727E+02  0.7816164E-02  0.1312668E+00
        -11   -1    0    0    0    0  0.00000000000E+00  0.00000000000E+00  0.45593999997E+02  0.45594000000E+02  0.51100000000E-03 0.  1.
         11   -1    0    0    0    0 -0.00000000000E+00 -0.00000000000E+00 -0.45593999997E+02  0.45594000000E+02  0.51100000000E-03 0. -1.
    9900012    2    1    2    0    0 -0.17559254035E+02 -0.39678945729E+02 -0.93656427087E+00  0.47787270869E+02  0.19999999201E+02 0.  0.
         12    1    1    2    0    0  0.17559254035E+02  0.39678945729E+02  0.93656427087E+00  0.43400729131E+02  0.00000000000E+00 0. -1.
         11    1    3    3    0    0 -0.11271659468E+02 -0.33468482418E+02 -0.49768637082E+01  0.35664531333E+02  0.51100000000E-03 0. -1.
        -11    1    3    3    0    0 -0.68076365275E+00  0.65614286061E+00 -0.14237922177E+01  0.17091363739E+01  0.51100000000E-03 0.  1.
         12    1    3    3    0    0 -0.56068309141E+01 -0.68666061714E+01  0.54640916550E+01  0.10413603163E+02  0.00000000000E+00 0. -1.
</event>
<event>
 7    1  0.1246400E-009  0.4778727E+02  0.7816164E-02  0.1312668E+00
        -11   -1    0    0    0    0  0.00000000000E+00  0.00000000000E+00  0.45593999997E+02  0.45594000000E+02  0.51100000000E-03 0. -1.
         11   -1    0    0    0    0 -0.00000000000E+00 -0.00000000000E+00 -0.45593999997E+02  0.45594000000E+02  0.51100000000E-03 0.  1.
    9900012    2    1    2    0    0  0.32280953395E+02  0.19239058198E+02 -0.21712263074E+02  0.47787266363E+02  0.19999978658E+02 0.  0.
         12    1    1    2    0    0 -0.32280953395E+02 -0.19239058198E+02  0.21712263074E+02  0.43400733637E+02  0.00000000000E+00 0. -1.
         11    1    3    3    0    0  0.18195036158E+02  0.11491394514E+01 -0.69231652232E+01  0.19501540432E+02  0.51100000000E-03 0. -1.
        -11    1    3    3    0    0  0.10085878474E+02  0.92677917244E+01 -0.51874000573E+01  0.14646707059E+02  0.51100000000E-03 0.  1.
        -12    1    3    3    0    0  0.40000387625E+01  0.88221270218E+01 -0.96016977934E+01  0.13639018873E+02  0.00000000000E+00 0.  1.
</event>
<event>
 7    1  0.1246400E-009  0.4778727E+02  0.7816164E-02  0.1312668E+00
        -11   -1    0    0    0    0  0.00000000000E+00  0.00000000000E+00  0.45593999997E+02  0.45594000000E+02  0.51100000000E-03 0.  1.
         11   -1    0    0    0    0 -0.00000000000E+00 -0.00000000000E+00 -0.45593999997E+02  0.45594000000E+02  0.51100000000E-03 0. -1.
    9900012    2    1    2    0    0 -0.10401070346E+02 -0.16937885403E+02  0.38581716953E+02  0.47787272940E+02  0.20000008644E+02 0.  0.
         12    1    1    2    0    0  0.10401070346E+02  0.16937885403E+02 -0.38581716953E+02  0.43400727060E+02  0.00000000000E+00 0. -1.
         11    1    3    3    0    0 -0.25304105031E+00 -0.63977868386E+01  0.18708530743E+02  0.19773842040E+02  0.51100000000E-03 0.  1.
        -11    1    3    3    0    0 -0.19167960914E+01 -0.78254692744E+01  0.22354962110E+01  0.83611913141E+01  0.51100000000E-03 0. -1.
         12    1    3    3    0    0 -0.82312332044E+01 -0.27146292904E+01  0.17637689999E+02  0.19652239586E+02  0.00000000000E+00 0. -1.
</event>
<event>
 7    1  0.1246400E-009  0.4778727E+02  0.7816164E-02  0.1312668E+00
        -11   -1    0    0    0    0  0.00000000000E+00  0.00000000000E+00  0.45593999997E+02  0.45594000000E+02  0.51100000000E-03 0.  1.
         11   -1    0    0    0    0 -0.00000000000E+00 -0.00000000000E+00 -0.45593999997E+02  0.45594000000E+02  0.51100000000E-03 0. -1.
    9900012    2    1    2    0    0  0.19531176953E+02  0.36015063469E+02 -0.14320333489E+02  0.47787267044E+02  0.19999981762E+02 0.  0.
         12    1    1    2    0    0 -0.19531176953E+02 -0.36015063469E+02  0.14320333489E+02  0.43400732956E+02  0.00000000000E+00 0. -1.
         11    1    3    3    0    0  0.97375211227E+01  0.63564692383E+01 -0.43668845728E+01  0.12421501517E+02  0.51100000000E-03 0.  1.
        -11    1    3    3    0    0  0.10159023466E+02  0.16059299787E+02 -0.10575463255E+02  0.21747351350E+02  0.51100000000E-03 0. -1.
        -12    1    3    3    0    0 -0.36536763536E+00  0.13599294444E+02  0.62201433852E+00  0.13618414178E+02  0.00000000000E+00 0.  1.
</event>
<event>
 7    1  0.1246400E-009  0.4778727E+02  0.7816164E-02  0.1312668E+00
        -11   -1    0    0    0    0  0.00000000000E+00  0.00000000000E+00  0.45593999997E+02  0.45594000000E+02  0.51100000000E-03 0.  1.
         11   -1    0    0    0    0 -0.00000000000E+00 -0.00000000000E+00 -0.45593999997E+02  0.45594000000E+02  0.51100000000E-03 0. -1.
    9900012    2    1    2    0    0 -0.12875738413E+02 -0.41123663691E+02 -0.51655668144E+01  0.47787269181E+02  0.19999991505E+02 0.  0.
         12    1    1    2    0    0  0.12875738413E+02  0.41123663691E+02  0.51655668144E+01  0.43400730819E+02  0.00000000000E+00 0. -1.
         11    1    3    3    0    0 -0.36596342762E+01 -0.25294155221E+02 -0.55863830753E+01  0.26160942022E+02  0.51100000000E-03 0.  1.
        -11    1    3    3    0    0 -0.74484757689E+01 -0.15121649128E+02  0.42199258760E+01  0.17376761444E+02  0.51100000000E-03 0. -1.
         12    1    3    3    0    0 -0.17676283680E+01 -0.70785934250E+00 -0.37991096151E+01  0.42495657147E+01  0.00000000000E+00 0. -1.
</event>
<event>
 7    1  0.1246400E-009  0.4778727E+02  0.7816164E-02  0.1312668E+00
        -11   -1    0    0    0    0  0.00000000000E+00  0.00000000000E+00  0.45593999997E+02  0.45594000000E+02  0.51100000000E-03 0.  1.
         11   -1    0    0    0    0 -0.00000000000E+00 -0.00000000000E+00 -0.45593999997E+02  0.45594000000E+02  0.51100000000E-03 0. -1.
    9900012    2    1    2    0    0 -0.40482249999E+02 -0.62262895870E+01  0.14354238203E+02  0.47787269575E+02  0.19999993299E+02 0.  0.
         12    1    1    2    0    0  0.40482249999E+02  0.62262895870E+01 -0.14354238203E+02  0.43400730425E+02  0.00000000000E+00 0. -1.
         11    1    3    3    0    0 -0.22354014270E+02 -0.29715249072E+01  0.65597765664E+01  0.23485369555E+02  0.51100000000E-03 0. -1.
        -11    1    3    3    0    0 -0.56521321435E+01  0.32429640714E+01 -0.23840839368E+01  0.69388234028E+01  0.51100000000E-03 0.  1.
        -12    1    3    3    0    0 -0.12476103586E+02 -0.64977287513E+01  0.10178545574E+02  0.17363076617E+02  0.00000000000E+00 0.  1.
</event>
<event>
 7    1  0.1246400E-009  0.4778727E+02  0.7816164E-02  0.1312668E+00
        -11   -1    0    0    0    0  0.00000000000E+00  0.00000000000E+00  0.45593999997E+02  0.45594000000E+02  0.51100000000E-03 0.  1.
         11   -1    0    0    0    0 -0.00000000000E+00 -0.00000000000E+00 -0.45593999997E+02  0.45594000000E+02  0.51100000000E-03 0. -1.
    9900012    2    1    2    0    0  0.35605572017E+02 -0.13752407080E+02  0.20657629335E+02  0.47787272945E+02  0.20000008667E+02 0.  0.
         12    1    1    2    0    0 -0.35605572017E+02  0.13752407080E+02 -0.20657629335E+02  0.43400727055E+02  0.00000000000E+00 0. -1.
         11    1    3    3    0    0  0.47470674405E+01  0.92300612141E+00 -0.17738193065E+01  0.51510217217E+01  0.51100000000E-03 0. -1.
        -11    1    3    3    0    0  0.10091164151E+02 -0.40891427764E+01  0.14247016772E+02  0.17931262357E+02  0.51100000000E-03 0.  1.
        -12    1    3    3    0    0  0.20767340426E+02 -0.10586270425E+02  0.81844318692E+01  0.24704988866E+02  0.00000000000E+00 0.  1.
</event>
<event>
 7    1  0.1246400E-009  0.4778727E+02  0.7816164E-02  0.1312668E+00
        -11   -1    0    0    0    0  0.00000000000E+00  0.00000000000E+00  0.45593999997E+02  0.45594000000E+02  0.51100000000E-03 0. -1.
         11   -1    0    0    0    0 -0.00000000000E+00 -0.00000000000E+00 -0.45593999997E+02  0.45594000000E+02  0.51100000000E-03 0.  1.
    9900012    2    1    2    0    0 -0.73125869329E+01  0.35644668727E+02 -0.23656014256E+02  0.47787270205E+02  0.19999996171E+02 0.  0.
         12    1    1    2    0    0  0.73125869329E+01 -0.35644668727E+02  0.23656014256E+02  0.43400729795E+02  0.00000000000E+00 0. -1.
         11    1    3    3    0    0  0.50809710103E+00 -0.40539617856E+00  0.13805153581E+01  0.15258871651E+01  0.51100000000E-03 0. -1.
        -11    1    3    3    0    0 -0.34665688216E+01  0.38582539662E+01 -0.81212626627E+01  0.96362923658E+01  0.51100000000E-03 0.  1.
        -12    1    3    3    0    0 -0.43541152124E+01  0.32191810939E+02 -0.16915266951E+02  0.36625090674E+02  0.00000000000E+00 0.  1.
</event>
<event>
 7    1  0.1246400E-009  0.4778725E+02  0.7816164E-02  0.1312668E+00
        -11   -1    0    0    0    0  0.00000000000E+00  0.00000000000E+00  0.45593999997E+02  0.45594000000E+02  0.51100000000E-03 0. -1.
         11   -1    0    0    0    0 -0.00000000000E+00 -0.00000000000E+00 -0.45593999997E+02  0.45594000000E+02  0.51100000000E-03 0.  1.
    9900012    2    1    2    0    0  0.41487940574E+01  0.99198483340E+00 -0.43190603352E+02  0.47787254108E+02  0.19999922780E+02 0.  0.
         12    1    1    2    0    0 -0.41487940574E+01 -0.99198483340E+00  0.43190603352E+02  0.43400745892E+02  0.00000000000E+00 0. -1.
         11    1    3    3    0    0  0.19205997075E+01  0.32429874058E+01 -0.32598077367E+01  0.49831734158E+01  0.51100000000E-03 0. -1.
        -11    1    3    3    0    0  0.45337089717E+01 -0.79429175512E+01 -0.21088775280E+02  0.22986537350E+02  0.51100000000E-03 0.  1.
         12    1    3    3    0    0 -0.23055146218E+01  0.56919149788E+01 -0.18842020336E+02  0.19817543342E+02  0.00000000000E+00 0. -1.
</event>
<event>
 7    1  0.1246400E-009  0.4778727E+02  0.7816164E-02  0.1312668E+00
        -11   -1    0    0    0    0  0.00000000000E+00  0.00000000000E+00  0.45593999997E+02  0.45594000000E+02  0.51100000000E-03 0. -1.
         11   -1    0    0    0    0 -0.00000000000E+00 -0.00000000000E+00 -0.45593999997E+02  0.45594000000E+02  0.51100000000E-03 0.  1.
    9900012    2    1    2    0    0 -0.42778312657E+02 -0.28479892113E+01 -0.67474794576E+01  0.47787267802E+02  0.19999985216E+02 0.  0.
         12    1    1    2    0    0  0.42778312657E+02  0.28479892113E+01  0.67474794576E+01  0.43400732198E+02  0.00000000000E+00 0. -1.
         11    1    3    3    0    0 -0.15066879480E+02 -0.10419784923E+02 -0.29836107310E+01  0.18560299253E+02  0.51100000000E-03 0. -1.
        -11    1    3    3    0    0 -0.49584705628E+01  0.29061040868E+01 -0.44341928472E+00  0.57644160336E+01  0.51100000000E-03 0.  1.
         12    1    3    3    0    0 -0.22752962614E+02  0.46656916245E+01 -0.33204494418E+01  0.23462552516E+02  0.00000000000E+00 0. -1.
</event>
<event>
 7    1  0.1246400E-009  0.4778727E+02  0.7816164E-02  0.1312668E+00
        -11   -1    0    0    0    0  0.00000000000E+00  0.00000000000E+00  0.45593999997E+02  0.45594000000E+02  0.51100000000E-03 0. -1.
         11   -1    0    0    0    0 -0.00000000000E+00 -0.00000000000E+00 -0.45593999997E+02  0.45594000000E+02  0.51100000000E-03 0.  1.
    9900012    2    1    2    0    0 -0.34927834509E+02 -0.25760079678E+02 -0.29633151388E+00  0.47787272577E+02  0.20000006986E+02 0.  0.
         12    1    1    2    0    0  0.34927834509E+02  0.25760079678E+02  0.29633151388E+00  0.43400727423E+02  0.00000000000E+00 0. -1.
         11    1    3    3    0    0 -0.22497082161E+02 -0.11749031324E+02  0.29602433700E+01  0.25552328346E+02  0.51100000000E-03 0. -1.
        -11    1    3    3    0    0 -0.12612642888E+02 -0.83047449588E+01  0.96868867368E+00  0.15132280313E+02  0.51100000000E-03 0.  1.
         12    1    3    3    0    0  0.18189054026E+00 -0.57063033950E+01 -0.42252635576E+01  0.71026639182E+01  0.00000000000E+00 0. -1.
</event>
<event>
 7    1  0.1246400E-009  0.4778727E+02  0.7816164E-02  0.1312668E+00
        -11   -1    0    0    0    0  0.00000000000E+00  0.00000000000E+00  0.45593999997E+02  0.45594000000E+02  0.51100000000E-03 0.  1.
         11   -1    0    0    0    0 -0.00000000000E+00 -0.00000000000E+00 -0.45593999997E+02  0.45594000000E+02  0.51100000000E-03 0. -1.
    9900012    2    1    2    0    0  0.32025872281E+02 -0.35582898632E+01  0.29074143500E+02  0.47787265647E+02  0.19999975393E+02 0.  0.
         12    1    1    2    0    0 -0.32025872281E+02  0.35582898632E+01 -0.29074143500E+02  0.43400734353E+02  0.00000000000E+00 0. -1.
         11    1    3    3    0    0  0.15915680933E+02 -0.36608087245E+01  0.13598981300E+02  0.21251887274E+02  0.51100000000E-03 0. -1.
        -11    1    3    3    0    0  0.15026067261E+02  0.16171168695E+01  0.17932763156E+02  0.23451689896E+02  0.51100000000E-03 0.  1.
         12    1    3    3    0    0  0.10841240867E+01 -0.15145980081E+01 -0.24576009562E+01  0.30836884767E+01  0.00000000000E+00 0. -1.
</event>
<event>
 7    1  0.1246400E-009  0.4778727E+02  0.7816164E-02  0.1312668E+00
        -11   -1    0    0    0    0  0.00000000000E+00  0.00000000000E+00  0.45593999997E+02  0.45594000000E+02  0.51100000000E-03 0.  1.
         11   -1    0    0    0    0 -0.00000000000E+00 -0.00000000000E+00 -0.45593999997E+02  0.45594000000E+02  0.51100000000E-03 0. -1.
    9900012    2    1    2    0    0 -0.19659185086E+02  0.28769897267E+02  0.25873400627E+02  0.47787269511E+02  0.19999993007E+02 0.  0.
         12    1    1    2    0    0  0.19659185086E+02 -0.28769897267E+02 -0.25873400627E+02  0.43400730489E+02  0.00000000000E+00 0. -1.
         11    1    3    3    0    0 -0.13546978362E+01  0.17972320805E+01  0.20675343927E+01  0.30561328676E+01  0.51100000000E-03 0. -1.
        -11    1    3    3    0    0  0.47145360493E+00  0.13528592272E+02  0.35037732995E+01  0.13982900449E+02  0.51100000000E-03 0.  1.
         12    1    3    3    0    0 -0.18775940855E+02  0.13444072914E+02  0.20302092935E+02  0.30748236194E+02  0.00000000000E+00 0. -1.
</event>
<event>
 7    1  0.1246400E-009  0.4778727E+02  0.7816164E-02  0.1312668E+00
        -11   -1    0    0    0    0  0.00000000000E+00  0.00000000000E+00  0.45593999997E+02  0.45594000000E+02  0.51100000000E-03 0.  1.
         11   -1    0    0    0    0 -0.00000000000E+00 -0.00000000000E+00 -0.45593999997E+02  0.45594000000E+02  0.51100000000E-03 0. -1.
    9900012    2    1    2    0    0 -0.21397050587E+02 -0.35921410748E+02  0.11637949593E+02  0.47787269653E+02  0.19999993654E+02 0.  0.
         12    1    1    2    0    0  0.21397050587E+02  0.35921410748E+02 -0.11637949593E+02  0.43400730347E+02  0.00000000000E+00 0. -1.
         11    1    3    3    0    0 -0.82182094422E+01 -0.13704630271E+02  0.15373489490E+01  0.16053638197E+02  0.51100000000E-03 0.  1.
        -11    1    3    3    0    0 -0.94683978498E+01 -0.50252808364E+01  0.91953801780E+01  0.14122996219E+02  0.51100000000E-03 0. -1.
         12    1    3    3    0    0 -0.37104432952E+01 -0.17191499641E+02  0.90522046616E+00  0.17610635237E+02  0.00000000000E+00 0. -1.
</event>
<event>
 7    1  0.1246400E-009  0.4778727E+02  0.7816164E-02  0.1312668E+00
        -11   -1    0    0    0    0  0.00000000000E+00  0.00000000000E+00  0.45593999997E+02  0.45594000000E+02  0.51100000000E-03 0.  1.
         11   -1    0    0    0    0 -0.00000000000E+00 -0.00000000000E+00 -0.45593999997E+02  0.45594000000E+02  0.51100000000E-03 0. -1.
    9900012    2    1    2    0    0  0.14388436856E+02  0.42428373102E+01  0.40725848856E+02  0.47787267879E+02  0.19999985568E+02 0.  0.
         12    1    1    2    0    0 -0.14388436856E+02 -0.42428373102E+01 -0.40725848856E+02  0.43400732121E+02  0.00000000000E+00 0. -1.
         11    1    3    3    0    0 -0.28479325243E+01 -0.29512774453E+01  0.11222963847E+02  0.11948877604E+02  0.51100000000E-03 0. -1.
        -11    1    3    3    0    0  0.36144819936E+01  0.41054315382E+00  0.12507505182E+02  0.13025771068E+02  0.51100000000E-03 0.  1.
        -12    1    3    3    0    0  0.13621887387E+02  0.67835716017E+01  0.16995379827E+02  0.22812619208E+02  0.00000000000E+00 0.  1.
</event>
<event>
 7    1  0.1246400E-009  0.4778726E+02  0.7816164E-02  0.1312668E+00
        -11   -1    0    0    0    0  0.00000000000E+00  0.00000000000E+00  0.45593999997E+02  0.45594000000E+02  0.51100000000E-03 0.  1.
         11   -1    0    0    0    0 -0.00000000000E+00 -0.00000000000E+00 -0.45593999997E+02  0.45594000000E+02  0.51100000000E-03 0. -1.
    9900012    2    1    2    0    0 -0.14152438705E+02 -0.41018279824E+02 -0.91268856735E+00  0.47787264966E+02  0.19999972286E+02 0.  0.
         12    1    1    2    0    0  0.14152438705E+02  0.41018279824E+02  0.91268856735E+00  0.43400735034E+02  0.00000000000E+00 0. -1.
         11    1    3    3    0    0 -0.35599220783E+01 -0.10748700701E+02  0.60611337501E+01  0.12843089759E+02  0.51100000000E-03 0. -1.
        -11    1    3    3    0    0 -0.56915941992E+00 -0.19479369010E+02 -0.32953725132E+01  0.19764342634E+02  0.51100000000E-03 0.  1.
         12    1    3    3    0    0 -0.10023357207E+02 -0.10790210113E+02 -0.36784498042E+01  0.15179832573E+02  0.00000000000E+00 0. -1.
</event>
<event>
 7    1  0.1246400E-009  0.4778727E+02  0.7816164E-02  0.1312668E+00
        -11   -1    0    0    0    0  0.00000000000E+00  0.00000000000E+00  0.45593999997E+02  0.45594000000E+02  0.51100000000E-03 0. -1.
         11   -1    0    0    0    0 -0.00000000000E+00 -0.00000000000E+00 -0.45593999997E+02  0.45594000000E+02  0.51100000000E-03 0.  1.
    9900012    2    1    2    0    0  0.53237300220E+01 -0.42634410279E+02  0.61309214049E+01  0.47787271452E+02  0.20000001860E+02 0.  0.
         12    1    1    2    0    0 -0.53237300220E+01  0.42634410279E+02 -0.61309214049E+01  0.43400728548E+02  0.00000000000E+00 0. -1.
         11    1    3    3    0    0  0.50291146739E+01 -0.18112919482E+02 -0.34627330601E+01  0.19114402085E+02  0.51100000000E-03 0. -1.
        -11    1    3    3    0    0  0.32287540505E+01 -0.13170972562E+02  0.58305625240E-01  0.13561075575E+02  0.51100000000E-03 0.  1.
         12    1    3    3    0    0 -0.29341387023E+01 -0.11350518236E+02  0.95353488398E+01  0.15111793793E+02  0.00000000000E+00 0. -1.
</event>
<event>
 7    1  0.1246400E-009  0.4778727E+02  0.7816164E-02  0.1312668E+00
        -11   -1    0    0    0    0  0.00000000000E+00  0.00000000000E+00  0.45593999997E+02  0.45594000000E+02  0.51100000000E-03 0. -1.
         11   -1    0    0    0    0 -0.00000000000E+00 -0.00000000000E+00 -0.45593999997E+02  0.45594000000E+02  0.51100000000E-03 0.  1.
    9900012    2    1    2    0    0 -0.13670140595E+02 -0.67898428769E+01 -0.40628173446E+02  0.47787272036E+02  0.20000004523E+02 0.  0.
         12    1    1    2    0    0  0.13670140595E+02  0.67898428769E+01  0.40628173446E+02  0.43400727964E+02  0.00000000000E+00 0. -1.
         11    1    3    3    0    0 -0.93249516430E+00 -0.35680907610E+01 -0.19640279767E+02  0.19983528430E+02  0.51100000000E-03 0. -1.
        -11    1    3    3    0    0 -0.18109815199E+01 -0.61806403138E+01 -0.10797813507E+02  0.12572698419E+02  0.51100000000E-03 0.  1.
         12    1    3    3    0    0 -0.10926663910E+02  0.29588881979E+01 -0.10190080172E+02  0.15231045187E+02  0.00000000000E+00 0. -1.
</event>
<event>
 7    1  0.1246400E-009  0.4778726E+02  0.7816164E-02  0.1312668E+00
        -11   -1    0    0    0    0  0.00000000000E+00  0.00000000000E+00  0.45593999997E+02  0.45594000000E+02  0.51100000000E-03 0.  1.
         11   -1    0    0    0    0 -0.00000000000E+00 -0.00000000000E+00 -0.45593999997E+02  0.45594000000E+02  0.51100000000E-03 0. -1.
    9900012    2    1    2    0    0  0.26736474497E+02  0.12638762116E+01  0.34164131308E+02  0.47787258997E+02  0.19999945069E+02 0.  0.
         12    1    1    2    0    0 -0.26736474497E+02 -0.12638762116E+01 -0.34164131308E+02  0.43400741003E+02  0.00000000000E+00 0. -1.
         11    1    3    3    0    0  0.89236341988E+01  0.23057386755E-01  0.44481453239E+01  0.99708463052E+01  0.51100000000E-03 0. -1.
        -11    1    3    3    0    0  0.34919767820E+01 -0.91906630094E-01  0.20362039393E+02  0.20659501378E+02  0.51100000000E-03 0.  1.
        -12    1    3    3    0    0  0.14320863517E+02  0.13327254549E+01  0.93539465910E+01  0.17156911314E+02  0.00000000000E+00 0.  1.
</event>
<event>
 7    1  0.1246400E-009  0.4778727E+02  0.7816164E-02  0.1312668E+00
        -11   -1    0    0    0    0  0.00000000000E+00  0.00000000000E+00  0.45593999997E+02  0.45594000000E+02  0.51100000000E-03 0. -1.
         11   -1    0    0    0    0 -0.00000000000E+00 -0.00000000000E+00 -0.45593999997E+02  0.45594000000E+02  0.51100000000E-03 0.  1.
    9900012    2    1    2    0    0 -0.31912533136E+02 -0.93209152026E+01 -0.27898641530E+02  0.47787269239E+02  0.19999991769E+02 0.  0.
         12    1    1    2    0    0  0.31912533136E+02  0.93209152026E+01  0.27898641530E+02  0.43400730761E+02  0.00000000000E+00 0. -1.
         11    1    3    3    0    0 -0.76182942190E-01 -0.33836999033E+01 -0.17812299795E+01  0.38246580732E+01  0.51100000000E-03 0. -1.
        -11    1    3    3    0    0 -0.25793913907E+02  0.11044941510E+01 -0.16735288816E+02  0.30767121964E+02  0.51100000000E-03 0.  1.
        -12    1    3    3    0    0 -0.60424362875E+01 -0.70417094503E+01 -0.93821227340E+01  0.13195489201E+02  0.00000000000E+00 0.  1.
</event>
<event>
 7    1  0.1246400E-009  0.4778727E+02  0.7816164E-02  0.1312668E+00
        -11   -1    0    0    0    0  0.00000000000E+00  0.00000000000E+00  0.45593999997E+02  0.45594000000E+02  0.51100000000E-03 0.  1.
         11   -1    0    0    0    0 -0.00000000000E+00 -0.00000000000E+00 -0.45593999997E+02  0.45594000000E+02  0.51100000000E-03 0. -1.
    9900012    2    1    2    0    0  0.48821675723E+01 -0.34808580832E+02  0.25458796379E+02  0.47787272208E+02  0.20000005307E+02 0.  0.
         12    1    1    2    0    0 -0.48821675723E+01  0.34808580832E+02 -0.25458796379E+02  0.43400727792E+02  0.00000000000E+00 0. -1.
         11    1    3    3    0    0  0.97180347914E+01 -0.31044561760E+02  0.18597463678E+02  0.37470931008E+02  0.51100000000E-03 0.  1.
        -11    1    3    3    0    0 -0.46454558050E+00 -0.15135940092E+01  0.46744861251E+01  0.49353409422E+01  0.51100000000E-03 0. -1.
        -12    1    3    3    0    0 -0.43713216385E+01 -0.22504250630E+01  0.21868465765E+01  0.53810002584E+01  0.00000000000E+00 0.  1.
</event>
<event>
 7    1  0.1246400E-009  0.4778727E+02  0.7816164E-02  0.1312668E+00
        -11   -1    0    0    0    0  0.00000000000E+00  0.00000000000E+00  0.45593999997E+02  0.45594000000E+02  0.51100000000E-03 0.  1.
         11   -1    0    0    0    0 -0.00000000000E+00 -0.00000000000E+00 -0.45593999997E+02  0.45594000000E+02  0.51100000000E-03 0. -1.
    9900012    2    1    2    0    0  0.12040112868E+02 -0.34348747584E+02  0.23639423077E+02  0.47787273026E+02  0.20000009034E+02 0.  0.
         12    1    1    2    0    0 -0.12040112868E+02  0.34348747584E+02 -0.23639423077E+02  0.43400726974E+02  0.00000000000E+00 0. -1.
         11    1    3    3    0    0 -0.35273407242E+01 -0.10804528521E+02  0.11327253012E+02  0.16046389943E+02  0.51100000000E-03 0. -1.
        -11    1    3    3    0    0  0.78782121855E+01 -0.11221810045E+02  0.10143103944E+02  0.17055140158E+02  0.51100000000E-03 0.  1.
         12    1    3    3    0    0  0.76892414069E+01 -0.12322409018E+02  0.21690661216E+01  0.14685742925E+02  0.00000000000E+00 0. -1.
</event>
<event>
 7    1  0.1246400E-009  0.4778727E+02  0.7816164E-02  0.1312668E+00
        -11   -1    0    0    0    0  0.00000000000E+00  0.00000000000E+00  0.45593999997E+02  0.45594000000E+02  0.51100000000E-03 0.  1.
         11   -1    0    0    0    0 -0.00000000000E+00 -0.00000000000E+00 -0.45593999997E+02  0.45594000000E+02  0.51100000000E-03 0. -1.
    9900012    2    1    2    0    0  0.24707100007E+01 -0.11722350678E+02  0.41714570024E+02  0.47787271140E+02  0.20000000436E+02 0.  0.
         12    1    1    2    0    0 -0.24707100007E+01  0.11722350678E+02 -0.41714570024E+02  0.43400728860E+02  0.00000000000E+00 0. -1.
         11    1    3    3    0    0  0.88139834907E+01 -0.91618631270E+01  0.17882071319E+02  0.21940704543E+02  0.51100000000E-03 0. -1.
        -11    1    3    3    0    0 -0.16067849489E+00  0.49497823847E+00  0.12965756703E+02  0.12976196214E+02  0.51100000000E-03 0.  1.
         12    1    3    3    0    0 -0.61825949952E+01 -0.30554657896E+01  0.10866742002E+02  0.12870370383E+02  0.00000000000E+00 0. -1.
</event>
<event>
 7    1  0.1246400E-009  0.4778727E+02  0.7816164E-02  0.1312668E+00
        -11   -1    0    0    0    0  0.00000000000E+00  0.00000000000E+00  0.45593999997E+02  0.45594000000E+02  0.51100000000E-03 0.  1.
         11   -1    0    0    0    0 -0.00000000000E+00 -0.00000000000E+00 -0.45593999997E+02  0.45594000000E+02  0.51100000000E-03 0. -1.
    9900012    2    1    2    0    0  0.78331018276E+01  0.11632914086E+02  0.41072387153E+02  0.47787272347E+02  0.20000005938E+02 0.  0.
         12    1    1    2    0    0 -0.78331018276E+01 -0.11632914086E+02 -0.41072387153E+02  0.43400727653E+02  0.00000000000E+00 0. -1.
         11    1    3    3    0    0 -0.47207993775E+00  0.77226991957E+01  0.14405469055E+02  0.16351773032E+02  0.51100000000E-03 0. -1.
        -11    1    3    3    0    0  0.12125955108E+02  0.17371857869E+01  0.19658813541E+02  0.23163021216E+02  0.51100000000E-03 0.  1.
        -12    1    3    3    0    0 -0.38207733425E+01  0.21730291039E+01  0.70081045570E+01  0.82724780993E+01  0.00000000000E+00 0.  1.
</event>
<event>
 7    1  0.1246400E-009  0.4778727E+02  0.7816164E-02  0.1312668E+00
        -11   -1    0    0    0    0  0.00000000000E+00  0.00000000000E+00  0.45593999997E+02  0.45594000000E+02  0.51100000000E-03 0. -1.
         11   -1    0    0    0    0 -0.00000000000E+00 -0.00000000000E+00 -0.45593999997E+02  0.45594000000E+02  0.51100000000E-03 0.  1.
    9900012    2    1    2    0    0 -0.25989069444E+02 -0.26358085453E+02 -0.22659275125E+02  0.47787272489E+02  0.20000006586E+02 0.  0.
         12    1    1    2    0    0  0.25989069444E+02  0.26358085453E+02  0.22659275125E+02  0.43400727511E+02  0.00000000000E+00 0. -1.
         11    1    3    3    0    0 -0.44676441314E+01 -0.88698243139E+01 -0.10682610673E+02  0.14586013797E+02  0.51100000000E-03 0.  1.
        -11    1    3    3    0    0 -0.88787023137E+01 -0.27158215829E+01  0.16867436595E+01  0.94367444641E+01  0.51100000000E-03 0. -1.
         12    1    3    3    0    0 -0.12642722999E+02 -0.14772439556E+02 -0.13663408112E+02  0.23764514228E+02  0.00000000000E+00 0. -1.
</event>
<event>
 7    1  0.1246400E-009  0.4778728E+02  0.7816164E-02  0.1312668E+00
        -11   -1    0    0    0    0  0.00000000000E+00  0.00000000000E+00  0.45593999997E+02  0.45594000000E+02  0.51100000000E-03 0.  1.
         11   -1    0    0    0    0 -0.00000000000E+00 -0.00000000000E+00 -0.45593999997E+02  0.45594000000E+02  0.51100000000E-03 0. -1.
    9900012    2    1    2    0    0  0.28689327002E+02 -0.25991899159E+02  0.19620563468E+02  0.47787276313E+02  0.20000024022E+02 0.  0.
         12    1    1    2    0    0 -0.28689327002E+02  0.25991899159E+02 -0.19620563468E+02  0.43400723687E+02  0.00000000000E+00 0. -1.
         11    1    3    3    0    0 -0.96356217219E-02  0.18667042883E+01  0.21283811995E+01  0.28310218185E+01  0.51100000000E-03 0. -1.
        -11    1    3    3    0    0 -0.75479257532E+00 -0.12758193449E+01  0.16935995343E+01  0.22507124375E+01  0.51100000000E-03 0.  1.
        -12    1    3    3    0    0  0.29453755199E+02 -0.26582784103E+02  0.15798582734E+02  0.42705542057E+02  0.00000000000E+00 0.  1.
</event>
<event>
 7    1  0.1246400E-009  0.4778730E+02  0.7816164E-02  0.1312668E+00
        -11   -1    0    0    0    0  0.00000000000E+00  0.00000000000E+00  0.45593999997E+02  0.45594000000E+02  0.51100000000E-03 0.  1.
         11   -1    0    0    0    0 -0.00000000000E+00 -0.00000000000E+00 -0.45593999997E+02  0.45594000000E+02  0.51100000000E-03 0. -1.
    9900012    2    1    2    0    0 -0.41099678221E+02  0.13218473760E+02 -0.44395124555E+01  0.47787298747E+02  0.20000126305E+02 0.  0.
         12    1    1    2    0    0  0.41099678221E+02 -0.13218473760E+02  0.44395124555E+01  0.43400701253E+02  0.00000000000E+00 0. -1.
         11    1    3    3    0    0 -0.79770466187E+01  0.82392101508E+00  0.56404493642E+01  0.98044269535E+01  0.51100000000E-03 0. -1.
        -11    1    3    3    0    0 -0.69046684618E+01 -0.95397702398E+00 -0.29000365093E+00  0.69762899243E+01  0.51100000000E-03 0.  1.
        -12    1    3    3    0    0 -0.26217963141E+02  0.13348529769E+02 -0.97899581688E+01  0.31006581869E+02  0.00000000000E+00 0.  1.
</event>
<event>
 7    1  0.1246400E-009  0.4778727E+02  0.7816164E-02  0.1312668E+00
        -11   -1    0    0    0    0  0.00000000000E+00  0.00000000000E+00  0.45593999997E+02  0.45594000000E+02  0.51100000000E-03 0.  1.
         11   -1    0    0    0    0 -0.00000000000E+00 -0.00000000000E+00 -0.45593999997E+02  0.45594000000E+02  0.51100000000E-03 0. -1.
    9900012    2    1    2    0    0  0.11620854428E+02  0.39800088877E+02  0.12827008859E+02  0.47787268572E+02  0.19999988727E+02 0.  0.
         12    1    1    2    0    0 -0.11620854428E+02 -0.39800088877E+02 -0.12827008859E+02  0.43400731428E+02  0.00000000000E+00 0. -1.
         11    1    3    3    0    0  0.94396614794E+00  0.39205573916E+01  0.74169503509E+01  0.84423335114E+01  0.51100000000E-03 0. -1.
        -11    1    3    3    0    0 -0.80464419704E+00  0.15415825945E+02  0.99741632711E+00  0.15469000661E+02  0.51100000000E-03 0.  1.
         12    1    3    3    0    0  0.11481532477E+02  0.20463705540E+02  0.44126421805E+01  0.23875934400E+02  0.00000000000E+00 0. -1.
</event>
<event>
 7    1  0.1246400E-009  0.4778726E+02  0.7816164E-02  0.1312668E+00
        -11   -1    0    0    0    0  0.00000000000E+00  0.00000000000E+00  0.45593999997E+02  0.45594000000E+02  0.51100000000E-03 0.  1.
         11   -1    0    0    0    0 -0.00000000000E+00 -0.00000000000E+00 -0.45593999997E+02  0.45594000000E+02  0.51100000000E-03 0. -1.
    9900012    2    1    2    0    0  0.87210642293E+01  0.20381959602E+02  0.37311431112E+02  0.47787261180E+02  0.19999955022E+02 0.  0.
         12    1    1    2    0    0 -0.87210642293E+01 -0.20381959602E+02 -0.37311431112E+02  0.43400738820E+02  0.00000000000E+00 0. -1.
         11    1    3    3    0    0  0.34979611826E+01  0.13249114252E+02  0.65285755670E+01  0.15178835927E+02  0.51100000000E-03 0. -1.
        -11    1    3    3    0    0  0.18302246980E+01 -0.80290994397E+00  0.79927921948E+01  0.82388782096E+01  0.51100000000E-03 0.  1.
        -12    1    3    3    0    0  0.33928783487E+01  0.79357552945E+01  0.22790063350E+02  0.24369547043E+02  0.00000000000E+00 0.  1.
</event>
<event>
 7    1  0.1246400E-009  0.4778728E+02  0.7816164E-02  0.1312668E+00
        -11   -1    0    0    0    0  0.00000000000E+00  0.00000000000E+00  0.45593999997E+02  0.45594000000E+02  0.51100000000E-03 0.  1.
         11   -1    0    0    0    0 -0.00000000000E+00 -0.00000000000E+00 -0.45593999997E+02  0.45594000000E+02  0.51100000000E-03 0. -1.
    9900012    2    1    2    0    0  0.33092024724E+02  0.66197391376E+01  0.27289547297E+02  0.47787280671E+02  0.20000043893E+02 0.  0.
         12    1    1    2    0    0 -0.33092024724E+02 -0.66197391376E+01 -0.27289547297E+02  0.43400719329E+02  0.00000000000E+00 0. -1.
         11    1    3    3    0    0  0.63323903524E+01  0.82167305996E+01  0.47849499345E+01  0.11424078758E+02  0.51100000000E-03 0. -1.
        -11    1    3    3    0    0  0.13058054012E+02  0.64307457414E+00  0.16958326093E+02  0.21412873316E+02  0.51100000000E-03 0.  1.
        -12    1    3    3    0    0  0.13701580360E+02 -0.22400660362E+01  0.55462712688E+01  0.14950328598E+02  0.00000000000E+00 0.  1.
</event>
<event>
 7    1  0.1246400E-009  0.4778727E+02  0.7816164E-02  0.1312668E+00
        -11   -1    0    0    0    0  0.00000000000E+00  0.00000000000E+00  0.45593999997E+02  0.45594000000E+02  0.51100000000E-03 0.  1.
         11   -1    0    0    0    0 -0.00000000000E+00 -0.00000000000E+00 -0.45593999997E+02  0.45594000000E+02  0.51100000000E-03 0. -1.
    9900012    2    1    2    0    0 -0.20404861220E+02  0.22756651530E+02  0.30812332484E+02  0.47787269783E+02  0.19999994249E+02 0.  0.
         12    1    1    2    0    0  0.20404861220E+02 -0.22756651530E+02 -0.30812332484E+02  0.43400730217E+02  0.00000000000E+00 0. -1.
         11    1    3    3    0    0 -0.39374149479E+01 -0.91066683216E+00  0.38491589834E+01  0.55810909052E+01  0.51100000000E-03 0. -1.
        -11    1    3    3    0    0 -0.56949688978E+01  0.16326064629E+02  0.22607250331E+02  0.28461567505E+02  0.51100000000E-03 0.  1.
        -12    1    3    3    0    0 -0.10772477374E+02  0.73412537331E+01  0.43559231696E+01  0.13744611373E+02  0.00000000000E+00 0.  1.
</event>
<event>
 7    1  0.1246400E-009  0.4778727E+02  0.7816164E-02  0.1312668E+00
        -11   -1    0    0    0    0  0.00000000000E+00  0.00000000000E+00  0.45593999997E+02  0.45594000000E+02  0.51100000000E-03 0. -1.
         11   -1    0    0    0    0 -0.00000000000E+00 -0.00000000000E+00 -0.45593999997E+02  0.45594000000E+02  0.51100000000E-03 0.  1.
    9900012    2    1    2    0    0  0.29768312730E+02 -0.14132298678E+02  0.28244450882E+02  0.47787270579E+02  0.19999997878E+02 0.  0.
         12    1    1    2    0    0 -0.29768312730E+02  0.14132298678E+02 -0.28244450882E+02  0.43400729421E+02  0.00000000000E+00 0. -1.
         11    1    3    3    0    0  0.20267993316E+01 -0.27782531101E+01  0.40216954506E+01  0.52915631370E+01  0.51100000000E-03 0.  1.
        -11    1    3    3    0    0  0.14172492967E+02  0.12299589237E+01  0.18061151646E+02  0.22990814576E+02  0.51100000000E-03 0. -1.
        -12    1    3    3    0    0  0.13569020431E+02 -0.12584004491E+02  0.61616037853E+01  0.19504892866E+02  0.00000000000E+00 0.  1.
</event>
<event>
 7    1  0.1246400E-009  0.4778727E+02  0.7816164E-02  0.1312668E+00
        -11   -1    0    0    0    0  0.00000000000E+00  0.00000000000E+00  0.45593999997E+02  0.45594000000E+02  0.51100000000E-03 0.  1.
         11   -1    0    0    0    0 -0.00000000000E+00 -0.00000000000E+00 -0.45593999997E+02  0.45594000000E+02  0.51100000000E-03 0. -1.
    9900012    2    1    2    0    0  0.43172221750E+00 -0.41701884190E+02  0.12016222113E+02  0.47787272784E+02  0.20000007930E+02 0.  0.
         12    1    1    2    0    0 -0.43172221750E+00  0.41701884190E+02 -0.12016222113E+02  0.43400727216E+02  0.00000000000E+00 0. -1.
         11    1    3    3    0    0  0.57972700937E+01 -0.15184606623E+02  0.32727364910E+01  0.16579849916E+02  0.51100000000E-03 0. -1.
        -11    1    3    3    0    0 -0.26554963937E+01 -0.19951737126E+02  0.11957049053E+02  0.23411418106E+02  0.51100000000E-03 0.  1.
        -12    1    3    3    0    0 -0.27100514825E+01 -0.65655404412E+01 -0.32135634306E+01  0.77960047618E+01  0.00000000000E+00 0.  1.
</event>
<event>
 7    1  0.1246400E-009  0.4778727E+02  0.7816164E-02  0.1312668E+00
        -11   -1    0    0    0    0  0.00000000000E+00  0.00000000000E+00  0.45593999997E+02  0.45594000000E+02  0.51100000000E-03 0.  1.
         11   -1    0    0    0    0 -0.00000000000E+00 -0.00000000000E+00 -0.45593999997E+02  0.45594000000E+02  0.51100000000E-03 0. -1.
    9900012    2    1    2    0    0 -0.14721263029E+02  0.13104919351E+02  0.38667413131E+02  0.47787270345E+02  0.19999996811E+02 0.  0.
         12    1    1    2    0    0  0.14721263029E+02 -0.13104919351E+02 -0.38667413131E+02  0.43400729655E+02  0.00000000000E+00 0. -1.
         11    1    3    3    0    0 -0.29879590133E+00 -0.11766182436E+00  0.45241173200E+01  0.45355000917E+01  0.51100000000E-03 0. -1.
        -11    1    3    3    0    0 -0.11593226847E+02  0.16563896853E+02  0.33042572811E+02  0.38737284442E+02  0.51100000000E-03 0.  1.
        -12    1    3    3    0    0 -0.28292402807E+01 -0.33413156775E+01  0.11007229995E+01  0.45144858118E+01  0.00000000000E+00 0.  1.
</event>
<event>
 7    1  0.1246400E-009  0.4778727E+02  0.7816164E-02  0.1312668E+00
        -11   -1    0    0    0    0  0.00000000000E+00  0.00000000000E+00  0.45593999997E+02  0.45594000000E+02  0.51100000000E-03 0.  1.
         11   -1    0    0    0    0 -0.00000000000E+00 -0.00000000000E+00 -0.45593999997E+02  0.45594000000E+02  0.51100000000E-03 0. -1.
    9900012    2    1    2    0    0 -0.10317034758E+02  0.33489441645E+02  0.25605456839E+02  0.47787270423E+02  0.19999997166E+02 0.  0.
         12    1    1    2    0    0  0.10317034758E+02 -0.33489441645E+02 -0.25605456839E+02  0.43400729577E+02  0.00000000000E+00 0. -1.
         11    1    3    3    0    0 -0.81070452152E+01  0.19319880813E+02  0.17261299953E+02  0.27146536668E+02  0.51100000000E-03 0. -1.
        -11    1    3    3    0    0  0.24867870470E+01  0.12883084000E+02  0.30958871153E+01  0.13481189875E+02  0.51100000000E-03 0.  1.
         12    1    3    3    0    0 -0.46967765895E+01  0.12864768325E+01  0.52482697709E+01  0.71595438793E+01  0.00000000000E+00 0. -1.
</event>
<event>
 7    1  0.1246400E-009  0.4778727E+02  0.7816164E-02  0.1312668E+00
        -11   -1    0    0    0    0  0.00000000000E+00  0.00000000000E+00  0.45593999997E+02  0.45594000000E+02  0.51100000000E-03 0.  1.
         11   -1    0    0    0    0 -0.00000000000E+00 -0.00000000000E+00 -0.45593999997E+02  0.45594000000E+02  0.51100000000E-03 0. -1.
    9900012    2    1    2    0    0  0.10610592874E+02  0.33890296170E+02  0.24949679450E+02  0.47787270049E+02  0.19999995460E+02 0.  0.
         12    1    1    2    0    0 -0.10610592874E+02 -0.33890296170E+02 -0.24949679450E+02  0.43400729951E+02  0.00000000000E+00 0. -1.
         11    1    3    3    0    0 -0.28040546877E+01  0.53046053332E+01  0.22997064469E+01  0.64257459050E+01  0.51100000000E-03 0.  1.
        -11    1    3    3    0    0  0.80222638595E+00  0.67807856558E+01 -0.88849535962E+00  0.68856405329E+01  0.51100000000E-03 0. -1.
        -12    1    3    3    0    0  0.12612421176E+02  0.21804905181E+02  0.23538468363E+02  0.34475883611E+02  0.00000000000E+00 0.  1.
</event>
<event>
 7    1  0.1246400E-009  0.4778727E+02  0.7816164E-02  0.1312668E+00
        -11   -1    0    0    0    0  0.00000000000E+00  0.00000000000E+00  0.45593999997E+02  0.45594000000E+02  0.51100000000E-03 0.  1.
         11   -1    0    0    0    0 -0.00000000000E+00 -0.00000000000E+00 -0.45593999997E+02  0.45594000000E+02  0.51100000000E-03 0. -1.
    9900012    2    1    2    0    0  0.28002919890E+02 -0.29809526510E+02  0.14520733298E+02  0.47787273179E+02  0.20000009730E+02 0.  0.
         12    1    1    2    0    0 -0.28002919890E+02  0.29809526510E+02 -0.14520733298E+02  0.43400726821E+02  0.00000000000E+00 0. -1.
         11    1    3    3    0    0  0.10946454086E+02 -0.94168273152E+00  0.45719431593E+01  0.11900180164E+02  0.51100000000E-03 0. -1.
        -11    1    3    3    0    0  0.11449874211E+02 -0.14037770904E+02  0.83664021332E+01  0.19953829615E+02  0.51100000000E-03 0.  1.
        -12    1    3    3    0    0  0.56065915937E+01 -0.14830072874E+02  0.15823880052E+01  0.15933263399E+02  0.00000000000E+00 0.  1.
</event>
<event>
 7    1  0.1246400E-009  0.4778729E+02  0.7816164E-02  0.1312668E+00
        -11   -1    0    0    0    0  0.00000000000E+00  0.00000000000E+00  0.45593999997E+02  0.45594000000E+02  0.51100000000E-03 0.  1.
         11   -1    0    0    0    0 -0.00000000000E+00 -0.00000000000E+00 -0.45593999997E+02  0.45594000000E+02  0.51100000000E-03 0. -1.
    9900012    2    1    2    0    0  0.33621173868E+02 -0.24817977421E+02  0.11717774293E+02  0.47787290675E+02  0.20000089503E+02 0.  0.
         12    1    1    2    0    0 -0.33621173868E+02  0.24817977421E+02 -0.11717774293E+02  0.43400709325E+02  0.00000000000E+00 0. -1.
         11    1    3    3    0    0  0.83684777883E+01  0.96452481554E-01  0.54407894288E+01  0.99821297049E+01  0.51100000000E-03 0. -1.
        -11    1    3    3    0    0  0.21853833912E+02 -0.18825071905E+02  0.91534559435E+01  0.30261512600E+02  0.51100000000E-03 0.  1.
        -12    1    3    3    0    0  0.33988621684E+01 -0.60893579976E+01 -0.28764710798E+01  0.75436483704E+01  0.00000000000E+00 0.  1.
</event>
<event>
 7    1  0.1246400E-009  0.4778727E+02  0.7816164E-02  0.1312668E+00
        -11   -1    0    0    0    0  0.00000000000E+00  0.00000000000E+00  0.45593999997E+02  0.45594000000E+02  0.51100000000E-03 0. -1.
         11   -1    0    0    0    0 -0.00000000000E+00 -0.00000000000E+00 -0.45593999997E+02  0.45594000000E+02  0.51100000000E-03 0.  1.
    9900012    2    1    2    0    0 -0.20757402753E+02 -0.76597835774E+01 -0.37337393194E+02  0.47787274383E+02  0.20000015223E+02 0.  0.
         12    1    1    2    0    0  0.20757402753E+02  0.76597835774E+01  0.37337393194E+02  0.43400725617E+02  0.00000000000E+00 0. -1.
         11    1    3    3    0    0 -0.48750037042E+01 -0.48584371373E+01 -0.54698469705E+01  0.87914332549E+01  0.51100000000E-03 0. -1.
        -11    1    3    3    0    0 -0.93576033479E+01 -0.27718687508E+01 -0.30893841559E+02  0.32398725952E+02  0.51100000000E-03 0.  1.
        -12    1    3    3    0    0 -0.65247957012E+01 -0.29477689325E-01 -0.97370466520E+00  0.65971151765E+01  0.00000000000E+00 0.  1.
</event>
<event>
 7    1  0.1246400E-009  0.4778727E+02  0.7816164E-02  0.1312668E+00
        -11   -1    0    0    0    0  0.00000000000E+00  0.00000000000E+00  0.45593999997E+02  0.45594000000E+02  0.51100000000E-03 0. -1.
         11   -1    0    0    0    0 -0.00000000000E+00 -0.00000000000E+00 -0.45593999997E+02  0.45594000000E+02  0.51100000000E-03 0.  1.
    9900012    2    1    2    0    0  0.27448139192E+02 -0.32105804084E+02  0.99719640846E+01  0.47787273409E+02  0.20000010779E+02 0.  0.
         12    1    1    2    0    0 -0.27448139192E+02  0.32105804084E+02 -0.99719640846E+01  0.43400726591E+02  0.00000000000E+00 0. -1.
         11    1    3    3    0    0  0.12073264831E+02 -0.84604091522E+01  0.10030492363E+02  0.17831237311E+02  0.51100000000E-03 0. -1.
        -11    1    3    3    0    0  0.60507071424E+01 -0.49747642104E+01 -0.38769985137E+01  0.87401632484E+01  0.51100000000E-03 0.  1.
        -12    1    3    3    0    0  0.93241672181E+01 -0.18670630721E+02  0.38184702350E+01  0.21215872850E+02  0.00000000000E+00 0.  1.
</event>
<event>
 7    1  0.1246400E-009  0.4778727E+02  0.7816164E-02  0.1312668E+00
        -11   -1    0    0    0    0  0.00000000000E+00  0.00000000000E+00  0.45593999997E+02  0.45594000000E+02  0.51100000000E-03 0.  1.
         11   -1    0    0    0    0 -0.00000000000E+00 -0.00000000000E+00 -0.45593999997E+02  0.45594000000E+02  0.51100000000E-03 0. -1.
    9900012    2    1    2    0    0 -0.37592632937E+02 -0.85190112094E+01  0.19946017813E+02  0.47787271553E+02  0.20000002320E+02 0.  0.
         12    1    1    2    0    0  0.37592632937E+02  0.85190112094E+01 -0.19946017813E+02  0.43400728447E+02  0.00000000000E+00 0. -1.
         11    1    3    3    0    0 -0.33284999459E+01 -0.13867234206E+01 -0.24384846611E+01  0.43529439967E+01  0.51100000000E-03 0. -1.
        -11    1    3    3    0    0 -0.16338167227E+02 -0.18910461054E+01  0.33841311969E+01  0.16791786919E+02  0.51100000000E-03 0.  1.
        -12    1    3    3    0    0 -0.17925965764E+02 -0.52412416835E+01  0.19000371278E+02  0.26642540638E+02  0.00000000000E+00 0.  1.
</event>
<event>
 7    1  0.1246400E-009  0.4778728E+02  0.7816164E-02  0.1312668E+00
        -11   -1    0    0    0    0  0.00000000000E+00  0.00000000000E+00  0.45593999997E+02  0.45594000000E+02  0.51100000000E-03 0.  1.
         11   -1    0    0    0    0 -0.00000000000E+00 -0.00000000000E+00 -0.45593999997E+02  0.45594000000E+02  0.51100000000E-03 0. -1.
    9900012    2    1    2    0    0  0.10890066081E+02 -0.30408450577E+02  0.28988883182E+02  0.47787277035E+02  0.20000027315E+02 0.  0.
         12    1    1    2    0    0 -0.10890066081E+02  0.30408450577E+02 -0.28988883182E+02  0.43400722965E+02  0.00000000000E+00 0. -1.
         11    1    3    3    0    0 -0.20755933434E+01 -0.15714971169E+02  0.13762121372E+02  0.20992007801E+02  0.51100000000E-03 0. -1.
        -11    1    3    3    0    0  0.86800764748E+01 -0.96730380745E+01  0.15451511657E+02  0.20190606874E+02  0.51100000000E-03 0.  1.
        -12    1    3    3    0    0  0.42855829492E+01 -0.50204413336E+01 -0.22474984821E+00  0.66046623602E+01  0.00000000000E+00 0.  1.
</event>
<event>
 7    1  0.1246400E-009  0.4778726E+02  0.7816164E-02  0.1312668E+00
        -11   -1    0    0    0    0  0.00000000000E+00  0.00000000000E+00  0.45593999997E+02  0.45594000000E+02  0.51100000000E-03 0. -1.
         11   -1    0    0    0    0 -0.00000000000E+00 -0.00000000000E+00 -0.45593999997E+02  0.45594000000E+02  0.51100000000E-03 0.  1.
    9900012    2    1    2    0    0  0.31033685138E+02  0.13265307871E+02 -0.27286734935E+02  0.47787263721E+02  0.19999966609E+02 0.  0.
         12    1    1    2    0    0 -0.31033685138E+02 -0.13265307871E+02  0.27286734935E+02  0.43400736279E+02  0.00000000000E+00 0. -1.
         11    1    3    3    0    0  0.45510932893E+01 -0.10202949672E+01  0.12808515164E+01  0.48367378279E+01  0.51100000000E-03 0. -1.
        -11    1    3    3    0    0  0.19822450457E+02  0.50230604820E+01 -0.15901191658E+02  0.25903833213E+02  0.51100000000E-03 0.  1.
         12    1    3    3    0    0  0.66601413920E+01  0.92625423562E+01 -0.12666394794E+02  0.17046692680E+02  0.00000000000E+00 0. -1.
</event>
<event>
 7    1  0.1246400E-009  0.4778727E+02  0.7816164E-02  0.1312668E+00
        -11   -1    0    0    0    0  0.00000000000E+00  0.00000000000E+00  0.45593999997E+02  0.45594000000E+02  0.51100000000E-03 0.  1.
         11   -1    0    0    0    0 -0.00000000000E+00 -0.00000000000E+00 -0.45593999997E+02  0.45594000000E+02  0.51100000000E-03 0. -1.
    9900012    2    1    2    0    0 -0.23107075146E+02  0.26386743478E+02  0.25562196450E+02  0.47787273733E+02  0.20000012259E+02 0.  0.
         12    1    1    2    0    0  0.23107075146E+02 -0.26386743478E+02 -0.25562196450E+02  0.43400726267E+02  0.00000000000E+00 0. -1.
         11    1    3    3    0    0 -0.93784198616E+01  0.79179891229E+01  0.16836777356E+01  0.12388869272E+02  0.51100000000E-03 0. -1.
        -11    1    3    3    0    0 -0.86258301094E+00  0.11410549621E+01 -0.15075600617E+01  0.20781707048E+01  0.51100000000E-03 0.  1.
        -12    1    3    3    0    0 -0.12866072273E+02  0.17327699393E+02  0.25386078776E+02  0.33320233757E+02  0.00000000000E+00 0.  1.
</event>
<event>
 7    1  0.1246400E-009  0.4778727E+02  0.7816164E-02  0.1312668E+00
        -11   -1    0    0    0    0  0.00000000000E+00  0.00000000000E+00  0.45593999997E+02  0.45594000000E+02  0.51100000000E-03 0. -1.
         11   -1    0    0    0    0 -0.00000000000E+00 -0.00000000000E+00 -0.45593999997E+02  0.45594000000E+02  0.51100000000E-03 0.  1.
    9900012    2    1    2    0    0  0.12290785223E+02 -0.39336540922E+02  0.13608688599E+02  0.47787271221E+02  0.20000000806E+02 0.  0.
         12    1    1    2    0    0 -0.12290785223E+02  0.39336540922E+02 -0.13608688599E+02  0.43400728779E+02  0.00000000000E+00 0. -1.
         11    1    3    3    0    0  0.33669871543E+01 -0.10190518370E+02  0.96371518195E+01  0.14424214453E+02  0.51100000000E-03 0.  1.
        -11    1    3    3    0    0  0.79541816127E+01 -0.64551908117E+01 -0.32307162885E+00  0.10249042349E+02  0.51100000000E-03 0. -1.
        -12    1    3    3    0    0  0.96961645651E+00 -0.22690831741E+02  0.42946084084E+01  0.23114014419E+02  0.00000000000E+00 0.  1.
</event>
<event>
 7    1  0.1246400E-009  0.4778728E+02  0.7816164E-02  0.1312668E+00
        -11   -1    0    0    0    0  0.00000000000E+00  0.00000000000E+00  0.45593999997E+02  0.45594000000E+02  0.51100000000E-03 0.  1.
         11   -1    0    0    0    0 -0.00000000000E+00 -0.00000000000E+00 -0.45593999997E+02  0.45594000000E+02  0.51100000000E-03 0. -1.
    9900012    2    1    2    0    0 -0.38649012165E+02  0.15814734052E+02  0.11822476413E+02  0.47787275317E+02  0.20000019479E+02 0.  0.
         12    1    1    2    0    0  0.38649012165E+02 -0.15814734052E+02 -0.11822476413E+02  0.43400724683E+02  0.00000000000E+00 0. -1.
         11    1    3    3    0    0 -0.13617758054E+02  0.11048374012E+02 -0.96646456999E+00  0.17562572612E+02  0.51100000000E-03 0. -1.
        -11    1    3    3    0    0 -0.10769352065E+02  0.71486328505E+01  0.60894529493E+01  0.14288573512E+02  0.51100000000E-03 0.  1.
         12    1    3    3    0    0 -0.14261902047E+02 -0.23822728103E+01  0.66994880339E+01  0.15936129193E+02  0.00000000000E+00 0. -1.
</event>
<event>
 7    1  0.1246400E-009  0.4778727E+02  0.7816164E-02  0.1312668E+00
        -11   -1    0    0    0    0  0.00000000000E+00  0.00000000000E+00  0.45593999997E+02  0.45594000000E+02  0.51100000000E-03 0. -1.
         11   -1    0    0    0    0 -0.00000000000E+00 -0.00000000000E+00 -0.45593999997E+02  0.45594000000E+02  0.51100000000E-03 0.  1.
    9900012    2    1    2    0    0  0.45687032046E+01  0.41186287780E+02 -0.12901166549E+02  0.47787269034E+02  0.19999990834E+02 0.  0.
         12    1    1    2    0    0 -0.45687032046E+01 -0.41186287780E+02  0.12901166549E+02  0.43400730966E+02  0.00000000000E+00 0. -1.
         11    1    3    3    0    0  0.88227519949E+00 -0.22835401748E+00  0.10934867443E+01  0.14234706200E+01  0.51100000000E-03 0. -1.
        -11    1    3    3    0    0 -0.36916925331E+01  0.22065913147E+02 -0.12438117044E+02  0.25597653655E+02  0.51100000000E-03 0.  1.
         12    1    3    3    0    0  0.73781205382E+01  0.19348728651E+02 -0.15565362494E+01  0.20766144759E+02  0.00000000000E+00 0. -1.
</event>
<event>
 7    1  0.1246400E-009  0.4778726E+02  0.7816164E-02  0.1312668E+00
        -11   -1    0    0    0    0  0.00000000000E+00  0.00000000000E+00  0.45593999997E+02  0.45594000000E+02  0.51100000000E-03 0. -1.
         11   -1    0    0    0    0 -0.00000000000E+00 -0.00000000000E+00 -0.45593999997E+02  0.45594000000E+02  0.51100000000E-03 0.  1.
    9900012    2    1    2    0    0 -0.13811262706E+02  0.36402597059E+01 -0.40983184930E+02  0.47787263655E+02  0.19999966310E+02 0.  0.
         12    1    1    2    0    0  0.13811262706E+02 -0.36402597059E+01  0.40983184930E+02  0.43400736345E+02  0.00000000000E+00 0. -1.
         11    1    3    3    0    0 -0.67983829659E+01  0.10134959248E+02 -0.25668318933E+02  0.28421787540E+02  0.51100000000E-03 0. -1.
        -11    1    3    3    0    0 -0.63686119549E+01 -0.26718577888E+01 -0.13323637546E+02  0.15007243584E+02  0.51100000000E-03 0.  1.
         12    1    3    3    0    0 -0.64426778531E+00 -0.38228417530E+01 -0.19912284514E+01  0.43582325309E+01  0.00000000000E+00 0. -1.
</event>
<event>
 7    1  0.1246400E-009  0.4778727E+02  0.7816164E-02  0.1312668E+00
        -11   -1    0    0    0    0  0.00000000000E+00  0.00000000000E+00  0.45593999997E+02  0.45594000000E+02  0.51100000000E-03 0.  1.
         11   -1    0    0    0    0 -0.00000000000E+00 -0.00000000000E+00 -0.45593999997E+02  0.45594000000E+02  0.51100000000E-03 0. -1.
    9900012    2    1    2    0    0 -0.13787795474E+02 -0.32552490659E+02  0.25176482602E+02  0.47787271569E+02  0.20000002393E+02 0.  0.
         12    1    1    2    0    0  0.13787795474E+02  0.32552490659E+02 -0.25176482602E+02  0.43400728431E+02  0.00000000000E+00 0. -1.
         11    1    3    3    0    0 -0.11503979507E+01 -0.11404289791E+02 -0.56516634464E+00  0.11476090552E+02  0.51100000000E-03 0.  1.
        -11    1    3    3    0    0 -0.59387714273E+01 -0.39115117501E+01  0.67945046071E+01  0.98353557817E+01  0.51100000000E-03 0. -1.
        -12    1    3    3    0    0 -0.66986260962E+01 -0.17236689117E+02  0.18947144339E+02  0.26475825236E+02  0.00000000000E+00 0.  1.
</event>
<event>
 7    1  0.1246400E-009  0.4778727E+02  0.7816164E-02  0.1312668E+00
        -11   -1    0    0    0    0  0.00000000000E+00  0.00000000000E+00  0.45593999997E+02  0.45594000000E+02  0.51100000000E-03 0. -1.
         11   -1    0    0    0    0 -0.00000000000E+00 -0.00000000000E+00 -0.45593999997E+02  0.45594000000E+02  0.51100000000E-03 0.  1.
    9900012    2    1    2    0    0 -0.53223781999E+01 -0.43038916256E+02  0.17168121502E+01  0.47787268829E+02  0.19999989898E+02 0.  0.
         12    1    1    2    0    0  0.53223781999E+01  0.43038916256E+02 -0.17168121502E+01  0.43400731171E+02  0.00000000000E+00 0. -1.
         11    1    3    3    0    0  0.18384237152E+01 -0.24695840884E+01  0.18072448592E+01  0.35699834129E+01  0.51100000000E-03 0. -1.
        -11    1    3    3    0    0 -0.91976219325E+01 -0.38551026915E+02  0.33078964833E+01  0.39770844909E+02  0.51100000000E-03 0.  1.
        -12    1    3    3    0    0  0.20368200173E+01 -0.20183052532E+01 -0.33983291923E+01  0.44464405064E+01  0.00000000000E+00 0.  1.
</event>
<event>
 7    1  0.1246400E-009  0.4778727E+02  0.7816164E-02  0.1312668E+00
        -11   -1    0    0    0    0  0.00000000000E+00  0.00000000000E+00  0.45593999997E+02  0.45594000000E+02  0.51100000000E-03 0.  1.
         11   -1    0    0    0    0 -0.00000000000E+00 -0.00000000000E+00 -0.45593999997E+02  0.45594000000E+02  0.51100000000E-03 0. -1.
    9900012    2    1    2    0    0 -0.22168047559E+02  0.20487229697E+02 -0.31184518107E+02  0.47787273246E+02  0.20000010036E+02 0.  0.
         12    1    1    2    0    0  0.22168047559E+02 -0.20487229697E+02  0.31184518107E+02  0.43400726754E+02  0.00000000000E+00 0. -1.
         11    1    3    3    0    0 -0.20764860575E+00  0.26982999046E+01 -0.61776422685E+01  0.67444202550E+01  0.51100000000E-03 0. -1.
        -11    1    3    3    0    0 -0.16625668324E+02  0.72066397941E+01 -0.68732374124E+01  0.19380141825E+02  0.51100000000E-03 0.  1.
        -12    1    3    3    0    0 -0.53347306290E+01  0.10582289998E+02 -0.18133638426E+02  0.21662711166E+02  0.00000000000E+00 0.  1.
</event>
<event>
 7    1  0.1246400E-009  0.4778728E+02  0.7816164E-02  0.1312668E+00
        -11   -1    0    0    0    0  0.00000000000E+00  0.00000000000E+00  0.45593999997E+02  0.45594000000E+02  0.51100000000E-03 0.  1.
         11   -1    0    0    0    0 -0.00000000000E+00 -0.00000000000E+00 -0.45593999997E+02  0.45594000000E+02  0.51100000000E-03 0. -1.
    9900012    2    1    2    0    0  0.17148126903E+02 -0.35914766418E+02 -0.17311669857E+02  0.47787278619E+02  0.20000034537E+02 0.  0.
         12    1    1    2    0    0 -0.17148126903E+02  0.35914766418E+02  0.17311669857E+02  0.43400721381E+02  0.00000000000E+00 0. -1.
         11    1    3    3    0    0  0.43440407758E+01 -0.83761765367E+00 -0.60489666904E+01  0.74941505108E+01  0.51100000000E-03 0. -1.
        -11    1    3    3    0    0  0.26781244935E+01 -0.14904671624E+02 -0.89823158000E+01  0.17606918652E+02  0.51100000000E-03 0.  1.
        -12    1    3    3    0    0  0.10125961634E+02 -0.20172477140E+02 -0.22803873666E+01  0.22686209457E+02  0.00000000000E+00 0.  1.
</event>
<event>
 7    1  0.1246400E-009  0.4778727E+02  0.7816164E-02  0.1312668E+00
        -11   -1    0    0    0    0  0.00000000000E+00  0.00000000000E+00  0.45593999997E+02  0.45594000000E+02  0.51100000000E-03 0.  1.
         11   -1    0    0    0    0 -0.00000000000E+00 -0.00000000000E+00 -0.45593999997E+02  0.45594000000E+02  0.51100000000E-03 0. -1.
    9900012    2    1    2    0    0 -0.11273499587E+02 -0.32163384555E+02  0.26870951848E+02  0.47787272446E+02  0.20000006391E+02 0.  0.
         12    1    1    2    0    0  0.11273499587E+02  0.32163384555E+02 -0.26870951848E+02  0.43400727554E+02  0.00000000000E+00 0. -1.
         11    1    3    3    0    0 -0.19280830639E+01  0.20360244613E+01 -0.63404696913E+00  0.28748766458E+01  0.51100000000E-03 0. -1.
        -11    1    3    3    0    0 -0.26662671910E+01 -0.10630110329E+02  0.95961265865E+01  0.14566875851E+02  0.51100000000E-03 0.  1.
         12    1    3    3    0    0 -0.66791493322E+01 -0.23569298687E+02  0.17908872231E+02  0.30345519950E+02  0.00000000000E+00 0. -1.
</event>
<event>
 7    1  0.1246400E-009  0.4778727E+02  0.7816164E-02  0.1312668E+00
        -11   -1    0    0    0    0  0.00000000000E+00  0.00000000000E+00  0.45593999997E+02  0.45594000000E+02  0.51100000000E-03 0.  1.
         11   -1    0    0    0    0 -0.00000000000E+00 -0.00000000000E+00 -0.45593999997E+02  0.45594000000E+02  0.51100000000E-03 0. -1.
    9900012    2    1    2    0    0  0.26086819026E+02  0.27380926822E+02  0.21292859768E+02  0.47787272384E+02  0.20000006107E+02 0.  0.
         12    1    1    2    0    0 -0.26086819026E+02 -0.27380926822E+02 -0.21292859768E+02  0.43400727616E+02  0.00000000000E+00 0. -1.
         11    1    3    3    0    0  0.10929822307E+02  0.11527603346E+02  0.50264583831E+00  0.15893373074E+02  0.51100000000E-03 0. -1.
        -11    1    3    3    0    0  0.47215583983E+01  0.96315423889E+01  0.46477203548E+01  0.11690210745E+02  0.51100000000E-03 0.  1.
         12    1    3    3    0    0  0.10435438321E+02  0.62217810870E+01  0.16142493575E+02  0.20203688565E+02  0.00000000000E+00 0. -1.
</event>
<event>
 7    1  0.1246400E-009  0.4778727E+02  0.7816164E-02  0.1312668E+00
        -11   -1    0    0    0    0  0.00000000000E+00  0.00000000000E+00  0.45593999997E+02  0.45594000000E+02  0.51100000000E-03 0.  1.
         11   -1    0    0    0    0 -0.00000000000E+00 -0.00000000000E+00 -0.45593999997E+02  0.45594000000E+02  0.51100000000E-03 0. -1.
    9900012    2    1    2    0    0 -0.22802201241E+02  0.10595873040E+02  0.35375276364E+02  0.47787273223E+02  0.20000009933E+02 0.  0.
         12    1    1    2    0    0  0.22802201241E+02 -0.10595873040E+02 -0.35375276364E+02  0.43400726777E+02  0.00000000000E+00 0. -1.
         11    1    3    3    0    0  0.18441515655E+01  0.10234756871E+01  0.22945200253E+00  0.21215668646E+01  0.51100000000E-03 0. -1.
        -11    1    3    3    0    0 -0.13784512388E+02  0.96508033877E+01  0.13985226902E+02  0.21880067632E+02  0.51100000000E-03 0.  1.
        -12    1    3    3    0    0 -0.10861840418E+02 -0.78406035117E-01  0.21160597460E+02  0.23785638727E+02  0.00000000000E+00 0.  1.
</event>
<event>
 7    1  0.1246400E-009  0.4778729E+02  0.7816164E-02  0.1312668E+00
        -11   -1    0    0    0    0  0.00000000000E+00  0.00000000000E+00  0.45593999997E+02  0.45594000000E+02  0.51100000000E-03 0.  1.
         11   -1    0    0    0    0 -0.00000000000E+00 -0.00000000000E+00 -0.45593999997E+02  0.45594000000E+02  0.51100000000E-03 0. -1.
    9900012    2    1    2    0    0 -0.42184859749E+02 -0.90693229789E+01  0.46697576165E+01  0.47787289780E+02  0.20000085425E+02 0.  0.
         12    1    1    2    0    0  0.42184859749E+02  0.90693229789E+01 -0.46697576165E+01  0.43400710220E+02  0.00000000000E+00 0. -1.
         11    1    3    3    0    0 -0.40445544509E+01  0.71571635674E+00  0.56993111923E+01  0.70251561504E+01  0.51100000000E-03 0.  1.
        -11    1    3    3    0    0 -0.89865707868E+01 -0.32596817308E+01 -0.47177344490E+01  0.10660253190E+02  0.51100000000E-03 0. -1.
        -12    1    3    3    0    0 -0.29153734512E+02 -0.65253576048E+01  0.36881808732E+01  0.30101880440E+02  0.00000000000E+00 0.  1.
</event>
<event>
 7    1  0.1246400E-009  0.4778728E+02  0.7816164E-02  0.1312668E+00
        -11   -1    0    0    0    0  0.00000000000E+00  0.00000000000E+00  0.45593999997E+02  0.45594000000E+02  0.51100000000E-03 0. -1.
         11   -1    0    0    0    0 -0.00000000000E+00 -0.00000000000E+00 -0.45593999997E+02  0.45594000000E+02  0.51100000000E-03 0.  1.
    9900012    2    1    2    0    0  0.28800349590E+02 -0.23525925580E+02 -0.22376179347E+02  0.47787277505E+02  0.20000029456E+02 0.  0.
         12    1    1    2    0    0 -0.28800349590E+02  0.23525925580E+02  0.22376179347E+02  0.43400722495E+02  0.00000000000E+00 0. -1.
         11    1    3    3    0    0  0.13973748823E+02 -0.13627713502E+02 -0.94386800036E+01  0.21681072665E+02  0.51100000000E-03 0.  1.
        -11    1    3    3    0    0  0.92999771453E+01 -0.18995888738E+01  0.51767889257E+00  0.95061035388E+01  0.51100000000E-03 0. -1.
         12    1    3    3    0    0  0.55266236226E+01 -0.79986232042E+01 -0.13455178236E+02  0.16600101301E+02  0.00000000000E+00 0. -1.
</event>
<event>
 7    1  0.1246400E-009  0.4778727E+02  0.7816164E-02  0.1312668E+00
        -11   -1    0    0    0    0  0.00000000000E+00  0.00000000000E+00  0.45593999997E+02  0.45594000000E+02  0.51100000000E-03 0. -1.
         11   -1    0    0    0    0 -0.00000000000E+00 -0.00000000000E+00 -0.45593999997E+02  0.45594000000E+02  0.51100000000E-03 0.  1.
    9900012    2    1    2    0    0 -0.25120792366E+02 -0.34606094919E+02 -0.74153389309E+01  0.47787271134E+02  0.20000000410E+02 0.  0.
         12    1    1    2    0    0  0.25120792366E+02  0.34606094919E+02  0.74153389309E+01  0.43400728866E+02  0.00000000000E+00 0. -1.
         11    1    3    3    0    0 -0.18090324806E+02 -0.17081262466E+02 -0.74007303822E+01  0.25957661479E+02  0.51100000000E-03 0. -1.
        -11    1    3    3    0    0 -0.32033678161E+00 -0.13221291997E+02 -0.25413863832E+01  0.13467138624E+02  0.51100000000E-03 0.  1.
         12    1    3    3    0    0 -0.67101307785E+01 -0.43035404558E+01  0.25267778345E+01  0.83624710310E+01  0.00000000000E+00 0. -1.
</event>
<event>
 7    1  0.1246400E-009  0.4778727E+02  0.7816164E-02  0.1312668E+00
        -11   -1    0    0    0    0  0.00000000000E+00  0.00000000000E+00  0.45593999997E+02  0.45594000000E+02  0.51100000000E-03 0.  1.
         11   -1    0    0    0    0 -0.00000000000E+00 -0.00000000000E+00 -0.45593999997E+02  0.45594000000E+02  0.51100000000E-03 0. -1.
    9900012    2    1    2    0    0  0.39957319619E+02 -0.29090137196E+01 -0.16690514260E+02  0.47787273990E+02  0.20000013431E+02 0.  0.
         12    1    1    2    0    0 -0.39957319619E+02  0.29090137196E+01  0.16690514260E+02  0.43400726010E+02  0.00000000000E+00 0. -1.
         11    1    3    3    0    0  0.14700910323E+02  0.12875680484E+01  0.28134678662E+01  0.15022988967E+02  0.51100000000E-03 0. -1.
        -11    1    3    3    0    0  0.10635088367E+02 -0.43149048537E+01 -0.64622919926E+01  0.13171360087E+02  0.51100000000E-03 0.  1.
         12    1    3    3    0    0  0.14621320929E+02  0.11832308568E+00 -0.13041690133E+02  0.19592924937E+02  0.00000000000E+00 0. -1.
</event>
<event>
 7    1  0.1246400E-009  0.4778727E+02  0.7816164E-02  0.1312668E+00
        -11   -1    0    0    0    0  0.00000000000E+00  0.00000000000E+00  0.45593999997E+02  0.45594000000E+02  0.51100000000E-03 0. -1.
         11   -1    0    0    0    0 -0.00000000000E+00 -0.00000000000E+00 -0.45593999997E+02  0.45594000000E+02  0.51100000000E-03 0.  1.
    9900012    2    1    2    0    0 -0.24369113899E+02  0.79999135940E+01 -0.35011013436E+02  0.47787269689E+02  0.19999993820E+02 0.  0.
         12    1    1    2    0    0  0.24369113899E+02 -0.79999135940E+01  0.35011013436E+02  0.43400730311E+02  0.00000000000E+00 0. -1.
         11    1    3    3    0    0 -0.41617105429E+00 -0.32308575290E+01 -0.46565478581E+01  0.56828757628E+01  0.51100000000E-03 0. -1.
        -11    1    3    3    0    0 -0.13951212429E+01  0.27852417740E+01 -0.10302994518E+02  0.10763625380E+02  0.51100000000E-03 0.  1.
         12    1    3    3    0    0 -0.22557821602E+02  0.84455293490E+01 -0.20051471060E+02  0.31340768546E+02  0.00000000000E+00 0. -1.
</event>
<event>
 7    1  0.1246400E-009  0.4778727E+02  0.7816164E-02  0.1312668E+00
        -11   -1    0    0    0    0  0.00000000000E+00  0.00000000000E+00  0.45593999997E+02  0.45594000000E+02  0.51100000000E-03 0.  1.
         11   -1    0    0    0    0 -0.00000000000E+00 -0.00000000000E+00 -0.45593999997E+02  0.45594000000E+02  0.51100000000E-03 0. -1.
    9900012    2    1    2    0    0  0.17072937117E+02  0.39727945624E+02  0.37186911910E+01  0.47787268330E+02  0.19999987625E+02 0.  0.
         12    1    1    2    0    0 -0.17072937117E+02 -0.39727945624E+02 -0.37186911910E+01  0.43400731670E+02  0.00000000000E+00 0. -1.
         11    1    3    3    0    0 -0.41609479122E+00  0.11037895855E+01 -0.17711299183E+01  0.21280008865E+01  0.51100000000E-03 0. -1.
        -11    1    3    3    0    0  0.11294292943E+02  0.22850904196E+02  0.11109732629E+02  0.27805593591E+02  0.51100000000E-03 0.  1.
         12    1    3    3    0    0  0.61947389659E+01  0.15773251843E+02 -0.56199115192E+01  0.17853673853E+02  0.00000000000E+00 0. -1.
</event>
<event>
 7    1  0.1246400E-009  0.4778727E+02  0.7816164E-02  0.1312668E+00
        -11   -1    0    0    0    0  0.00000000000E+00  0.00000000000E+00  0.45593999997E+02  0.45594000000E+02  0.51100000000E-03 0.  1.
         11   -1    0    0    0    0 -0.00000000000E+00 -0.00000000000E+00 -0.45593999997E+02  0.45594000000E+02  0.51100000000E-03 0. -1.
    9900012    2    1    2    0    0 -0.14942013414E+02 -0.19647242668E+02  0.35697979623E+02  0.47787266613E+02  0.19999979798E+02 0.  0.
         12    1    1    2    0    0  0.14942013414E+02  0.19647242668E+02 -0.35697979623E+02  0.43400733387E+02  0.00000000000E+00 0. -1.
         11    1    3    3    0    0 -0.37666020502E+01  0.23545950529E+00 -0.14259176446E+01  0.40343492131E+01  0.51100000000E-03 0.  1.
        -11    1    3    3    0    0 -0.24518949396E+01 -0.81774502811E+01  0.14563559805E+02  0.16881343440E+02  0.51100000000E-03 0. -1.
        -12    1    3    3    0    0 -0.87235164239E+01 -0.11705251893E+02  0.22560337462E+02  0.26871573960E+02  0.00000000000E+00 0.  1.
</event>
<event>
 7    1  0.1246400E-009  0.4778729E+02  0.7816164E-02  0.1312668E+00
        -11   -1    0    0    0    0  0.00000000000E+00  0.00000000000E+00  0.45593999997E+02  0.45594000000E+02  0.51100000000E-03 0.  1.
         11   -1    0    0    0    0 -0.00000000000E+00 -0.00000000000E+00 -0.45593999997E+02  0.45594000000E+02  0.51100000000E-03 0. -1.
    9900012    2    1    2    0    0 -0.33655747041E+02 -0.17550115743E+02  0.21045332600E+02  0.47787286922E+02  0.20000072392E+02 0.  0.
         12    1    1    2    0    0  0.33655747041E+02  0.17550115743E+02 -0.21045332600E+02  0.43400713078E+02  0.00000000000E+00 0. -1.
         11    1    3    3    0    0 -0.17219471598E+01 -0.54117796995E+01  0.12089980697E+01  0.58063877007E+01  0.51100000000E-03 0. -1.
        -11    1    3    3    0    0 -0.25162432270E+02 -0.13077993554E+02  0.20673170357E+02  0.35093616030E+02  0.51100000000E-03 0.  1.
         12    1    3    3    0    0 -0.67713676108E+01  0.93965751113E+00 -0.83683582729E+00  0.68872831916E+01  0.00000000000E+00 0. -1.
</event>
<event>
 7    1  0.1246400E-009  0.4778726E+02  0.7816164E-02  0.1312668E+00
        -11   -1    0    0    0    0  0.00000000000E+00  0.00000000000E+00  0.45593999997E+02  0.45594000000E+02  0.51100000000E-03 0. -1.
         11   -1    0    0    0    0 -0.00000000000E+00 -0.00000000000E+00 -0.45593999997E+02  0.45594000000E+02  0.51100000000E-03 0.  1.
    9900012    2    1    2    0    0  0.39324691971E+02  0.13942412050E+02 -0.11949971798E+02  0.47787261777E+02  0.19999957744E+02 0.  0.
         12    1    1    2    0    0 -0.39324691971E+02 -0.13942412050E+02  0.11949971798E+02  0.43400738223E+02  0.00000000000E+00 0. -1.
         11    1    3    3    0    0  0.51608985971E+01 -0.77060970158E+00  0.45531086271E+01  0.69252806494E+01  0.51100000000E-03 0. -1.
        -11    1    3    3    0    0  0.85150106540E+01  0.38532060597E+01 -0.59346522859E+01  0.11071255638E+02  0.51100000000E-03 0.  1.
         12    1    3    3    0    0  0.25648782720E+02  0.10859815692E+02 -0.10568428139E+02  0.29790725490E+02  0.00000000000E+00 0. -1.
</event>
<event>
 7    1  0.1246400E-009  0.4778727E+02  0.7816164E-02  0.1312668E+00
        -11   -1    0    0    0    0  0.00000000000E+00  0.00000000000E+00  0.45593999997E+02  0.45594000000E+02  0.51100000000E-03 0.  1.
         11   -1    0    0    0    0 -0.00000000000E+00 -0.00000000000E+00 -0.45593999997E+02  0.45594000000E+02  0.51100000000E-03 0. -1.
    9900012    2    1    2    0    0 -0.68489967916E+01  0.92573787550E+01  0.41845137258E+02  0.47787270391E+02  0.19999997021E+02 0.  0.
         12    1    1    2    0    0  0.68489967916E+01 -0.92573787550E+01 -0.41845137258E+02  0.43400729609E+02  0.00000000000E+00 0. -1.
         11    1    3    3    0    0  0.14303616855E+01  0.85570773674E+01  0.10764792707E+02  0.13825710467E+02  0.51100000000E-03 0. -1.
        -11    1    3    3    0    0  0.61020732748E+00 -0.19610710352E+01  0.16839209382E+02  0.16963994974E+02  0.51100000000E-03 0.  1.
         12    1    3    3    0    0 -0.88895658046E+01  0.26613724228E+01  0.14241135168E+02  0.16997564950E+02  0.00000000000E+00 0. -1.
</event>
<event>
 7    1  0.1246400E-009  0.4778727E+02  0.7816164E-02  0.1312668E+00
        -11   -1    0    0    0    0  0.00000000000E+00  0.00000000000E+00  0.45593999997E+02  0.45594000000E+02  0.51100000000E-03 0.  1.
         11   -1    0    0    0    0 -0.00000000000E+00 -0.00000000000E+00 -0.45593999997E+02  0.45594000000E+02  0.51100000000E-03 0. -1.
    9900012    2    1    2    0    0  0.18363466018E+02 -0.35002959844E+02  0.17922028827E+02  0.47787271904E+02  0.20000003917E+02 0.  0.
         12    1    1    2    0    0 -0.18363466018E+02  0.35002959844E+02 -0.17922028827E+02  0.43400728096E+02  0.00000000000E+00 0. -1.
         11    1    3    3    0    0 -0.21994417673E+01 -0.35467463042E+01  0.24969085762E+01  0.48632814161E+01  0.51100000000E-03 0. -1.
        -11    1    3    3    0    0  0.10826750558E+02 -0.57052331690E+01  0.71661724853E+01  0.14181757349E+02  0.51100000000E-03 0.  1.
        -12    1    3    3    0    0  0.97361572278E+01 -0.25750980371E+02  0.82589477657E+01  0.28742233139E+02  0.00000000000E+00 0.  1.
</event>
<event>
 7    1  0.1246400E-009  0.4778727E+02  0.7816164E-02  0.1312668E+00
        -11   -1    0    0    0    0  0.00000000000E+00  0.00000000000E+00  0.45593999997E+02  0.45594000000E+02  0.51100000000E-03 0.  1.
         11   -1    0    0    0    0 -0.00000000000E+00 -0.00000000000E+00 -0.45593999997E+02  0.45594000000E+02  0.51100000000E-03 0. -1.
    9900012    2    1    2    0    0 -0.39385071215E+02 -0.16891883889E+02 -0.68632413329E+01  0.47787266624E+02  0.19999979847E+02 0.  0.
         12    1    1    2    0    0  0.39385071215E+02  0.16891883889E+02  0.68632413329E+01  0.43400733376E+02  0.00000000000E+00 0. -1.
         11    1    3    3    0    0 -0.34049196975E+02 -0.14520839052E+02 -0.10884641383E+02  0.38583390205E+02  0.51100000000E-03 0. -1.
        -11    1    3    3    0    0 -0.15279275952E+01 -0.38091915859E+01  0.27466002711E+01  0.49384528533E+01  0.51100000000E-03 0.  1.
         12    1    3    3    0    0 -0.38079466453E+01  0.14381467487E+01  0.12747997787E+01  0.42654235663E+01  0.00000000000E+00 0. -1.
</event>
<event>
 7    1  0.1246400E-009  0.4778727E+02  0.7816164E-02  0.1312668E+00
        -11   -1    0    0    0    0  0.00000000000E+00  0.00000000000E+00  0.45593999997E+02  0.45594000000E+02  0.51100000000E-03 0. -1.
         11   -1    0    0    0    0 -0.00000000000E+00 -0.00000000000E+00 -0.45593999997E+02  0.45594000000E+02  0.51100000000E-03 0.  1.
    9900012    2    1    2    0    0 -0.78602752324E+01  0.50872509838E+01 -0.42378758784E+02  0.47787271373E+02  0.20000001496E+02 0.  0.
         12    1    1    2    0    0  0.78602752324E+01 -0.50872509838E+01  0.42378758784E+02  0.43400728627E+02  0.00000000000E+00 0. -1.
         11    1    3    3    0    0 -0.29537627762E+01  0.11853671631E+02 -0.30376425428E+02  0.32740822649E+02  0.51100000000E-03 0. -1.
        -11    1    3    3    0    0 -0.29205115391E+01 -0.34412247915E+01 -0.92579930407E+01  0.10299604416E+02  0.51100000000E-03 0.  1.
         12    1    3    3    0    0 -0.19860009172E+01 -0.33251958552E+01 -0.27443403150E+01  0.47468443079E+01  0.00000000000E+00 0. -1.
</event>
<event>
 7    1  0.1246400E-009  0.4778729E+02  0.7816164E-02  0.1312668E+00
        -11   -1    0    0    0    0  0.00000000000E+00  0.00000000000E+00  0.45593999997E+02  0.45594000000E+02  0.51100000000E-03 0. -1.
         11   -1    0    0    0    0 -0.00000000000E+00 -0.00000000000E+00 -0.45593999997E+02  0.45594000000E+02  0.51100000000E-03 0.  1.
    9900012    2    1    2    0    0 -0.20253295807E+02 -0.93011368846E+00 -0.38373955930E+02  0.47787290371E+02  0.20000088119E+02 0.  0.
         12    1    1    2    0    0  0.20253295807E+02  0.93011368846E+00  0.38373955930E+02  0.43400709629E+02  0.00000000000E+00 0. -1.
         11    1    3    3    0    0 -0.61543664136E+01 -0.18593308578E+01 -0.30439557778E+01  0.71132977043E+01  0.51100000000E-03 0. -1.
        -11    1    3    3    0    0  0.10375197798E+01 -0.40740315141E+01 -0.69279182101E+01  0.81037171137E+01  0.51100000000E-03 0.  1.
        -12    1    3    3    0    0 -0.15136449173E+02  0.50032486834E+01 -0.28402081943E+02  0.32570275553E+02  0.00000000000E+00 0.  1.
</event>
<event>
 7    1  0.1246400E-009  0.4778727E+02  0.7816164E-02  0.1312668E+00
        -11   -1    0    0    0    0  0.00000000000E+00  0.00000000000E+00  0.45593999997E+02  0.45594000000E+02  0.51100000000E-03 0. -1.
         11   -1    0    0    0    0 -0.00000000000E+00 -0.00000000000E+00 -0.45593999997E+02  0.45594000000E+02  0.51100000000E-03 0.  1.
    9900012    2    1    2    0    0 -0.98408596991E+01  0.29373547419E+02 -0.30396968658E+02  0.47787268311E+02  0.19999987535E+02 0.  0.
         12    1    1    2    0    0  0.98408596991E+01 -0.29373547419E+02  0.30396968658E+02  0.43400731689E+02  0.00000000000E+00 0. -1.
         11    1    3    3    0    0 -0.46605953267E+01  0.54646603233E+01 -0.17585430231E+02  0.18995552583E+02  0.51100000000E-03 0. -1.
        -11    1    3    3    0    0 -0.61823308829E+01  0.20755400513E+02 -0.13347952841E+02  0.25439648404E+02  0.51100000000E-03 0.  1.
        -12    1    3    3    0    0  0.10020665106E+01  0.31534865826E+01  0.53641441474E+00  0.33520673237E+01  0.00000000000E+00 0.  1.
</event>
<event>
 7    1  0.1246400E-009  0.4778727E+02  0.7816164E-02  0.1312668E+00
        -11   -1    0    0    0    0  0.00000000000E+00  0.00000000000E+00  0.45593999997E+02  0.45594000000E+02  0.51100000000E-03 0. -1.
         11   -1    0    0    0    0 -0.00000000000E+00 -0.00000000000E+00 -0.45593999997E+02  0.45594000000E+02  0.51100000000E-03 0.  1.
    9900012    2    1    2    0    0  0.24028938083E+02 -0.13572462122E+02 -0.33496592984E+02  0.47787270340E+02  0.19999996788E+02 0.  0.
         12    1    1    2    0    0 -0.24028938083E+02  0.13572462122E+02  0.33496592984E+02  0.43400729660E+02  0.00000000000E+00 0. -1.
         11    1    3    3    0    0  0.15534079174E+02 -0.10854410999E+02 -0.15263559980E+02  0.24333148531E+02  0.51100000000E-03 0.  1.
        -11    1    3    3    0    0  0.20067503683E+01  0.41220884642E+00  0.14396960261E+01  0.25039345204E+01  0.51100000000E-03 0. -1.
        -12    1    3    3    0    0  0.64881085412E+01 -0.31302599689E+01 -0.19672729030E+02  0.20950187288E+02  0.00000000000E+00 0.  1.
</event>
<event>
 7    1  0.1246400E-009  0.4778727E+02  0.7816164E-02  0.1312668E+00
        -11   -1    0    0    0    0  0.00000000000E+00  0.00000000000E+00  0.45593999997E+02  0.45594000000E+02  0.51100000000E-03 0. -1.
         11   -1    0    0    0    0 -0.00000000000E+00 -0.00000000000E+00 -0.45593999997E+02  0.45594000000E+02  0.51100000000E-03 0.  1.
    9900012    2    1    2    0    0 -0.31398226829E+02  0.16724157446E+02 -0.24861159368E+02  0.47787270336E+02  0.19999996770E+02 0.  0.
         12    1    1    2    0    0  0.31398226829E+02 -0.16724157446E+02  0.24861159368E+02  0.43400729664E+02  0.00000000000E+00 0. -1.
         11    1    3    3    0    0 -0.21451053808E+02  0.91755423309E+01 -0.10215787474E+02  0.25469601499E+02  0.51100000000E-03 0. -1.
        -11    1    3    3    0    0 -0.10714531326E+02  0.91841339845E+01 -0.14866188756E+02  0.20497635644E+02  0.51100000000E-03 0.  1.
        -12    1    3    3    0    0  0.76735830433E+00 -0.16355188697E+01  0.22081686260E+00  0.18200331940E+01  0.00000000000E+00 0.  1.
</event>
<event>
 7    1  0.1246400E-009  0.4778727E+02  0.7816164E-02  0.1312668E+00
        -11   -1    0    0    0    0  0.00000000000E+00  0.00000000000E+00  0.45593999997E+02  0.45594000000E+02  0.51100000000E-03 0. -1.
         11   -1    0    0    0    0 -0.00000000000E+00 -0.00000000000E+00 -0.45593999997E+02  0.45594000000E+02  0.51100000000E-03 0.  1.
    9900012    2    1    2    0    0 -0.18361615435E+02  0.29161282497E+02 -0.26383593434E+02  0.47787270504E+02  0.19999997538E+02 0.  0.
         12    1    1    2    0    0  0.18361615435E+02 -0.29161282497E+02  0.26383593434E+02  0.43400729496E+02  0.00000000000E+00 0. -1.
         11    1    3    3    0    0 -0.11315673206E+02  0.15696486968E+02 -0.16523854548E+02  0.25445273287E+02  0.51100000000E-03 0. -1.
        -11    1    3    3    0    0 -0.10011838741E+02  0.13795183840E+02 -0.87316926979E+01  0.19151670157E+02  0.51100000000E-03 0.  1.
         12    1    3    3    0    0  0.29658965117E+01 -0.33038831131E+00 -0.11280461874E+01  0.31903270608E+01  0.00000000000E+00 0. -1.
</event>
<event>
 7    1  0.1246400E-009  0.4778727E+02  0.7816164E-02  0.1312668E+00
        -11   -1    0    0    0    0  0.00000000000E+00  0.00000000000E+00  0.45593999997E+02  0.45594000000E+02  0.51100000000E-03 0.  1.
         11   -1    0    0    0    0 -0.00000000000E+00 -0.00000000000E+00 -0.45593999997E+02  0.45594000000E+02  0.51100000000E-03 0. -1.
    9900012    2    1    2    0    0  0.13694433993E+02 -0.39485808237E+02  0.11702868915E+02  0.47787265958E+02  0.19999976808E+02 0.  0.
         12    1    1    2    0    0 -0.13694433993E+02  0.39485808237E+02 -0.11702868915E+02  0.43400734042E+02  0.00000000000E+00 0. -1.
         11    1    3    3    0    0  0.13061516070E+02 -0.18981775601E+02  0.42185202639E+01  0.23424494029E+02  0.51100000000E-03 0. -1.
        -11    1    3    3    0    0 -0.38139323595E+00 -0.14180153810E+02  0.10132245222E+02  0.17432286607E+02  0.51100000000E-03 0.  1.
         12    1    3    3    0    0  0.10143111593E+01 -0.63238788267E+01 -0.26478965712E+01  0.69304853217E+01  0.00000000000E+00 0. -1.
</event>
<event>
 7    1  0.1246400E-009  0.4778727E+02  0.7816164E-02  0.1312668E+00
        -11   -1    0    0    0    0  0.00000000000E+00  0.00000000000E+00  0.45593999997E+02  0.45594000000E+02  0.51100000000E-03 0.  1.
         11   -1    0    0    0    0 -0.00000000000E+00 -0.00000000000E+00 -0.45593999997E+02  0.45594000000E+02  0.51100000000E-03 0. -1.
    9900012    2    1    2    0    0 -0.39850867101E+02  0.83670390571E+01  0.15017465578E+02  0.47787271623E+02  0.20000002636E+02 0.  0.
         12    1    1    2    0    0  0.39850867101E+02 -0.83670390571E+01 -0.15017465578E+02  0.43400728377E+02  0.00000000000E+00 0. -1.
         11    1    3    3    0    0 -0.16027459728E+01  0.23234050378E+01  0.53426962094E+01  0.60424671013E+01  0.51100000000E-03 0. -1.
        -11    1    3    3    0    0 -0.11047229597E+02  0.74890004602E+01  0.25297565745E+01  0.13584037627E+02  0.51100000000E-03 0.  1.
         12    1    3    3    0    0 -0.27200891532E+02 -0.14453664409E+01  0.71450127940E+01  0.28160766894E+02  0.00000000000E+00 0. -1.
</event>
<event>
 7    1  0.1246400E-009  0.4778727E+02  0.7816164E-02  0.1312668E+00
        -11   -1    0    0    0    0  0.00000000000E+00  0.00000000000E+00  0.45593999997E+02  0.45594000000E+02  0.51100000000E-03 0.  1.
         11   -1    0    0    0    0 -0.00000000000E+00 -0.00000000000E+00 -0.45593999997E+02  0.45594000000E+02  0.51100000000E-03 0. -1.
    9900012    2    1    2    0    0 -0.38758655739E+02  0.17128215850E+02  0.93816041978E+01  0.47787266478E+02  0.19999979181E+02 0.  0.
         12    1    1    2    0    0  0.38758655739E+02 -0.17128215850E+02 -0.93816041978E+01  0.43400733522E+02  0.00000000000E+00 0. -1.
         11    1    3    3    0    0  0.15697811959E+01 -0.86106328715E+00 -0.17828395126E+00  0.17992855292E+01  0.51100000000E-03 0. -1.
        -11    1    3    3    0    0 -0.20884494044E+02  0.59151038811E+01  0.16370037782E+01  0.21767644040E+02  0.51100000000E-03 0.  1.
        -12    1    3    3    0    0 -0.19443942890E+02  0.12074175256E+02  0.79228843708E+01  0.24220336909E+02  0.00000000000E+00 0.  1.
</event>
<event>
 7    1  0.1246400E-009  0.4778727E+02  0.7816164E-02  0.1312668E+00
        -11   -1    0    0    0    0  0.00000000000E+00  0.00000000000E+00  0.45593999997E+02  0.45594000000E+02  0.51100000000E-03 0.  1.
         11   -1    0    0    0    0 -0.00000000000E+00 -0.00000000000E+00 -0.45593999997E+02  0.45594000000E+02  0.51100000000E-03 0. -1.
    9900012    2    1    2    0    0 -0.41118265278E+02 -0.95258165141E+01  0.10107929153E+02  0.47787272455E+02  0.20000006430E+02 0.  0.
         12    1    1    2    0    0  0.41118265278E+02  0.95258165141E+01 -0.10107929153E+02  0.43400727545E+02  0.00000000000E+00 0. -1.
         11    1    3    3    0    0  0.21783002169E+00 -0.11879697913E+01  0.32822771364E+01  0.34974370051E+01  0.51100000000E-03 0. -1.
        -11    1    3    3    0    0 -0.13805177772E+02 -0.30495217218E+01 -0.32379626143E+01  0.14504031101E+02  0.51100000000E-03 0.  1.
        -12    1    3    3    0    0 -0.27530917528E+02 -0.52883250010E+01  0.10063614631E+02  0.29785804348E+02  0.00000000000E+00 0.  1.
</event>
<event>
 7    1  0.1246400E-009  0.4778727E+02  0.7816164E-02  0.1312668E+00
        -11   -1    0    0    0    0  0.00000000000E+00  0.00000000000E+00  0.45593999997E+02  0.45594000000E+02  0.51100000000E-03 0.  1.
         11   -1    0    0    0    0 -0.00000000000E+00 -0.00000000000E+00 -0.45593999997E+02  0.45594000000E+02  0.51100000000E-03 0. -1.
    9900012    2    1    2    0    0  0.43120474646E+02  0.40859702754E+01 -0.27482783411E+01  0.47787268202E+02  0.19999987039E+02 0.  0.
         12    1    1    2    0    0 -0.43120474646E+02 -0.40859702754E+01  0.27482783411E+01  0.43400731798E+02  0.00000000000E+00 0. -1.
         11    1    3    3    0    0  0.23545977236E+01  0.26827945388E+01 -0.44192229103E+01  0.56807612491E+01  0.51100000000E-03 0. -1.
        -11    1    3    3    0    0  0.12453528144E+02 -0.41845049375E+01  0.17057235675E+01  0.13248016378E+02  0.51100000000E-03 0.  1.
        -12    1    3    3    0    0  0.28312348778E+02  0.55876806742E+01 -0.34778998331E-01  0.28858490575E+02  0.00000000000E+00 0.  1.
</event>
<event>
 7    1  0.1246400E-009  0.4778729E+02  0.7816164E-02  0.1312668E+00
        -11   -1    0    0    0    0  0.00000000000E+00  0.00000000000E+00  0.45593999997E+02  0.45594000000E+02  0.51100000000E-03 0.  1.
         11   -1    0    0    0    0 -0.00000000000E+00 -0.00000000000E+00 -0.45593999997E+02  0.45594000000E+02  0.51100000000E-03 0. -1.
    9900012    2    1    2    0    0 -0.24967342834E+02  0.14215182372E+02  0.32529707133E+02  0.47787291892E+02  0.20000095053E+02 0.  0.
         12    1    1    2    0    0  0.24967342834E+02 -0.14215182372E+02 -0.32529707133E+02  0.43400708108E+02  0.00000000000E+00 0. -1.
         11    1    3    3    0    0 -0.48130288697E+01  0.19739994906E+01 -0.28523094464E+00  0.52099210975E+01  0.51100000000E-03 0. -1.
        -11    1    3    3    0    0 -0.12368702069E+02  0.58571923808E+01  0.28515467006E+02  0.31629469681E+02  0.51100000000E-03 0.  1.
         12    1    3    3    0    0 -0.77856118950E+01  0.63839905010E+01  0.42994710717E+01  0.10947901114E+02  0.00000000000E+00 0. -1.
</event>
<event>
 7    1  0.1246400E-009  0.4778725E+02  0.7816164E-02  0.1312668E+00
        -11   -1    0    0    0    0  0.00000000000E+00  0.00000000000E+00  0.45593999997E+02  0.45594000000E+02  0.51100000000E-03 0. -1.
         11   -1    0    0    0    0 -0.00000000000E+00 -0.00000000000E+00 -0.45593999997E+02  0.45594000000E+02  0.51100000000E-03 0.  1.
    9900012    2    1    2    0    0 -0.43133748999E+02  0.48023977553E+01  0.20442278411E+00  0.47787249826E+02  0.19999903259E+02 0.  0.
         12    1    1    2    0    0  0.43133748999E+02 -0.48023977553E+01 -0.20442278411E+00  0.43400750174E+02  0.00000000000E+00 0. -1.
         11    1    3    3    0    0 -0.43567514003E+01  0.46032389559E+01  0.21617177326E+01  0.66965749055E+01  0.51100000000E-03 0. -1.
        -11    1    3    3    0    0 -0.38285025163E+02  0.97825482563E+00  0.67322997894E+00  0.38303438137E+02  0.51100000000E-03 0.  1.
         12    1    3    3    0    0 -0.49197243595E+00 -0.77909602622E+00 -0.26305249274E+01  0.27872367839E+01  0.00000000000E+00 0. -1.
</event>
<event>
 7    1  0.1246400E-009  0.4778727E+02  0.7816164E-02  0.1312668E+00
        -11   -1    0    0    0    0  0.00000000000E+00  0.00000000000E+00  0.45593999997E+02  0.45594000000E+02  0.51100000000E-03 0.  1.
         11   -1    0    0    0    0 -0.00000000000E+00 -0.00000000000E+00 -0.45593999997E+02  0.45594000000E+02  0.51100000000E-03 0. -1.
    9900012    2    1    2    0    0  0.33905234259E+02 -0.20984003972E+02  0.17138550838E+02  0.47787271231E+02  0.20000000851E+02 0.  0.
         12    1    1    2    0    0 -0.33905234259E+02  0.20984003972E+02 -0.17138550838E+02  0.43400728769E+02  0.00000000000E+00 0. -1.
         11    1    3    3    0    0  0.58255787335E+01 -0.84137248005E+01  0.27026784403E+01  0.10584545508E+02  0.51100000000E-03 0. -1.
        -11    1    3    3    0    0  0.19024056368E+02 -0.58154520017E+01  0.16343033664E+02  0.25745464694E+02  0.51100000000E-03 0.  1.
        -12    1    3    3    0    0  0.90555991575E+01 -0.67548271700E+01 -0.19071612668E+01  0.11457261029E+02  0.00000000000E+00 0.  1.
</event>
<event>
 7    1  0.1246400E-009  0.4778727E+02  0.7816164E-02  0.1312668E+00
        -11   -1    0    0    0    0  0.00000000000E+00  0.00000000000E+00  0.45593999997E+02  0.45594000000E+02  0.51100000000E-03 0. -1.
         11   -1    0    0    0    0 -0.00000000000E+00 -0.00000000000E+00 -0.45593999997E+02  0.45594000000E+02  0.51100000000E-03 0.  1.
    9900012    2    1    2    0    0  0.37794485154E+02  0.18834006437E+02 -0.10023986539E+02  0.47787271749E+02  0.20000003213E+02 0.  0.
         12    1    1    2    0    0 -0.37794485154E+02 -0.18834006437E+02  0.10023986539E+02  0.43400728251E+02  0.00000000000E+00 0. -1.
         11    1    3    3    0    0  0.20768189675E+02  0.12789139125E+02 -0.91118320166E+01  0.26036613929E+02  0.51100000000E-03 0. -1.
        -11    1    3    3    0    0  0.12912316008E+02  0.87949643305E+00 -0.51225253944E+01  0.13919112232E+02  0.51100000000E-03 0.  1.
         12    1    3    3    0    0  0.41139794716E+01  0.51653708790E+01  0.42103708719E+01  0.78315455875E+01  0.00000000000E+00 0. -1.
</event>
<event>
 7    1  0.1246400E-009  0.4778727E+02  0.7816164E-02  0.1312668E+00
        -11   -1    0    0    0    0  0.00000000000E+00  0.00000000000E+00  0.45593999997E+02  0.45594000000E+02  0.51100000000E-03 0.  1.
         11   -1    0    0    0    0 -0.00000000000E+00 -0.00000000000E+00 -0.45593999997E+02  0.45594000000E+02  0.51100000000E-03 0. -1.
    9900012    2    1    2    0    0  0.17951880066E+02 -0.38982202345E+02  0.64607334584E+01  0.47787272191E+02  0.20000005228E+02 0.  0.
         12    1    1    2    0    0 -0.17951880066E+02  0.38982202345E+02 -0.64607334584E+01  0.43400727809E+02  0.00000000000E+00 0. -1.
         11    1    3    3    0    0  0.97500618402E+00  0.81669242733E+00  0.13655469226E+01  0.18661034909E+01  0.51100000000E-03 0. -1.
        -11    1    3    3    0    0 -0.29506803341E+00 -0.69118056912E+00  0.30273000838E+01  0.31191892828E+01  0.51100000000E-03 0.  1.
        -12    1    3    3    0    0  0.17271941915E+02 -0.39107714203E+02  0.20678864521E+01  0.42801979418E+02  0.00000000000E+00 0.  1.
</event>
<event>
 7    1  0.1246400E-009  0.4778726E+02  0.7816164E-02  0.1312668E+00
        -11   -1    0    0    0    0  0.00000000000E+00  0.00000000000E+00  0.45593999997E+02  0.45594000000E+02  0.51100000000E-03 0. -1.
         11   -1    0    0    0    0 -0.00000000000E+00 -0.00000000000E+00 -0.45593999997E+02  0.45594000000E+02  0.51100000000E-03 0.  1.
    9900012    2    1    2    0    0 -0.36291256912E+02 -0.12039408164E+02 -0.20533423682E+02  0.47787260775E+02  0.19999953178E+02 0.  0.
         12    1    1    2    0    0  0.36291256912E+02  0.12039408164E+02  0.20533423682E+02  0.43400739225E+02  0.00000000000E+00 0. -1.
         11    1    3    3    0    0  0.65285492103E+00  0.38462027488E+00  0.20992228580E+01  0.22317905754E+01  0.51100000000E-03 0. -1.
        -11    1    3    3    0    0 -0.23701972808E+02 -0.60226177214E+01 -0.11058064847E+02  0.26839080417E+02  0.51100000000E-03 0.  1.
         12    1    3    3    0    0 -0.13242139024E+02 -0.64014107170E+01 -0.11574581694E+02  0.18716389783E+02  0.00000000000E+00 0. -1.
</event>
<event>
 7    1  0.1246400E-009  0.4778728E+02  0.7816164E-02  0.1312668E+00
        -11   -1    0    0    0    0  0.00000000000E+00  0.00000000000E+00  0.45593999997E+02  0.45594000000E+02  0.51100000000E-03 0.  1.
         11   -1    0    0    0    0 -0.00000000000E+00 -0.00000000000E+00 -0.45593999997E+02  0.45594000000E+02  0.51100000000E-03 0. -1.
    9900012    2    1    2    0    0  0.33665219447E+02 -0.16030175049E+02  0.22210565085E+02  0.47787277496E+02  0.20000029415E+02 0.  0.
         12    1    1    2    0    0 -0.33665219447E+02  0.16030175049E+02 -0.22210565085E+02  0.43400722504E+02  0.00000000000E+00 0. -1.
         11    1    3    3    0    0  0.70520470695E+01 -0.31861076190E+01 -0.17334201437E+01  0.79301573305E+01  0.51100000000E-03 0. -1.
        -11    1    3    3    0    0  0.13454340038E+02 -0.41942478716E+01  0.18368658812E+02  0.23152075671E+02  0.51100000000E-03 0.  1.
         12    1    3    3    0    0  0.13158832339E+02 -0.86498195580E+01  0.55753264170E+01  0.16705044495E+02  0.00000000000E+00 0. -1.
</event>
<event>
 7    1  0.1246400E-009  0.4778728E+02  0.7816164E-02  0.1312668E+00
        -11   -1    0    0    0    0  0.00000000000E+00  0.00000000000E+00  0.45593999997E+02  0.45594000000E+02  0.51100000000E-03 0.  1.
         11   -1    0    0    0    0 -0.00000000000E+00 -0.00000000000E+00 -0.45593999997E+02  0.45594000000E+02  0.51100000000E-03 0. -1.
    9900012    2    1    2    0    0 -0.41267292727E+02  0.69536522268E+01 -0.11501310384E+02  0.47787275711E+02  0.20000021275E+02 0.  0.
         12    1    1    2    0    0  0.41267292727E+02 -0.69536522268E+01  0.11501310384E+02  0.43400724289E+02  0.00000000000E+00 0. -1.
         11    1    3    3    0    0 -0.21484838529E+02  0.53120470339E+01 -0.12172262103E+01  0.22165237879E+02  0.51100000000E-03 0.  1.
        -11    1    3    3    0    0 -0.11032719396E+02 -0.16982835323E+01 -0.11676240115E+02  0.16153626457E+02  0.51100000000E-03 0. -1.
         12    1    3    3    0    0 -0.87497348022E+01  0.33398887252E+01  0.13921559415E+01  0.94684113752E+01  0.00000000000E+00 0. -1.
</event>
<event>
 7    1  0.1439910E-009  0.4778726E+02  0.7816164E-02  0.1312668E+00
        -11   -1    0    0    0    0  0.00000000000E+00  0.00000000000E+00  0.45593999997E+02  0.45594000000E+02  0.51100000000E-03 0.  1.
         11   -1    0    0    0    0 -0.00000000000E+00 -0.00000000000E+00 -0.45593999997E+02  0.45594000000E+02  0.51100000000E-03 0. -1.
    9900012    2    1    2    0    0 -0.40677338662E+02  0.47052130344E+01 -0.14381897955E+02  0.47787263841E+02  0.19999967158E+02 0.  0.
         12    1    1    2    0    0  0.40677338662E+02 -0.47052130344E+01  0.14381897955E+02  0.43400736159E+02  0.00000000000E+00 0. -1.
         11    1    3    3    0    0 -0.13706676165E+01  0.19231228118E+01  0.26692046941E+01  0.35639563724E+01  0.51100000000E-03 0. -1.
        -11    1    3    3    0    0 -0.96203084782E+01  0.10739045241E+01 -0.94582558502E+01  0.13533743389E+02  0.51100000000E-03 0.  1.
        -12    1    3    3    0    0 -0.29686362567E+02  0.17081856984E+01 -0.75928467993E+01  0.30689564079E+02  0.00000000000E+00 0.  1.
</event>
<event>
 7    1  0.1246400E-009  0.4778727E+02  0.7816164E-02  0.1312668E+00
        -11   -1    0    0    0    0  0.00000000000E+00  0.00000000000E+00  0.45593999997E+02  0.45594000000E+02  0.51100000000E-03 0.  1.
         11   -1    0    0    0    0 -0.00000000000E+00 -0.00000000000E+00 -0.45593999997E+02  0.45594000000E+02  0.51100000000E-03 0. -1.
    9900012    2    1    2    0    0  0.19304307845E+02 -0.27903726215E+01  0.38770873785E+02  0.47787272647E+02  0.20000007308E+02 0.  0.
         12    1    1    2    0    0 -0.19304307845E+02  0.27903726215E+01 -0.38770873785E+02  0.43400727353E+02  0.00000000000E+00 0. -1.
         11    1    3    3    0    0  0.45651479379E+01 -0.65384911537E+01  0.47546868811E+01  0.92843680377E+01  0.51100000000E-03 0.  1.
        -11    1    3    3    0    0  0.79234413598E+01  0.40992242945E+01  0.94049629417E+01  0.12962942991E+02  0.51100000000E-03 0. -1.
         12    1    3    3    0    0  0.68157185470E+01 -0.35110576228E+00  0.24611223962E+02  0.25539961618E+02  0.00000000000E+00 0. -1.
</event>
<event>
 7    1  0.1246400E-009  0.4778727E+02  0.7816164E-02  0.1312668E+00
        -11   -1    0    0    0    0  0.00000000000E+00  0.00000000000E+00  0.45593999997E+02  0.45594000000E+02  0.51100000000E-03 0. -1.
         11   -1    0    0    0    0 -0.00000000000E+00 -0.00000000000E+00 -0.45593999997E+02  0.45594000000E+02  0.51100000000E-03 0.  1.
    9900012    2    1    2    0    0 -0.41252596365E+02  0.52117329401E+01 -0.12437210320E+02  0.47787273420E+02  0.20000010831E+02 0.  0.
         12    1    1    2    0    0  0.41252596365E+02 -0.52117329401E+01  0.12437210320E+02  0.43400726580E+02  0.00000000000E+00 0. -1.
         11    1    3    3    0    0 -0.16538411348E+02  0.47146613391E+01 -0.26331020773E+01  0.17397709857E+02  0.51100000000E-03 0. -1.
        -11    1    3    3    0    0 -0.18253677734E+02 -0.63493804311E+01 -0.71822597198E+01  0.20617862101E+02  0.51100000000E-03 0.  1.
         12    1    3    3    0    0 -0.64605072837E+01  0.68464520321E+01 -0.26218485231E+01  0.97717014623E+01  0.00000000000E+00 0. -1.
</event>
<event>
 7    1  0.1246400E-009  0.4778727E+02  0.7816164E-02  0.1312668E+00
        -11   -1    0    0    0    0  0.00000000000E+00  0.00000000000E+00  0.45593999997E+02  0.45594000000E+02  0.51100000000E-03 0. -1.
         11   -1    0    0    0    0 -0.00000000000E+00 -0.00000000000E+00 -0.45593999997E+02  0.45594000000E+02  0.51100000000E-03 0.  1.
    9900012    2    1    2    0    0  0.34932952401E+02 -0.13907795108E+02 -0.21676831987E+02  0.47787274508E+02  0.20000015793E+02 0.  0.
         12    1    1    2    0    0 -0.34932952401E+02  0.13907795108E+02  0.21676831987E+02  0.43400725492E+02  0.00000000000E+00 0. -1.
         11    1    3    3    0    0  0.90293972457E+01 -0.21095419802E+01 -0.31637448423E+01  0.97974212768E+01  0.51100000000E-03 0. -1.
        -11    1    3    3    0    0  0.28366578043E+02 -0.10389026506E+02 -0.15927273849E+02  0.34150734606E+02  0.51100000000E-03 0.  1.
         12    1    3    3    0    0 -0.24630228881E+01 -0.14092266216E+01 -0.25858132955E+01  0.38391186251E+01  0.00000000000E+00 0. -1.
</event>
<event>
 7    1  0.1246400E-009  0.4778727E+02  0.7816164E-02  0.1312668E+00
        -11   -1    0    0    0    0  0.00000000000E+00  0.00000000000E+00  0.45593999997E+02  0.45594000000E+02  0.51100000000E-03 0.  1.
         11   -1    0    0    0    0 -0.00000000000E+00 -0.00000000000E+00 -0.45593999997E+02  0.45594000000E+02  0.51100000000E-03 0. -1.
    9900012    2    1    2    0    0  0.33892531403E+02 -0.56166084460E+01  0.26521183284E+02  0.47787272608E+02  0.20000007130E+02 0.  0.
         12    1    1    2    0    0 -0.33892531403E+02  0.56166084460E+01 -0.26521183284E+02  0.43400727392E+02  0.00000000000E+00 0. -1.
         11    1    3    3    0    0  0.29792988457E+01 -0.47248705396E+01  0.33544868103E+01  0.65156124232E+01  0.51100000000E-03 0. -1.
        -11    1    3    3    0    0  0.71954517187E+01 -0.33357126778E+01 -0.13593601417E+00  0.79322117575E+01  0.51100000000E-03 0.  1.
        -12    1    3    3    0    0  0.23717780839E+02  0.24439747713E+01  0.23302632488E+02  0.33339448428E+02  0.00000000000E+00 0.  1.
</event>
<event>
 7    1  0.1246400E-009  0.4778727E+02  0.7816164E-02  0.1312668E+00
        -11   -1    0    0    0    0  0.00000000000E+00  0.00000000000E+00  0.45593999997E+02  0.45594000000E+02  0.51100000000E-03 0.  1.
         11   -1    0    0    0    0 -0.00000000000E+00 -0.00000000000E+00 -0.45593999997E+02  0.45594000000E+02  0.51100000000E-03 0. -1.
    9900012    2    1    2    0    0 -0.25601434166E+02 -0.35007671740E+02 -0.16287785678E+01  0.47787269227E+02  0.19999991714E+02 0.  0.
         12    1    1    2    0    0  0.25601434166E+02  0.35007671740E+02  0.16287785678E+01  0.43400730773E+02  0.00000000000E+00 0. -1.
         11    1    3    3    0    0 -0.85184526320E+01 -0.62161560856E+01 -0.18463549414E+01  0.10705776878E+02  0.51100000000E-03 0. -1.
        -11    1    3    3    0    0 -0.86783923661E+01 -0.24474107824E+02  0.50732834436E+01  0.26458167983E+02  0.51100000000E-03 0.  1.
        -12    1    3    3    0    0 -0.84045891677E+01 -0.43174078301E+01 -0.48557070700E+01  0.10623324367E+02  0.00000000000E+00 0.  1.
</event>
<event>
 7    1  0.1246400E-009  0.4778727E+02  0.7816164E-02  0.1312668E+00
        -11   -1    0    0    0    0  0.00000000000E+00  0.00000000000E+00  0.45593999997E+02  0.45594000000E+02  0.51100000000E-03 0.  1.
         11   -1    0    0    0    0 -0.00000000000E+00 -0.00000000000E+00 -0.45593999997E+02  0.45594000000E+02  0.51100000000E-03 0. -1.
    9900012    2    1    2    0    0  0.51785680352E+01  0.66713928433E+01  0.42571097057E+02  0.47787270121E+02  0.19999995789E+02 0.  0.
         12    1    1    2    0    0 -0.51785680352E+01 -0.66713928433E+01 -0.42571097057E+02  0.43400729879E+02  0.00000000000E+00 0. -1.
         11    1    3    3    0    0  0.11575692192E+01  0.51280452437E+00  0.16961010955E+02  0.17008198842E+02  0.51100000000E-03 0. -1.
        -11    1    3    3    0    0  0.10553739609E+01 -0.22283557851E+01 -0.10455809614E+01  0.26781754069E+01  0.51100000000E-03 0.  1.
         12    1    3    3    0    0  0.29656248551E+01  0.83869441040E+01  0.26655667064E+02  0.28100895872E+02  0.00000000000E+00 0. -1.
</event>
<event>
 7    1  0.1246400E-009  0.4778727E+02  0.7816164E-02  0.1312668E+00
        -11   -1    0    0    0    0  0.00000000000E+00  0.00000000000E+00  0.45593999997E+02  0.45594000000E+02  0.51100000000E-03 0.  1.
         11   -1    0    0    0    0 -0.00000000000E+00 -0.00000000000E+00 -0.45593999997E+02  0.45594000000E+02  0.51100000000E-03 0. -1.
    9900012    2    1    2    0    0 -0.15819265896E+02 -0.15862078881E+02  0.37172144254E+02  0.47787273873E+02  0.20000012895E+02 0.  0.
         12    1    1    2    0    0  0.15819265896E+02  0.15862078881E+02 -0.37172144254E+02  0.43400726127E+02  0.00000000000E+00 0. -1.
         11    1    3    3    0    0 -0.82735873306E+01 -0.18920013250E+01  0.10196047518E+02  0.13266171323E+02  0.51100000000E-03 0. -1.
        -11    1    3    3    0    0  0.24560802331E+01 -0.18669296760E+01  0.13443784619E+02  0.13793226659E+02  0.51100000000E-03 0.  1.
         12    1    3    3    0    0 -0.10001758799E+02 -0.12103147880E+02  0.13532312118E+02  0.20727875890E+02  0.00000000000E+00 0. -1.
</event>
<event>
 7    1  0.1715623E-009  0.4778727E+02  0.7816164E-02  0.1312668E+00
        -11   -1    0    0    0    0  0.00000000000E+00  0.00000000000E+00  0.45593999997E+02  0.45594000000E+02  0.51100000000E-03 0. -1.
         11   -1    0    0    0    0 -0.00000000000E+00 -0.00000000000E+00 -0.45593999997E+02  0.45594000000E+02  0.51100000000E-03 0.  1.
    9900012    2    1    2    0    0 -0.12769202709E+02 -0.25375772650E+02 -0.32812206578E+02  0.47787271021E+02  0.19999999893E+02 0.  0.
         12    1    1    2    0    0  0.12769202709E+02  0.25375772650E+02  0.32812206578E+02  0.43400728979E+02  0.00000000000E+00 0. -1.
         11    1    3    3    0    0 -0.37817674999E+01 -0.13198220139E+01 -0.17352123396E+01  0.43651641088E+01  0.51100000000E-03 0. -1.
        -11    1    3    3    0    0 -0.22240958063E+00 -0.20830199765E+02 -0.19364898096E+02  0.28441975437E+02  0.51100000000E-03 0.  1.
        -12    1    3    3    0    0 -0.87650256282E+01 -0.32257508710E+01 -0.11712096143E+02  0.14980131475E+02  0.00000000000E+00 0.  1.
</event>
<event>
 7    1  0.1246400E-009  0.4778727E+02  0.7816164E-02  0.1312668E+00
        -11   -1    0    0    0    0  0.00000000000E+00  0.00000000000E+00  0.45593999997E+02  0.45594000000E+02  0.51100000000E-03 0.  1.
         11   -1    0    0    0    0 -0.00000000000E+00 -0.00000000000E+00 -0.45593999997E+02  0.45594000000E+02  0.51100000000E-03 0. -1.
    9900012    2    1    2    0    0  0.13926139348E+02  0.37491072743E+02  0.16855419498E+02  0.47787273520E+02  0.20000011286E+02 0.  0.
         12    1    1    2    0    0 -0.13926139348E+02 -0.37491072743E+02 -0.16855419498E+02  0.43400726480E+02  0.00000000000E+00 0. -1.
         11    1    3    3    0    0  0.74186123227E+01  0.40095236980E+01  0.35122767712E+01  0.91349973978E+01  0.51100000000E-03 0. -1.
        -11    1    3    3    0    0  0.50263626366E+01  0.28437461568E+02  0.15723600083E+02  0.32881379862E+02  0.51100000000E-03 0.  1.
         12    1    3    3    0    0  0.14811643887E+01  0.50440874766E+01 -0.23804573560E+01  0.57708962599E+01  0.00000000000E+00 0. -1.
</event>
<event>
 7    1  0.1246400E-009  0.4778730E+02  0.7816164E-02  0.1312668E+00
        -11   -1    0    0    0    0  0.00000000000E+00  0.00000000000E+00  0.45593999997E+02  0.45594000000E+02  0.51100000000E-03 0.  1.
         11   -1    0    0    0    0 -0.00000000000E+00 -0.00000000000E+00 -0.45593999997E+02  0.45594000000E+02  0.51100000000E-03 0. -1.
    9900012    2    1    2    0    0  0.18854465728E+02 -0.38844896198E+02  0.43821980161E+01  0.47787303025E+02  0.20000145810E+02 0.  0.
         12    1    1    2    0    0 -0.18854465728E+02  0.38844896198E+02 -0.43821980161E+01  0.43400696975E+02  0.00000000000E+00 0. -1.
         11    1    3    3    0    0  0.36849101347E+01 -0.35961369998E+01  0.32794146287E+01  0.61045331181E+01  0.51100000000E-03 0. -1.
        -11    1    3    3    0    0  0.11360558480E+01 -0.17499691732E+01  0.47426703994E+01  0.51813065702E+01  0.51100000000E-03 0.  1.
        -12    1    3    3    0    0  0.14033499745E+02 -0.33498790025E+02 -0.36398870120E+01  0.36501463336E+02  0.00000000000E+00 0.  1.
</event>
<event>
 7    1  0.1246400E-009  0.4778727E+02  0.7816164E-02  0.1312668E+00
        -11   -1    0    0    0    0  0.00000000000E+00  0.00000000000E+00  0.45593999997E+02  0.45594000000E+02  0.51100000000E-03 0. -1.
         11   -1    0    0    0    0 -0.00000000000E+00 -0.00000000000E+00 -0.45593999997E+02  0.45594000000E+02  0.51100000000E-03 0.  1.
    9900012    2    1    2    0    0  0.40170350318E+02 -0.16429281593E+02 -0.21315973606E+00  0.47787265267E+02  0.19999973657E+02 0.  0.
         12    1    1    2    0    0 -0.40170350318E+02  0.16429281593E+02  0.21315973606E+00  0.43400734733E+02  0.00000000000E+00 0. -1.
         11    1    3    3    0    0  0.24012049204E+01  0.16395839725E+01  0.19778606463E+00  0.29142992744E+01  0.51100000000E-03 0. -1.
        -11    1    3    3    0    0 -0.79141536598E-01  0.13648968291E+01  0.18108106832E+01  0.22689738492E+01  0.51100000000E-03 0.  1.
        -12    1    3    3    0    0  0.37848286934E+02 -0.19433762394E+02 -0.22217564838E+01  0.42603992143E+02  0.00000000000E+00 0.  1.
</event>
<event>
 7    1  0.1246400E-009  0.4778727E+02  0.7816164E-02  0.1312668E+00
        -11   -1    0    0    0    0  0.00000000000E+00  0.00000000000E+00  0.45593999997E+02  0.45594000000E+02  0.51100000000E-03 0.  1.
         11   -1    0    0    0    0 -0.00000000000E+00 -0.00000000000E+00 -0.45593999997E+02  0.45594000000E+02  0.51100000000E-03 0. -1.
    9900012    2    1    2    0    0  0.45169613010E+01 -0.31767826094E+02  0.29223720568E+02  0.47787267771E+02  0.19999985077E+02 0.  0.
         12    1    1    2    0    0 -0.45169613010E+01  0.31767826094E+02 -0.29223720568E+02  0.43400732229E+02  0.00000000000E+00 0. -1.
         11    1    3    3    0    0 -0.47573868180E+01 -0.55305574788E+01  0.73639774007E+01  0.10365710722E+02  0.51100000000E-03 0. -1.
        -11    1    3    3    0    0  0.60058715224E+01 -0.28226686848E+01  0.36020855066E+01  0.75506934454E+01  0.51100000000E-03 0.  1.
         12    1    3    3    0    0  0.32684765966E+01 -0.23414599931E+02  0.18257657661E+02  0.29870863604E+02  0.00000000000E+00 0. -1.
</event>
<event>
 7    1  0.1246400E-009  0.4778727E+02  0.7816164E-02  0.1312668E+00
        -11   -1    0    0    0    0  0.00000000000E+00  0.00000000000E+00  0.45593999997E+02  0.45594000000E+02  0.51100000000E-03 0.  1.
         11   -1    0    0    0    0 -0.00000000000E+00 -0.00000000000E+00 -0.45593999997E+02  0.45594000000E+02  0.51100000000E-03 0. -1.
    9900012    2    1    2    0    0 -0.44360123378E+01  0.36299526371E+02  0.23372846034E+02  0.47787265537E+02  0.19999974889E+02 0.  0.
         12    1    1    2    0    0  0.44360123378E+01 -0.36299526371E+02 -0.23372846034E+02  0.43400734463E+02  0.00000000000E+00 0. -1.
         11    1    3    3    0    0  0.19014519871E+01  0.10342478321E+02  0.98571300076E+00  0.10561913077E+02  0.51100000000E-03 0. -1.
        -11    1    3    3    0    0 -0.42446710050E+01  0.26949582424E+02  0.21536042205E+02  0.34757709057E+02  0.51100000000E-03 0.  1.
         12    1    3    3    0    0 -0.20927933200E+01 -0.99253437414E+00  0.85109082879E+00  0.24676434027E+01  0.00000000000E+00 0. -1.
</event>
<event>
 7    1  0.1246400E-009  0.4778727E+02  0.7816164E-02  0.1312668E+00
        -11   -1    0    0    0    0  0.00000000000E+00  0.00000000000E+00  0.45593999997E+02  0.45594000000E+02  0.51100000000E-03 0.  1.
         11   -1    0    0    0    0 -0.00000000000E+00 -0.00000000000E+00 -0.45593999997E+02  0.45594000000E+02  0.51100000000E-03 0. -1.
    9900012    2    1    2    0    0 -0.21393817442E+02  0.19672317114E+02  0.32232403042E+02  0.47787270844E+02  0.19999999088E+02 0.  0.
         12    1    1    2    0    0  0.21393817442E+02 -0.19672317114E+02 -0.32232403042E+02  0.43400729156E+02  0.00000000000E+00 0. -1.
         11    1    3    3    0    0 -0.28223745424E+00  0.70613238329E+01  0.15768619890E+02  0.17279795304E+02  0.51100000000E-03 0. -1.
        -11    1    3    3    0    0 -0.11800089499E+02  0.76730003956E+01  0.13630335986E+02  0.19593445501E+02  0.51100000000E-03 0.  1.
        -12    1    3    3    0    0 -0.93114904887E+01  0.49379928851E+01  0.28334471669E+01  0.10914030039E+02  0.00000000000E+00 0.  1.
</event>
<event>
 7    1  0.1246400E-009  0.4778726E+02  0.7816164E-02  0.1312668E+00
        -11   -1    0    0    0    0  0.00000000000E+00  0.00000000000E+00  0.45593999997E+02  0.45594000000E+02  0.51100000000E-03 0.  1.
         11   -1    0    0    0    0 -0.00000000000E+00 -0.00000000000E+00 -0.45593999997E+02  0.45594000000E+02  0.51100000000E-03 0. -1.
    9900012    2    1    2    0    0  0.63669586805E+01 -0.30069045098E+02  0.30642109939E+02  0.47787256487E+02  0.19999933628E+02 0.  0.
         12    1    1    2    0    0 -0.63669586805E+01  0.30069045098E+02 -0.30642109939E+02  0.43400743513E+02  0.00000000000E+00 0. -1.
         11    1    3    3    0    0 -0.40761047522E+01 -0.48554120246E+01  0.42949247649E+00  0.63540632612E+01  0.51100000000E-03 0. -1.
        -11    1    3    3    0    0  0.73524766120E+01 -0.87377036136E+01  0.10049106848E+02  0.15211539221E+02  0.51100000000E-03 0.  1.
        -12    1    3    3    0    0  0.30905868206E+01 -0.16475929460E+02  0.20163510615E+02  0.26221654005E+02  0.00000000000E+00 0.  1.
</event>
<event>
 7    1  0.1246400E-009  0.4778727E+02  0.7816164E-02  0.1312668E+00
        -11   -1    0    0    0    0  0.00000000000E+00  0.00000000000E+00  0.45593999997E+02  0.45594000000E+02  0.51100000000E-03 0.  1.
         11   -1    0    0    0    0 -0.00000000000E+00 -0.00000000000E+00 -0.45593999997E+02  0.45594000000E+02  0.51100000000E-03 0. -1.
    9900012    2    1    2    0    0  0.41033416189E+02 -0.12351365541E+02  0.68793614090E+01  0.47787273182E+02  0.20000009748E+02 0.  0.
         12    1    1    2    0    0 -0.41033416189E+02  0.12351365541E+02 -0.68793614090E+01  0.43400726818E+02  0.00000000000E+00 0. -1.
         11    1    3    3    0    0  0.49533748155E+01 -0.51723850245E+01 -0.38371813594E+01  0.81248661498E+01  0.51100000000E-03 0. -1.
        -11    1    3    3    0    0  0.25590970462E+01 -0.29225635502E+01  0.32319588746E+01  0.50533072166E+01  0.51100000000E-03 0.  1.
        -12    1    3    3    0    0  0.33520944328E+02 -0.42564169665E+01  0.74845838938E+01  0.34609099816E+02  0.00000000000E+00 0.  1.
</event>
<event>
 7    1 -0.1246400E-009  0.4778727E+02  0.7816164E-02  0.1312668E+00
        -11   -1    0    0    0    0  0.00000000000E+00  0.00000000000E+00  0.45593999997E+02  0.45594000000E+02  0.51100000000E-03 0. -1.
         11   -1    0    0    0    0 -0.00000000000E+00 -0.00000000000E+00 -0.45593999997E+02  0.45594000000E+02  0.51100000000E-03 0.  1.
    9900012    2    1    2    0    0 -0.36414385671E+02 -0.14240533790E+02  0.18836740842E+02  0.47787273140E+02  0.20000009556E+02 0.  0.
         12    1    1    2    0    0  0.36414385671E+02  0.14240533790E+02 -0.18836740842E+02  0.43400726860E+02  0.00000000000E+00 0. -1.
         11    1    3    3    0    0 -0.20920184094E+02 -0.14164062688E+02  0.15428922888E+02  0.29602811287E+02  0.51100000000E-03 0. -1.
        -11    1    3    3    0    0 -0.15166960211E+02 -0.16532468419E+01  0.48639557774E+01  0.16013368579E+02  0.51100000000E-03 0.  1.
         12    1    3    3    0    0 -0.32724136540E+00  0.15767757396E+01 -0.14561378239E+01  0.21710932745E+01  0.00000000000E+00 0. -1.
</event>
<event>
 7    1  0.1246400E-009  0.4778727E+02  0.7816164E-02  0.1312668E+00
        -11   -1    0    0    0    0  0.00000000000E+00  0.00000000000E+00  0.45593999997E+02  0.45594000000E+02  0.51100000000E-03 0. -1.
         11   -1    0    0    0    0 -0.00000000000E+00 -0.00000000000E+00 -0.45593999997E+02  0.45594000000E+02  0.51100000000E-03 0.  1.
    9900012    2    1    2    0    0  0.20125977025E+00  0.20113925826E+02 -0.38457930705E+02  0.47787274756E+02  0.20000016921E+02 0.  0.
         12    1    1    2    0    0 -0.20125977025E+00 -0.20113925826E+02  0.38457930705E+02  0.43400725244E+02  0.00000000000E+00 0. -1.
         11    1    3    3    0    0 -0.96806196921E-01  0.32981907226E+01  0.81560183355E+00  0.33989174886E+01  0.51100000000E-03 0. -1.
        -11    1    3    3    0    0  0.62132424890E+00  0.16986960439E+02 -0.25717960788E+02  0.30827850657E+02  0.51100000000E-03 0.  1.
         12    1    3    3    0    0 -0.32325828172E+00 -0.17122533566E+00 -0.13555571751E+02  0.13560506610E+02  0.00000000000E+00 0. -1.
</event>
<event>
 7    1  0.1246400E-009  0.4778727E+02  0.7816164E-02  0.1312668E+00
        -11   -1    0    0    0    0  0.00000000000E+00  0.00000000000E+00  0.45593999997E+02  0.45594000000E+02  0.51100000000E-03 0. -1.
         11   -1    0    0    0    0 -0.00000000000E+00 -0.00000000000E+00 -0.45593999997E+02  0.45594000000E+02  0.51100000000E-03 0.  1.
    9900012    2    1    2    0    0  0.41274861613E+02 -0.13213382750E+02  0.23271349437E+01  0.47787271412E+02  0.20000001677E+02 0.  0.
         12    1    1    2    0    0 -0.41274861613E+02  0.13213382750E+02 -0.23271349437E+01  0.43400728588E+02  0.00000000000E+00 0. -1.
         11    1    3    3    0    0  0.63616077834E+01  0.27342124565E+01  0.26750266494E+01  0.74230545723E+01  0.51100000000E-03 0. -1.
        -11    1    3    3    0    0  0.24250869094E+02 -0.10713010521E+02  0.55747016860E+01  0.27091521651E+02  0.51100000000E-03 0.  1.
         12    1    3    3    0    0  0.10662384736E+02 -0.52345846860E+01 -0.59225933917E+01  0.13272695189E+02  0.00000000000E+00 0. -1.
</event>
<event>
 7    1  0.1246400E-009  0.4778727E+02  0.7816164E-02  0.1312668E+00
        -11   -1    0    0    0    0  0.00000000000E+00  0.00000000000E+00  0.45593999997E+02  0.45594000000E+02  0.51100000000E-03 0. -1.
         11   -1    0    0    0    0 -0.00000000000E+00 -0.00000000000E+00 -0.45593999997E+02  0.45594000000E+02  0.51100000000E-03 0.  1.
    9900012    2    1    2    0    0  0.43926705589E+01  0.43120926033E+02 -0.22165670593E+01  0.47787274359E+02  0.20000015115E+02 0.  0.
         12    1    1    2    0    0 -0.43926705589E+01 -0.43120926033E+02  0.22165670593E+01  0.43400725641E+02  0.00000000000E+00 0. -1.
         11    1    3    3    0    0 -0.55760986170E+01  0.10795621619E+02 -0.37183975739E+01  0.12706880132E+02  0.51100000000E-03 0. -1.
        -11    1    3    3    0    0 -0.12764601379E+01  0.27404167763E+01  0.16208097195E+01  0.34301980992E+01  0.51100000000E-03 0.  1.
        -12    1    3    3    0    0  0.11245229314E+02  0.29584887638E+02 -0.11897920494E+00  0.31650196128E+02  0.00000000000E+00 0.  1.
</event>
<event>
 7    1  0.1246400E-009  0.4778727E+02  0.7816164E-02  0.1312668E+00
        -11   -1    0    0    0    0  0.00000000000E+00  0.00000000000E+00  0.45593999997E+02  0.45594000000E+02  0.51100000000E-03 0.  1.
         11   -1    0    0    0    0 -0.00000000000E+00 -0.00000000000E+00 -0.45593999997E+02  0.45594000000E+02  0.51100000000E-03 0. -1.
    9900012    2    1    2    0    0  0.16210463206E+02 -0.34485760013E+02  0.20774419972E+02  0.47787270903E+02  0.19999999354E+02 0.  0.
         12    1    1    2    0    0 -0.16210463206E+02  0.34485760013E+02 -0.20774419972E+02  0.43400729097E+02  0.00000000000E+00 0. -1.
         11    1    3    3    0    0  0.60624644174E+01 -0.93416954385E+01 -0.17049515224E+01  0.11266215355E+02  0.51100000000E-03 0. -1.
        -11    1    3    3    0    0 -0.80381717800E+00 -0.10259162415E+02  0.75236542342E+01  0.12747623654E+02  0.51100000000E-03 0.  1.
        -12    1    3    3    0    0  0.10951815967E+02 -0.14884902159E+02  0.14955717260E+02  0.23773431894E+02  0.00000000000E+00 0.  1.
</event>
<event>
 7    1  0.1246400E-009  0.4778727E+02  0.7816164E-02  0.1312668E+00
        -11   -1    0    0    0    0  0.00000000000E+00  0.00000000000E+00  0.45593999997E+02  0.45594000000E+02  0.51100000000E-03 0.  1.
         11   -1    0    0    0    0 -0.00000000000E+00 -0.00000000000E+00 -0.45593999997E+02  0.45594000000E+02  0.51100000000E-03 0. -1.
    9900012    2    1    2    0    0  0.19303236544E+02  0.79302678739E+01  0.38054158221E+02  0.47787273652E+02  0.20000011888E+02 0.  0.
         12    1    1    2    0    0 -0.19303236544E+02 -0.79302678739E+01 -0.38054158221E+02  0.43400726348E+02  0.00000000000E+00 0. -1.
         11    1    3    3    0    0  0.17294586040E+01 -0.36865586706E+01  0.47643751179E+00  0.40998457116E+01  0.51100000000E-03 0. -1.
        -11    1    3    3    0    0  0.97373034465E+01  0.92265012126E+01  0.17870214268E+02  0.22344752433E+02  0.51100000000E-03 0.  1.
        -12    1    3    3    0    0  0.78364744935E+01  0.23903253319E+01  0.19707506442E+02  0.21342675508E+02  0.00000000000E+00 0.  1.
</event>
<event>
 7    1  0.1246400E-009  0.4778726E+02  0.7816164E-02  0.1312668E+00
        -11   -1    0    0    0    0  0.00000000000E+00  0.00000000000E+00  0.45593999997E+02  0.45594000000E+02  0.51100000000E-03 0.  1.
         11   -1    0    0    0    0 -0.00000000000E+00 -0.00000000000E+00 -0.45593999997E+02  0.45594000000E+02  0.51100000000E-03 0. -1.
    9900012    2    1    2    0    0 -0.24233032634E+02  0.73609802355E+01  0.35244868645E+02  0.47787255001E+02  0.19999926852E+02 0.  0.
         12    1    1    2    0    0  0.24233032634E+02 -0.73609802355E+01 -0.35244868645E+02  0.43400744999E+02  0.00000000000E+00 0. -1.
         11    1    3    3    0    0  0.13344493784E+01  0.25259226284E+01  0.13834690787E+01  0.31741183376E+01  0.51100000000E-03 0. -1.
        -11    1    3    3    0    0 -0.14663358828E+02  0.62443372630E+01  0.27835650649E+02  0.32075368857E+02  0.51100000000E-03 0.  1.
         12    1    3    3    0    0 -0.10904123184E+02 -0.14092796559E+01  0.60257489171E+01  0.12537767807E+02  0.00000000000E+00 0. -1.
</event>
<event>
 7    1  0.1246400E-009  0.4778727E+02  0.7816164E-02  0.1312668E+00
        -11   -1    0    0    0    0  0.00000000000E+00  0.00000000000E+00  0.45593999997E+02  0.45594000000E+02  0.51100000000E-03 0.  1.
         11   -1    0    0    0    0 -0.00000000000E+00 -0.00000000000E+00 -0.45593999997E+02  0.45594000000E+02  0.51100000000E-03 0. -1.
    9900012    2    1    2    0    0  0.22546535349E+02  0.36297424283E+02 -0.76009288717E+01  0.47787269758E+02  0.19999994135E+02 0.  0.
         12    1    1    2    0    0 -0.22546535349E+02 -0.36297424283E+02  0.76009288717E+01  0.43400730242E+02  0.00000000000E+00 0. -1.
         11    1    3    3    0    0  0.12718596259E+02  0.12075186236E+02 -0.72593497307E+01  0.18980805363E+02  0.51100000000E-03 0. -1.
        -11    1    3    3    0    0  0.60428803021E+01  0.42509016814E+01  0.34084514884E+01  0.81365907640E+01  0.51100000000E-03 0.  1.
        -12    1    3    3    0    0  0.37850587886E+01  0.19971336365E+02 -0.37500306294E+01  0.20669873632E+02  0.00000000000E+00 0.  1.
</event>
<event>
 7    1  0.1438141E-009  0.4778724E+02  0.7816164E-02  0.1312668E+00
        -11   -1    0    0    0    0  0.00000000000E+00  0.00000000000E+00  0.45593999997E+02  0.45594000000E+02  0.51100000000E-03 0.  1.
         11   -1    0    0    0    0 -0.00000000000E+00 -0.00000000000E+00 -0.45593999997E+02  0.45594000000E+02  0.51100000000E-03 0. -1.
    9900012    2    1    2    0    0  0.29908157492E+02 -0.22652774930E+02  0.21816959652E+02  0.47787241654E+02  0.19999865995E+02 0.  0.
         12    1    1    2    0    0 -0.29908157492E+02  0.22652774930E+02 -0.21816959652E+02  0.43400758346E+02  0.00000000000E+00 0. -1.
         11    1    3    3    0    0 -0.16458947755E-01 -0.20980718066E+01 -0.53805496971E+00  0.21660285350E+01  0.51100000000E-03 0. -1.
        -11    1    3    3    0    0  0.27669869549E+02 -0.11128152241E+02  0.19012834342E+02  0.35368705420E+02  0.51100000000E-03 0.  1.
        -12    1    3    3    0    0  0.22547468908E+01 -0.94265508825E+01  0.33421802796E+01  0.10252507698E+02  0.00000000000E+00 0.  1.
</event>
<event>
 7    1  0.1246400E-009  0.4778727E+02  0.7816164E-02  0.1312668E+00
        -11   -1    0    0    0    0  0.00000000000E+00  0.00000000000E+00  0.45593999997E+02  0.45594000000E+02  0.51100000000E-03 0.  1.
         11   -1    0    0    0    0 -0.00000000000E+00 -0.00000000000E+00 -0.45593999997E+02  0.45594000000E+02  0.51100000000E-03 0. -1.
    9900012    2    1    2    0    0  0.33770699650E+02  0.10763550549E+02  0.25046141047E+02  0.47787270091E+02  0.19999995655E+02 0.  0.
         12    1    1    2    0    0 -0.33770699650E+02 -0.10763550549E+02 -0.25046141047E+02  0.43400729909E+02  0.00000000000E+00 0. -1.
         11    1    3    3    0    0  0.11597229033E+02  0.42344573087E+01  0.17315638781E+02  0.21266351276E+02  0.51100000000E-03 0. -1.
        -11    1    3    3    0    0  0.14605796830E+02  0.53430151469E+01  0.10050453135E+02  0.18517254667E+02  0.51100000000E-03 0.  1.
         12    1    3    3    0    0  0.75676737858E+01  0.11860780937E+01 -0.23199508686E+01  0.80036641487E+01  0.00000000000E+00 0. -1.
</event>
<event>
 7    1  0.1246400E-009  0.4778727E+02  0.7816164E-02  0.1312668E+00
        -11   -1    0    0    0    0  0.00000000000E+00  0.00000000000E+00  0.45593999997E+02  0.45594000000E+02  0.51100000000E-03 0. -1.
         11   -1    0    0    0    0 -0.00000000000E+00 -0.00000000000E+00 -0.45593999997E+02  0.45594000000E+02  0.51100000000E-03 0.  1.
    9900012    2    1    2    0    0 -0.46354978123E+01  0.40506276470E+02  0.14878750095E+02  0.47787268695E+02  0.19999989286E+02 0.  0.
         12    1    1    2    0    0  0.46354978123E+01 -0.40506276470E+02 -0.14878750095E+02  0.43400731305E+02  0.00000000000E+00 0. -1.
         11    1    3    3    0    0  0.16620174627E+01  0.46236264098E+01 -0.26662840040E+01  0.55901067857E+01  0.51100000000E-03 0. -1.
        -11    1    3    3    0    0  0.32855837881E+01  0.12150636464E+02  0.38115625401E+01  0.13151465187E+02  0.51100000000E-03 0.  1.
        -12    1    3    3    0    0 -0.95830990631E+01  0.23732013597E+02  0.13733471559E+02  0.29045696722E+02  0.00000000000E+00 0.  1.
</event>
<event>
 7    1  0.1246400E-009  0.4778727E+02  0.7816164E-02  0.1312668E+00
        -11   -1    0    0    0    0  0.00000000000E+00  0.00000000000E+00  0.45593999997E+02  0.45594000000E+02  0.51100000000E-03 0. -1.
         11   -1    0    0    0    0 -0.00000000000E+00 -0.00000000000E+00 -0.45593999997E+02  0.45594000000E+02  0.51100000000E-03 0.  1.
    9900012    2    1    2    0    0 -0.35386883323E+02  0.52683572834E+00 -0.25121996082E+02  0.47787265510E+02  0.19999974764E+02 0.  0.
         12    1    1    2    0    0  0.35386883323E+02 -0.52683572834E+00  0.25121996082E+02  0.43400734490E+02  0.00000000000E+00 0. -1.
         11    1    3    3    0    0 -0.37056349822E+01 -0.23684395346E+01  0.21138504208E+01  0.48795082041E+01  0.51100000000E-03 0. -1.
        -11    1    3    3    0    0 -0.14729571736E+02  0.50709749347E+01 -0.93470903204E+01  0.18167090247E+02  0.51100000000E-03 0.  1.
         12    1    3    3    0    0 -0.16951676604E+02 -0.21756996717E+01 -0.17888756182E+02  0.24740667059E+02  0.00000000000E+00 0. -1.
</event>
<event>
 7    1  0.1362420E-009  0.4778727E+02  0.7816164E-02  0.1312668E+00
        -11   -1    0    0    0    0  0.00000000000E+00  0.00000000000E+00  0.45593999997E+02  0.45594000000E+02  0.51100000000E-03 0. -1.
         11   -1    0    0    0    0 -0.00000000000E+00 -0.00000000000E+00 -0.45593999997E+02  0.45594000000E+02  0.51100000000E-03 0.  1.
    9900012    2    1    2    0    0 -0.35801041594E+02  0.19510047878E+02 -0.14875035216E+02  0.47787271664E+02  0.20000002825E+02 0.  0.
         12    1    1    2    0    0  0.35801041594E+02 -0.19510047878E+02  0.14875035216E+02  0.43400728336E+02  0.00000000000E+00 0. -1.
         11    1    3    3    0    0 -0.53813884209E+00  0.57035325034E+00  0.14601290559E+01  0.16573694110E+01  0.51100000000E-03 0. -1.
        -11    1    3    3    0    0 -0.35149844497E+02  0.19875896438E+02 -0.12634049527E+02  0.42310542836E+02  0.51100000000E-03 0.  1.
        -12    1    3    3    0    0 -0.11305825500E+00 -0.93620181079E+00 -0.37011147451E+01  0.38193594170E+01  0.00000000000E+00 0.  1.
</event>
<event>
 7    1  0.1246400E-009  0.4778727E+02  0.7816164E-02  0.1312668E+00
        -11   -1    0    0    0    0  0.00000000000E+00  0.00000000000E+00  0.45593999997E+02  0.45594000000E+02  0.51100000000E-03 0.  1.
         11   -1    0    0    0    0 -0.00000000000E+00 -0.00000000000E+00 -0.45593999997E+02  0.45594000000E+02  0.51100000000E-03 0. -1.
    9900012    2    1    2    0    0  0.33330755947E+02  0.61958228499E+01 -0.27097890133E+02  0.47787272328E+02  0.20000005853E+02 0.  0.
         12    1    1    2    0    0 -0.33330755947E+02 -0.61958228499E+01  0.27097890133E+02  0.43400727672E+02  0.00000000000E+00 0. -1.
         11    1    3    3    0    0  0.39966054555E+00  0.96250718680E+00 -0.73233682803E+01  0.73971529568E+01  0.51100000000E-03 0. -1.
        -11    1    3    3    0    0  0.14785376437E+02  0.70186754917E+01 -0.56102326584E+01  0.17301556947E+02  0.51100000000E-03 0.  1.
        -12    1    3    3    0    0  0.18145718965E+02 -0.17853598286E+01 -0.14164289194E+02  0.23088562425E+02  0.00000000000E+00 0.  1.
</event>
<event>
 7    1  0.1246400E-009  0.4778726E+02  0.7816164E-02  0.1312668E+00
        -11   -1    0    0    0    0  0.00000000000E+00  0.00000000000E+00  0.45593999997E+02  0.45594000000E+02  0.51100000000E-03 0.  1.
         11   -1    0    0    0    0 -0.00000000000E+00 -0.00000000000E+00 -0.45593999997E+02  0.45594000000E+02  0.51100000000E-03 0. -1.
    9900012    2    1    2    0    0  0.98394798197E+01 -0.41229026379E+02  0.93261049534E+01  0.47787260227E+02  0.19999950679E+02 0.  0.
         12    1    1    2    0    0 -0.98394798197E+01  0.41229026379E+02 -0.93261049534E+01  0.43400739773E+02  0.00000000000E+00 0. -1.
         11    1    3    3    0    0 -0.23862387111E+01 -0.44198714336E+01  0.38215312507E+01  0.63113786162E+01  0.51100000000E-03 0. -1.
        -11    1    3    3    0    0  0.32626731372E+01 -0.16956806441E+02 -0.39768145796E+01  0.17719858214E+02  0.51100000000E-03 0.  1.
        -12    1    3    3    0    0  0.89630453935E+01 -0.19852348504E+02  0.94813882823E+01  0.23756023397E+02  0.00000000000E+00 0.  1.
</event>
<event>
 7    1  0.1246400E-009  0.4778727E+02  0.7816164E-02  0.1312668E+00
        -11   -1    0    0    0    0  0.00000000000E+00  0.00000000000E+00  0.45593999997E+02  0.45594000000E+02  0.51100000000E-03 0.  1.
         11   -1    0    0    0    0 -0.00000000000E+00 -0.00000000000E+00 -0.45593999997E+02  0.45594000000E+02  0.51100000000E-03 0. -1.
    9900012    2    1    2    0    0 -0.36019061127E+02  0.22489476505E+02  0.89707241929E+01  0.47787271775E+02  0.20000003330E+02 0.  0.
         12    1    1    2    0    0  0.36019061127E+02 -0.22489476505E+02 -0.89707241929E+01  0.43400728225E+02  0.00000000000E+00 0. -1.
         11    1    3    3    0    0 -0.11128978569E+02 -0.40349442329E+00 -0.14947516363E+01  0.11236158349E+02  0.51100000000E-03 0. -1.
        -11    1    3    3    0    0 -0.20058339270E+02  0.16405840586E+02  0.40514116184E+01  0.26227895760E+02  0.51100000000E-03 0.  1.
        -12    1    3    3    0    0 -0.48317432879E+01  0.64871303416E+01  0.64140642109E+01  0.10323217665E+02  0.00000000000E+00 0.  1.
</event>
<event>
 7    1  0.1246400E-009  0.4778727E+02  0.7816164E-02  0.1312668E+00
        -11   -1    0    0    0    0  0.00000000000E+00  0.00000000000E+00  0.45593999997E+02  0.45594000000E+02  0.51100000000E-03 0.  1.
         11   -1    0    0    0    0 -0.00000000000E+00 -0.00000000000E+00 -0.45593999997E+02  0.45594000000E+02  0.51100000000E-03 0. -1.
    9900012    2    1    2    0    0 -0.13200756421E+01 -0.78575402432E+01  0.42663096033E+02  0.47787270726E+02  0.19999998549E+02 0.  0.
         12    1    1    2    0    0  0.13200756421E+01  0.78575402432E+01 -0.42663096033E+02  0.43400729274E+02  0.00000000000E+00 0. -1.
         11    1    3    3    0    0 -0.65523943088E+01 -0.21965695345E+01  0.97548550595E+01  0.11954747442E+02  0.51100000000E-03 0. -1.
        -11    1    3    3    0    0  0.22023426397E+01 -0.71634644290E+01  0.91161689347E+01  0.11801274170E+02  0.51100000000E-03 0.  1.
        -12    1    3    3    0    0  0.30299760269E+01  0.15024937203E+01  0.23792072039E+02  0.24031249115E+02  0.00000000000E+00 0.  1.
</event>
<event>
 7    1  0.1246400E-009  0.4778727E+02  0.7816164E-02  0.1312668E+00
        -11   -1    0    0    0    0  0.00000000000E+00  0.00000000000E+00  0.45593999997E+02  0.45594000000E+02  0.51100000000E-03 0. -1.
         11   -1    0    0    0    0 -0.00000000000E+00 -0.00000000000E+00 -0.45593999997E+02  0.45594000000E+02  0.51100000000E-03 0.  1.
    9900012    2    1    2    0    0  0.30781065325E+02 -0.22106488600E+02  0.21153076546E+02  0.47787268807E+02  0.19999989798E+02 0.  0.
         12    1    1    2    0    0 -0.30781065325E+02  0.22106488600E+02 -0.21153076546E+02  0.43400731193E+02  0.00000000000E+00 0. -1.
         11    1    3    3    0    0  0.42307353863E+01 -0.33507541336E+01 -0.32934113362E-01  0.53970139976E+01  0.51100000000E-03 0. -1.
        -11    1    3    3    0    0  0.11554672927E+02 -0.12474576530E+02  0.18142857437E+01  0.17100209328E+02  0.51100000000E-03 0.  1.
         12    1    3    3    0    0  0.14995657012E+02 -0.62811579368E+01  0.19371724916E+02  0.25290045481E+02  0.00000000000E+00 0. -1.
</event>
<event>
 7    1  0.1246400E-009  0.4778727E+02  0.7816164E-02  0.1312668E+00
        -11   -1    0    0    0    0  0.00000000000E+00  0.00000000000E+00  0.45593999997E+02  0.45594000000E+02  0.51100000000E-03 0. -1.
         11   -1    0    0    0    0 -0.00000000000E+00 -0.00000000000E+00 -0.45593999997E+02  0.45594000000E+02  0.51100000000E-03 0.  1.
    9900012    2    1    2    0    0 -0.37152548836E+02  0.13470001673E+02 -0.17940751707E+02  0.47787269570E+02  0.19999993277E+02 0.  0.
         12    1    1    2    0    0  0.37152548836E+02 -0.13470001673E+02  0.17940751707E+02  0.43400730430E+02  0.00000000000E+00 0. -1.
         11    1    3    3    0    0 -0.15824969890E+02 -0.13317141673E+01 -0.60683907782E+01  0.17000838260E+02  0.51100000000E-03 0. -1.
        -11    1    3    3    0    0 -0.20426557533E+02  0.10550470656E+02 -0.12842002922E+02  0.26333889250E+02  0.51100000000E-03 0.  1.
         12    1    3    3    0    0 -0.90102141228E+00  0.42512451837E+01  0.96964199300E+00  0.44525420595E+01  0.00000000000E+00 0. -1.
</event>
<event>
 7    1  0.1246400E-009  0.4778727E+02  0.7816164E-02  0.1312668E+00
        -11   -1    0    0    0    0  0.00000000000E+00  0.00000000000E+00  0.45593999997E+02  0.45594000000E+02  0.51100000000E-03 0. -1.
         11   -1    0    0    0    0 -0.00000000000E+00 -0.00000000000E+00 -0.45593999997E+02  0.45594000000E+02  0.51100000000E-03 0.  1.
    9900012    2    1    2    0    0  0.38392001855E+02  0.20118450717E+02  0.22192833901E+01  0.47787273226E+02  0.20000009947E+02 0.  0.
         12    1    1    2    0    0 -0.38392001855E+02 -0.20118450717E+02 -0.22192833901E+01  0.43400726774E+02  0.00000000000E+00 0. -1.
         11    1    3    3    0    0  0.67338523540E+01 -0.18960013825E+01  0.25994244622E+00  0.70005113459E+01  0.51100000000E-03 0. -1.
        -11    1    3    3    0    0  0.12507755825E+01 -0.14736179795E+01 -0.11320408185E+01  0.22399790587E+01  0.51100000000E-03 0.  1.
         12    1    3    3    0    0  0.30407373919E+02  0.23488070079E+02  0.30913817624E+01  0.38546782822E+02  0.00000000000E+00 0. -1.
</event>
<event>
 7    1  0.1246400E-009  0.4778728E+02  0.7816164E-02  0.1312668E+00
        -11   -1    0    0    0    0  0.00000000000E+00  0.00000000000E+00  0.45593999997E+02  0.45594000000E+02  0.51100000000E-03 0.  1.
         11   -1    0    0    0    0 -0.00000000000E+00 -0.00000000000E+00 -0.45593999997E+02  0.45594000000E+02  0.51100000000E-03 0. -1.
    9900012    2    1    2    0    0  0.52306844257E+01  0.15929419198E+02  0.40031438585E+02  0.47787279605E+02  0.20000039033E+02 0.  0.
         12    1    1    2    0    0 -0.52306844257E+01 -0.15929419198E+02 -0.40031438585E+02  0.43400720395E+02  0.00000000000E+00 0. -1.
         11    1    3    3    0    0  0.23981689312E+01 -0.82673241223E+00 -0.86538766806E+00  0.26802232707E+01  0.51100000000E-03 0. -1.
        -11    1    3    3    0    0 -0.30337842704E+01  0.49435346467E+01  0.13864234892E+02  0.15028619072E+02  0.51100000000E-03 0.  1.
        -12    1    3    3    0    0  0.58662997649E+01  0.11812616964E+02  0.27032591362E+02  0.30078437263E+02  0.00000000000E+00 0.  1.
</event>
<event>
 7    1  0.1246400E-009  0.4778729E+02  0.7816164E-02  0.1312668E+00
        -11   -1    0    0    0    0  0.00000000000E+00  0.00000000000E+00  0.45593999997E+02  0.45594000000E+02  0.51100000000E-03 0.  1.
         11   -1    0    0    0    0 -0.00000000000E+00 -0.00000000000E+00 -0.45593999997E+02  0.45594000000E+02  0.51100000000E-03 0. -1.
    9900012    2    1    2    0    0 -0.21371136439E+02 -0.12500443807E+02  0.35645972618E+02  0.47787286504E+02  0.20000070486E+02 0.  0.
         12    1    1    2    0    0  0.21371136439E+02  0.12500443807E+02 -0.35645972618E+02  0.43400713496E+02  0.00000000000E+00 0. -1.
         11    1    3    3    0    0 -0.20143726545E+02 -0.92358152011E+01  0.23707285487E+02  0.32451585277E+02  0.51100000000E-03 0. -1.
        -11    1    3    3    0    0 -0.19284203445E+00  0.20484621238E+01 -0.17772525890E+00  0.20651807794E+01  0.51100000000E-03 0.  1.
        -12    1    3    3    0    0 -0.10345678597E+01 -0.53130907299E+01  0.12116412390E+02  0.13270520448E+02  0.00000000000E+00 0.  1.
</event>
<event>
 7    1  0.1246400E-009  0.4778727E+02  0.7816164E-02  0.1312668E+00
        -11   -1    0    0    0    0  0.00000000000E+00  0.00000000000E+00  0.45593999997E+02  0.45594000000E+02  0.51100000000E-03 0.  1.
         11   -1    0    0    0    0 -0.00000000000E+00 -0.00000000000E+00 -0.45593999997E+02  0.45594000000E+02  0.51100000000E-03 0. -1.
    9900012    2    1    2    0    0 -0.34652878254E+02 -0.25497146646E+02  0.57181179413E+01  0.47787270384E+02  0.19999996990E+02 0.  0.
         12    1    1    2    0    0  0.34652878254E+02  0.25497146646E+02 -0.57181179413E+01  0.43400729616E+02  0.00000000000E+00 0. -1.
         11    1    3    3    0    0 -0.24365254081E+02 -0.16418064863E+02  0.14861149693E+01  0.29418140632E+02  0.51100000000E-03 0.  1.
        -11    1    3    3    0    0 -0.72794424811E+01 -0.75298094394E+01 -0.25594527558E+01  0.10781424382E+02  0.51100000000E-03 0. -1.
         12    1    3    3    0    0 -0.30081816920E+01 -0.15492723441E+01  0.67914557278E+01  0.75877053706E+01  0.00000000000E+00 0. -1.
</event>
<event>
 7    1  0.1246400E-009  0.4778727E+02  0.7816164E-02  0.1312668E+00
        -11   -1    0    0    0    0  0.00000000000E+00  0.00000000000E+00  0.45593999997E+02  0.45594000000E+02  0.51100000000E-03 0.  1.
         11   -1    0    0    0    0 -0.00000000000E+00 -0.00000000000E+00 -0.45593999997E+02  0.45594000000E+02  0.51100000000E-03 0. -1.
    9900012    2    1    2    0    0 -0.26940725716E+02  0.15522396577E+02  0.30279959072E+02  0.47787269373E+02  0.19999992378E+02 0.  0.
         12    1    1    2    0    0  0.26940725716E+02 -0.15522396577E+02 -0.30279959072E+02  0.43400730627E+02  0.00000000000E+00 0. -1.
         11    1    3    3    0    0  0.14499409439E+01 -0.15010832339E+00  0.73075941015E+00  0.16306044359E+01  0.51100000000E-03 0. -1.
        -11    1    3    3    0    0 -0.12100693219E+02  0.36144245845E+01  0.34109938947E+01  0.13081503012E+02  0.51100000000E-03 0.  1.
        -12    1    3    3    0    0 -0.16289973441E+02  0.12058080316E+02  0.26138205767E+02  0.33075161925E+02  0.00000000000E+00 0.  1.
</event>
<event>
 7    1  0.1246400E-009  0.4778727E+02  0.7816164E-02  0.1312668E+00
        -11   -1    0    0    0    0  0.00000000000E+00  0.00000000000E+00  0.45593999997E+02  0.45594000000E+02  0.51100000000E-03 0.  1.
         11   -1    0    0    0    0 -0.00000000000E+00 -0.00000000000E+00 -0.45593999997E+02  0.45594000000E+02  0.51100000000E-03 0. -1.
    9900012    2    1    2    0    0  0.26002220579E+02 -0.34146639242E+02 -0.64432098734E+01  0.47787269591E+02  0.19999993373E+02 0.  0.
         12    1    1    2    0    0 -0.26002220579E+02  0.34146639242E+02  0.64432098734E+01  0.43400730409E+02  0.00000000000E+00 0. -1.
         11    1    3    3    0    0  0.11822321975E+02 -0.17316559643E+02 -0.50101297521E+01  0.21557642151E+02  0.51100000000E-03 0. -1.
        -11    1    3    3    0    0  0.92954288164E+01 -0.71480255393E+00  0.73074321290E-01  0.93231582465E+01  0.51100000000E-03 0.  1.
         12    1    3    3    0    0  0.48844697874E+01 -0.16115277046E+02 -0.15061544426E+01  0.16906469193E+02  0.00000000000E+00 0. -1.
</event>
<event>
 7    1  0.1246400E-009  0.4778726E+02  0.7816164E-02  0.1312668E+00
        -11   -1    0    0    0    0  0.00000000000E+00  0.00000000000E+00  0.45593999997E+02  0.45594000000E+02  0.51100000000E-03 0. -1.
         11   -1    0    0    0    0 -0.00000000000E+00 -0.00000000000E+00 -0.45593999997E+02  0.45594000000E+02  0.51100000000E-03 0.  1.
    9900012    2    1    2    0    0 -0.12569012124E+02  0.92681360737E+01 -0.40493772461E+02  0.47787262447E+02  0.19999960801E+02 0.  0.
         12    1    1    2    0    0  0.12569012124E+02 -0.92681360737E+01  0.40493772461E+02  0.43400737553E+02  0.00000000000E+00 0. -1.
         11    1    3    3    0    0 -0.16419773225E+02  0.59964486510E+01 -0.22126916504E+02  0.28198701804E+02  0.51100000000E-03 0. -1.
        -11    1    3    3    0    0  0.26808100966E+01  0.33444902758E+01 -0.73423428300E+01  0.85019031090E+01  0.51100000000E-03 0.  1.
        -12    1    3    3    0    0  0.11699510048E+01 -0.72802853078E-01 -0.11024513126E+02  0.11086657534E+02  0.00000000000E+00 0.  1.
</event>
<event>
 7    1  0.1246400E-009  0.4778727E+02  0.7816164E-02  0.1312668E+00
        -11   -1    0    0    0    0  0.00000000000E+00  0.00000000000E+00  0.45593999997E+02  0.45594000000E+02  0.51100000000E-03 0.  1.
         11   -1    0    0    0    0 -0.00000000000E+00 -0.00000000000E+00 -0.45593999997E+02  0.45594000000E+02  0.51100000000E-03 0. -1.
    9900012    2    1    2    0    0 -0.24726972671E+02 -0.25102569415E+02  0.25338925593E+02  0.47787270526E+02  0.19999997636E+02 0.  0.
         12    1    1    2    0    0  0.24726972671E+02  0.25102569415E+02 -0.25338925593E+02  0.43400729474E+02  0.00000000000E+00 0. -1.
         11    1    3    3    0    0 -0.25839068749E+01 -0.51169983882E+00 -0.12092990622E+01  0.28984161099E+01  0.51100000000E-03 0. -1.
        -11    1    3    3    0    0 -0.21077743627E+02 -0.24878645182E+02  0.20008068064E+02  0.38256255050E+02  0.51100000000E-03 0.  1.
        -12    1    3    3    0    0 -0.10653221685E+01  0.28777560584E+00  0.65401565908E+01  0.66325993663E+01  0.00000000000E+00 0.  1.
</event>
<event>
 7    1  0.1246400E-009  0.4778727E+02  0.7816164E-02  0.1312668E+00
        -11   -1    0    0    0    0  0.00000000000E+00  0.00000000000E+00  0.45593999997E+02  0.45594000000E+02  0.51100000000E-03 0. -1.
         11   -1    0    0    0    0 -0.00000000000E+00 -0.00000000000E+00 -0.45593999997E+02  0.45594000000E+02  0.51100000000E-03 0.  1.
    9900012    2    1    2    0    0  0.13119948377E+02 -0.47653532672E+01 -0.41094791830E+02  0.47787267832E+02  0.19999985353E+02 0.  0.
         12    1    1    2    0    0 -0.13119948377E+02  0.47653532672E+01  0.41094791830E+02  0.43400732168E+02  0.00000000000E+00 0. -1.
         11    1    3    3    0    0 -0.14898771892E+01  0.18448836214E+01 -0.83604765752E+01  0.86902760854E+01  0.51100000000E-03 0. -1.
        -11    1    3    3    0    0 -0.10551081806E+01 -0.49623658455E+01 -0.45741326485E+01  0.68308870437E+01  0.51100000000E-03 0.  1.
        -12    1    3    3    0    0  0.15664933747E+02 -0.16478710431E+01 -0.28160182606E+02  0.32266104703E+02  0.00000000000E+00 0.  1.
</event>
<event>
 7    1  0.1246400E-009  0.4778727E+02  0.7816164E-02  0.1312668E+00
        -11   -1    0    0    0    0  0.00000000000E+00  0.00000000000E+00  0.45593999997E+02  0.45594000000E+02  0.51100000000E-03 0.  1.
         11   -1    0    0    0    0 -0.00000000000E+00 -0.00000000000E+00 -0.45593999997E+02  0.45594000000E+02  0.51100000000E-03 0. -1.
    9900012    2    1    2    0    0 -0.11529287326E+02 -0.31243042079E+02  0.27831119119E+02  0.47787270328E+02  0.19999996735E+02 0.  0.
         12    1    1    2    0    0  0.11529287326E+02  0.31243042079E+02 -0.27831119119E+02  0.43400729672E+02  0.00000000000E+00 0. -1.
         11    1    3    3    0    0  0.28045305757E+01 -0.15562510426E+01  0.15809686652E+01  0.35758595105E+01  0.51100000000E-03 0. -1.
        -11    1    3    3    0    0 -0.12999290898E+02 -0.21876055474E+02  0.12523022698E+02  0.28361408017E+02  0.51100000000E-03 0.  1.
        -12    1    3    3    0    0 -0.13345270040E+01 -0.78107355624E+01  0.13727127756E+02  0.15850002801E+02  0.00000000000E+00 0.  1.
</event>
<event>
 7    1  0.1246400E-009  0.4778727E+02  0.7816164E-02  0.1312668E+00
        -11   -1    0    0    0    0  0.00000000000E+00  0.00000000000E+00  0.45593999997E+02  0.45594000000E+02  0.51100000000E-03 0.  1.
         11   -1    0    0    0    0 -0.00000000000E+00 -0.00000000000E+00 -0.45593999997E+02  0.45594000000E+02  0.51100000000E-03 0. -1.
    9900012    2    1    2    0    0  0.14359626481E+01 -0.14734796936E+02  0.40797637396E+02  0.47787269055E+02  0.19999990930E+02 0.  0.
         12    1    1    2    0    0 -0.14359626481E+01  0.14734796936E+02 -0.40797637396E+02  0.43400730945E+02  0.00000000000E+00 0. -1.
         11    1    3    3    0    0  0.48860284365E+01 -0.54521602405E+01  0.33650467800E+01  0.80574726350E+01  0.51100000000E-03 0. -1.
        -11    1    3    3    0    0  0.13223611987E+01 -0.81146059219E+01  0.26448343741E+02  0.27696757126E+02  0.51100000000E-03 0.  1.
        -12    1    3    3    0    0 -0.47724269871E+01 -0.11680307731E+01  0.10984246875E+02  0.12033039294E+02  0.00000000000E+00 0.  1.
</event>
<event>
 7    1  0.1803530E-009  0.4778728E+02  0.7816164E-02  0.1312668E+00
        -11   -1    0    0    0    0  0.00000000000E+00  0.00000000000E+00  0.45593999997E+02  0.45594000000E+02  0.51100000000E-03 0. -1.
         11   -1    0    0    0    0 -0.00000000000E+00 -0.00000000000E+00 -0.45593999997E+02  0.45594000000E+02  0.51100000000E-03 0.  1.
    9900012    2    1    2    0    0  0.16766101267E+02 -0.26168598623E+02 -0.30293976675E+02  0.47787277329E+02  0.20000028653E+02 0.  0.
         12    1    1    2    0    0 -0.16766101267E+02  0.26168598623E+02  0.30293976675E+02  0.43400722671E+02  0.00000000000E+00 0. -1.
         11    1    3    3    0    0  0.42327909376E+00 -0.61663934815E+01 -0.67125922522E+00  0.62172472179E+01  0.51100000000E-03 0. -1.
        -11    1    3    3    0    0  0.61036327593E+01 -0.16376928036E+02 -0.22856813326E+02  0.28773112804E+02  0.51100000000E-03 0.  1.
        -12    1    3    3    0    0  0.10239189414E+02 -0.36252771053E+01 -0.67659041238E+01  0.12796917307E+02  0.00000000000E+00 0.  1.
</event>
<event>
 7    1  0.1246400E-009  0.4778727E+02  0.7816164E-02  0.1312668E+00
        -11   -1    0    0    0    0  0.00000000000E+00  0.00000000000E+00  0.45593999997E+02  0.45594000000E+02  0.51100000000E-03 0. -1.
         11   -1    0    0    0    0 -0.00000000000E+00 -0.00000000000E+00 -0.45593999997E+02  0.45594000000E+02  0.51100000000E-03 0.  1.
    9900012    2    1    2    0    0 -0.13156028534E+02  0.40890328620E+02 -0.62067010730E+01  0.47787271900E+02  0.20000003900E+02 0.  0.
         12    1    1    2    0    0  0.13156028534E+02 -0.40890328620E+02  0.62067010730E+01  0.43400728100E+02  0.00000000000E+00 0. -1.
         11    1    3    3    0    0  0.76516118438E+00  0.32315147642E+01 -0.11383123765E+01  0.35105433535E+01  0.51100000000E-03 0.  1.
        -11    1    3    3    0    0 -0.18846023246E+01 -0.18538227647E+01 -0.74051768567E+00  0.27453144572E+01  0.51100000000E-03 0. -1.
        -12    1    3    3    0    0 -0.12036587394E+02  0.39512636620E+02 -0.43278710108E+01  0.41531414089E+02  0.00000000000E+00 0.  1.
</event>
<event>
 7    1  0.1246400E-009  0.4778727E+02  0.7816164E-02  0.1312668E+00
        -11   -1    0    0    0    0  0.00000000000E+00  0.00000000000E+00  0.45593999997E+02  0.45594000000E+02  0.51100000000E-03 0.  1.
         11   -1    0    0    0    0 -0.00000000000E+00 -0.00000000000E+00 -0.45593999997E+02  0.45594000000E+02  0.51100000000E-03 0. -1.
    9900012    2    1    2    0    0 -0.18684441910E+02 -0.62418182503E+01  0.38672401694E+02  0.47787270543E+02  0.19999997715E+02 0.  0.
         12    1    1    2    0    0  0.18684441910E+02  0.62418182503E+01 -0.38672401694E+02  0.43400729457E+02  0.00000000000E+00 0. -1.
         11    1    3    3    0    0 -0.12286173833E+02  0.58109211864E+00  0.18972223119E+02  0.22610461867E+02  0.51100000000E-03 0. -1.
        -11    1    3    3    0    0 -0.98948799038E+01 -0.39006600772E+01  0.10689800216E+02  0.15079642777E+02  0.51100000000E-03 0.  1.
         12    1    3    3    0    0  0.34966118259E+01 -0.29222502917E+01  0.90103783593E+01  0.10097165900E+02  0.00000000000E+00 0. -1.
</event>
<event>
 7    1  0.1246400E-009  0.4778727E+02  0.7816164E-02  0.1312668E+00
        -11   -1    0    0    0    0  0.00000000000E+00  0.00000000000E+00  0.45593999997E+02  0.45594000000E+02  0.51100000000E-03 0.  1.
         11   -1    0    0    0    0 -0.00000000000E+00 -0.00000000000E+00 -0.45593999997E+02  0.45594000000E+02  0.51100000000E-03 0. -1.
    9900012    2    1    2    0    0  0.21099399221E+02  0.61897121107E+01  0.37418258747E+02  0.47787271076E+02  0.20000000144E+02 0.  0.
         12    1    1    2    0    0 -0.21099399221E+02 -0.61897121107E+01 -0.37418258747E+02  0.43400728924E+02  0.00000000000E+00 0. -1.
         11    1    3    3    0    0  0.46818425887E+01 -0.41043245707E+01  0.92467555866E+01  0.11147538713E+02  0.51100000000E-03 0. -1.
        -11    1    3    3    0    0  0.11089527677E+02  0.73737029953E+01  0.27464442871E+02  0.30522856066E+02  0.51100000000E-03 0.  1.
         12    1    3    3    0    0  0.53280289552E+01  0.29203336861E+01  0.70706028919E+00  0.61168762974E+01  0.00000000000E+00 0. -1.
</event>
<event>
 7    1  0.1246400E-009  0.4778727E+02  0.7816164E-02  0.1312668E+00
        -11   -1    0    0    0    0  0.00000000000E+00  0.00000000000E+00  0.45593999997E+02  0.45594000000E+02  0.51100000000E-03 0.  1.
         11   -1    0    0    0    0 -0.00000000000E+00 -0.00000000000E+00 -0.45593999997E+02  0.45594000000E+02  0.51100000000E-03 0. -1.
    9900012    2    1    2    0    0 -0.36564995575E+02  0.14747462972E+02  0.18142120870E+02  0.47787272873E+02  0.20000008337E+02 0.  0.
         12    1    1    2    0    0  0.36564995575E+02 -0.14747462972E+02 -0.18142120870E+02  0.43400727127E+02  0.00000000000E+00 0. -1.
         11    1    3    3    0    0 -0.31148102736E+01  0.93297005662E+00  0.49683741740E+01  0.59377789080E+01  0.51100000000E-03 0. -1.
        -11    1    3    3    0    0 -0.63506415116E+01  0.96737841639E+01  0.76847978052E+01  0.13891323379E+02  0.51100000000E-03 0.  1.
         12    1    3    3    0    0 -0.27099543790E+02  0.41407087513E+01  0.54889488905E+01  0.27958170586E+02  0.00000000000E+00 0. -1.
</event>
<event>
 7    1  0.1246400E-009  0.4778727E+02  0.7816164E-02  0.1312668E+00
        -11   -1    0    0    0    0  0.00000000000E+00  0.00000000000E+00  0.45593999997E+02  0.45594000000E+02  0.51100000000E-03 0. -1.
         11   -1    0    0    0    0 -0.00000000000E+00 -0.00000000000E+00 -0.45593999997E+02  0.45594000000E+02  0.51100000000E-03 0.  1.
    9900012    2    1    2    0    0 -0.39226406165E+02 -0.16750091220E+02  0.80216469714E+01  0.47787270552E+02  0.19999997753E+02 0.  0.
         12    1    1    2    0    0  0.39226406165E+02  0.16750091220E+02 -0.80216469714E+01  0.43400729448E+02  0.00000000000E+00 0. -1.
         11    1    3    3    0    0  0.35193573227E+00 -0.40259820006E+01 -0.93485547055E+00  0.41480531386E+01  0.51100000000E-03 0. -1.
        -11    1    3    3    0    0 -0.13217922498E+02  0.21347173250E+00  0.43436360538E+01  0.13914963880E+02  0.51100000000E-03 0.  1.
         12    1    3    3    0    0 -0.26360419400E+02 -0.12937580952E+02  0.46128663882E+01  0.29724253533E+02  0.00000000000E+00 0. -1.
</event>
<event>
 7    1  0.1246400E-009  0.4778726E+02  0.7816164E-02  0.1312668E+00
        -11   -1    0    0    0    0  0.00000000000E+00  0.00000000000E+00  0.45593999997E+02  0.45594000000E+02  0.51100000000E-03 0.  1.
         11   -1    0    0    0    0 -0.00000000000E+00 -0.00000000000E+00 -0.45593999997E+02  0.45594000000E+02  0.51100000000E-03 0. -1.
    9900012    2    1    2    0    0 -0.12778413186E+02  0.41428676349E+02  0.20002842886E+01  0.47787260319E+02  0.19999951101E+02 0.  0.
         12    1    1    2    0    0  0.12778413186E+02 -0.41428676349E+02 -0.20002842886E+01  0.43400739681E+02  0.00000000000E+00 0. -1.
         11    1    3    3    0    0 -0.29391781250E+01 -0.37195703922E-01  0.32724011352E+01  0.43987226579E+01  0.51100000000E-03 0. -1.
        -11    1    3    3    0    0 -0.52877033372E+01  0.15055259716E+02 -0.39987524741E+01  0.16450248427E+02  0.51100000000E-03 0.  1.
         12    1    3    3    0    0 -0.45515317243E+01  0.26410612337E+02  0.27266356275E+01  0.26938289234E+02  0.00000000000E+00 0. -1.
</event>
<event>
 7    1  0.1246400E-009  0.4778725E+02  0.7816164E-02  0.1312668E+00
        -11   -1    0    0    0    0  0.00000000000E+00  0.00000000000E+00  0.45593999997E+02  0.45594000000E+02  0.51100000000E-03 0.  1.
         11   -1    0    0    0    0 -0.00000000000E+00 -0.00000000000E+00 -0.45593999997E+02  0.45594000000E+02  0.51100000000E-03 0. -1.
    9900012    2    1    2    0    0  0.38308703586E+02  0.99798321726E+01  0.17789644720E+02  0.47787247933E+02  0.19999894628E+02 0.  0.
         12    1    1    2    0    0 -0.38308703586E+02 -0.99798321726E+01 -0.17789644720E+02  0.43400752067E+02  0.00000000000E+00 0. -1.
         11    1    3    3    0    0  0.32830061714E+02  0.72617436698E+01  0.21268328760E+02  0.39785521007E+02  0.51100000000E-03 0.  1.
        -11    1    3    3    0    0  0.51890129570E+01  0.26519839947E+01 -0.15223853545E+01  0.60230002494E+01  0.51100000000E-03 0. -1.
        -12    1    3    3    0    0  0.28962891521E+00  0.66104508133E-01 -0.19562986856E+01  0.19787266769E+01  0.00000000000E+00 0.  1.
</event>
<event>
 7    1  0.1246400E-009  0.4778727E+02  0.7816164E-02  0.1312668E+00
        -11   -1    0    0    0    0  0.00000000000E+00  0.00000000000E+00  0.45593999997E+02  0.45594000000E+02  0.51100000000E-03 0.  1.
         11   -1    0    0    0    0 -0.00000000000E+00 -0.00000000000E+00 -0.45593999997E+02  0.45594000000E+02  0.51100000000E-03 0. -1.
    9900012    2    1    2    0    0  0.12021830468E+02  0.24451312384E+02  0.33782127976E+02  0.47787271254E+02  0.20000000955E+02 0.  0.
         12    1    1    2    0    0 -0.12021830468E+02 -0.24451312384E+02 -0.33782127976E+02  0.43400728746E+02  0.00000000000E+00 0. -1.
         11    1    3    3    0    0  0.38546667792E+01  0.16135003891E+02  0.94141622320E+01  0.19074151549E+02  0.51100000000E-03 0. -1.
        -11    1    3    3    0    0  0.79894240621E+01  0.19599846053E+01  0.96515667165E+01  0.12681686672E+02  0.51100000000E-03 0.  1.
        -12    1    3    3    0    0  0.17773962695E+00  0.63563238879E+01  0.14716399028E+02  0.16031433033E+02  0.00000000000E+00 0.  1.
</event>
<event>
 7    1  0.1246400E-009  0.4778728E+02  0.7816164E-02  0.1312668E+00
        -11   -1    0    0    0    0  0.00000000000E+00  0.00000000000E+00  0.45593999997E+02  0.45594000000E+02  0.51100000000E-03 0. -1.
         11   -1    0    0    0    0 -0.00000000000E+00 -0.00000000000E+00 -0.45593999997E+02  0.45594000000E+02  0.51100000000E-03 0.  1.
    9900012    2    1    2    0    0 -0.20137027284E+01  0.27566700388E+02 -0.33461087848E+02  0.47787281470E+02  0.20000047534E+02 0.  0.
         12    1    1    2    0    0  0.20137027284E+01 -0.27566700388E+02  0.33461087848E+02  0.43400718530E+02  0.00000000000E+00 0. -1.
         11    1    3    3    0    0  0.27385311845E+01  0.18607299651E+01 -0.32055945251E+01  0.46084385178E+01  0.51100000000E-03 0. -1.
        -11    1    3    3    0    0  0.20744789738E+01  0.23530651083E+02 -0.23849958346E+02  0.33568072879E+02  0.51100000000E-03 0.  1.
         12    1    3    3    0    0 -0.68267128867E+01  0.21753193390E+01 -0.64055349771E+01  0.96107700735E+01  0.00000000000E+00 0. -1.
</event>
<event>
 7    1  0.1246400E-009  0.4778727E+02  0.7816164E-02  0.1312668E+00
        -11   -1    0    0    0    0  0.00000000000E+00  0.00000000000E+00  0.45593999997E+02  0.45594000000E+02  0.51100000000E-03 0. -1.
         11   -1    0    0    0    0 -0.00000000000E+00 -0.00000000000E+00 -0.45593999997E+02  0.45594000000E+02  0.51100000000E-03 0.  1.
    9900012    2    1    2    0    0 -0.33076462414E+02 -0.47678040895E+01 -0.27691851871E+02  0.47787274410E+02  0.20000015347E+02 0.  0.
         12    1    1    2    0    0  0.33076462414E+02  0.47678040895E+01  0.27691851871E+02  0.43400725590E+02  0.00000000000E+00 0. -1.
         11    1    3    3    0    0  0.12439903686E+01 -0.87705777076E-01 -0.67361722731E+01  0.68506365758E+01  0.51100000000E-03 0. -1.
        -11    1    3    3    0    0 -0.21288064809E+02 -0.21619541315E+01 -0.16194898196E+02  0.26835246912E+02  0.51100000000E-03 0.  1.
        -12    1    3    3    0    0 -0.13032387973E+02 -0.25181441808E+01 -0.47607814023E+01  0.14101390923E+02  0.00000000000E+00 0.  1.
</event>
<event>
 7    1  0.1246400E-009  0.4778728E+02  0.7816164E-02  0.1312668E+00
        -11   -1    0    0    0    0  0.00000000000E+00  0.00000000000E+00  0.45593999997E+02  0.45594000000E+02  0.51100000000E-03 0.  1.
         11   -1    0    0    0    0 -0.00000000000E+00 -0.00000000000E+00 -0.45593999997E+02  0.45594000000E+02  0.51100000000E-03 0. -1.
    9900012    2    1    2    0    0 -0.13148062270E+02 -0.32260435768E+02  0.25884654111E+02  0.47787279086E+02  0.20000036664E+02 0.  0.
         12    1    1    2    0    0  0.13148062270E+02  0.32260435768E+02 -0.25884654111E+02  0.43400720914E+02  0.00000000000E+00 0. -1.
         11    1    3    3    0    0 -0.10112072727E+02 -0.11141678972E+02  0.83159764718E+01  0.17191465618E+02  0.51100000000E-03 0. -1.
        -11    1    3    3    0    0 -0.39155022691E+01 -0.16699841473E+02  0.19253139421E+02  0.25785640211E+02  0.51100000000E-03 0.  1.
         12    1    3    3    0    0  0.87951272560E+00 -0.44189153236E+01 -0.16844617822E+01  0.48101732575E+01  0.00000000000E+00 0. -1.
</event>
<event>
 7    1  0.1246400E-009  0.4778727E+02  0.7816164E-02  0.1312668E+00
        -11   -1    0    0    0    0  0.00000000000E+00  0.00000000000E+00  0.45593999997E+02  0.45594000000E+02  0.51100000000E-03 0.  1.
         11   -1    0    0    0    0 -0.00000000000E+00 -0.00000000000E+00 -0.45593999997E+02  0.45594000000E+02  0.51100000000E-03 0. -1.
    9900012    2    1    2    0    0 -0.87884799804E+01 -0.21007100428E+01  0.42449649825E+02  0.47787272663E+02  0.20000007381E+02 0.  0.
         12    1    1    2    0    0  0.87884799804E+01  0.21007100428E+01 -0.42449649825E+02  0.43400727337E+02  0.00000000000E+00 0. -1.
         11    1    3    3    0    0 -0.85116999749E+01 -0.11931625092E+01  0.14086760019E+02  0.16501802366E+02  0.51100000000E-03 0. -1.
        -11    1    3    3    0    0 -0.62079643039E+01 -0.27955627384E+01  0.17303815319E+02  0.18595053554E+02  0.51100000000E-03 0.  1.
        -12    1    3    3    0    0  0.59311842985E+01  0.18880152048E+01  0.11059074488E+02  0.12690416744E+02  0.00000000000E+00 0.  1.
</event>
<event>
 7    1  0.1246400E-009  0.4778727E+02  0.7816164E-02  0.1312668E+00
        -11   -1    0    0    0    0  0.00000000000E+00  0.00000000000E+00  0.45593999997E+02  0.45594000000E+02  0.51100000000E-03 0.  1.
         11   -1    0    0    0    0 -0.00000000000E+00 -0.00000000000E+00 -0.45593999997E+02  0.45594000000E+02  0.51100000000E-03 0. -1.
    9900012    2    1    2    0    0 -0.17927238917E+02  0.17683535376E+02  0.35348688010E+02  0.47787273478E+02  0.20000011096E+02 0.  0.
         12    1    1    2    0    0  0.17927238917E+02 -0.17683535376E+02 -0.35348688010E+02  0.43400726522E+02  0.00000000000E+00 0. -1.
         11    1    3    3    0    0 -0.16777875231E+00 -0.84716506783E+00  0.22124647159E+00  0.89150918345E+00  0.51100000000E-03 0. -1.
        -11    1    3    3    0    0 -0.14716363654E+02  0.86034581427E+01  0.31644620337E+02  0.35944023812E+02  0.51100000000E-03 0.  1.
        -12    1    3    3    0    0 -0.30430965109E+01  0.99272423016E+01  0.34828212011E+01  0.10951740483E+02  0.00000000000E+00 0.  1.
</event>
<event>
 7    1  0.1246400E-009  0.4778727E+02  0.7816164E-02  0.1312668E+00
        -11   -1    0    0    0    0  0.00000000000E+00  0.00000000000E+00  0.45593999997E+02  0.45594000000E+02  0.51100000000E-03 0.  1.
         11   -1    0    0    0    0 -0.00000000000E+00 -0.00000000000E+00 -0.45593999997E+02  0.45594000000E+02  0.51100000000E-03 0. -1.
    9900012    2    1    2    0    0 -0.63978395576E+01 -0.33514610691E+02  0.26822782940E+02  0.47787272294E+02  0.20000005698E+02 0.  0.
         12    1    1    2    0    0  0.63978395576E+01  0.33514610691E+02 -0.26822782940E+02  0.43400727706E+02  0.00000000000E+00 0. -1.
         11    1    3    3    0    0 -0.11656900017E+01 -0.19982479065E+01  0.57561879895E+01  0.62036705512E+01  0.51100000000E-03 0. -1.
        -11    1    3    3    0    0 -0.36664319587E+01 -0.26533115208E+02  0.23671949990E+02  0.35746470351E+02  0.51100000000E-03 0.  1.
         12    1    3    3    0    0 -0.15657175972E+01 -0.49832475762E+01 -0.26053550400E+01  0.58371313918E+01  0.00000000000E+00 0. -1.
</event>
<event>
 7    1  0.1246400E-009  0.4778731E+02  0.7816164E-02  0.1312668E+00
        -11   -1    0    0    0    0  0.00000000000E+00  0.00000000000E+00  0.45593999997E+02  0.45594000000E+02  0.51100000000E-03 0.  1.
         11   -1    0    0    0    0 -0.00000000000E+00 -0.00000000000E+00 -0.45593999997E+02  0.45594000000E+02  0.51100000000E-03 0. -1.
    9900012    2    1    2    0    0 -0.35757612877E+02  0.91217121003E+01  0.22843109123E+02  0.47787307094E+02  0.20000164366E+02 0.  0.
         12    1    1    2    0    0  0.35757612877E+02 -0.91217121003E+01 -0.22843109123E+02  0.43400692906E+02  0.00000000000E+00 0. -1.
         11    1    3    3    0    0 -0.22594864287E+02  0.29861957814E+01  0.16645342777E+02  0.28222556472E+02  0.51100000000E-03 0. -1.
        -11    1    3    3    0    0 -0.93195164520E+01  0.40257807989E+01  0.96331292789E+01  0.13994909000E+02  0.51100000000E-03 0.  1.
         12    1    3    3    0    0 -0.38432321379E+01  0.21097355200E+01 -0.34353629325E+01  0.55698416233E+01  0.00000000000E+00 0. -1.
</event>
<event>
 7    1  0.1246400E-009  0.4778727E+02  0.7816164E-02  0.1312668E+00
        -11   -1    0    0    0    0  0.00000000000E+00  0.00000000000E+00  0.45593999997E+02  0.45594000000E+02  0.51100000000E-03 0.  1.
         11   -1    0    0    0    0 -0.00000000000E+00 -0.00000000000E+00 -0.45593999997E+02  0.45594000000E+02  0.51100000000E-03 0. -1.
    9900012    2    1    2    0    0  0.20551339612E+02 -0.38048256064E+02 -0.36872314102E+01  0.47787273914E+02  0.20000013082E+02 0.  0.
         12    1    1    2    0    0 -0.20551339612E+02  0.38048256064E+02  0.36872314102E+01  0.43400726086E+02  0.00000000000E+00 0. -1.
         11    1    3    3    0    0 -0.21729025801E+01 -0.56797465307E+01 -0.17942128580E+01  0.63403648410E+01  0.51100000000E-03 0. -1.
        -11    1    3    3    0    0  0.11476532722E+02 -0.90374703549E+01  0.34295135713E+01  0.15004940431E+02  0.51100000000E-03 0.  1.
         12    1    3    3    0    0  0.11247709470E+02 -0.23331039178E+02 -0.53225321234E+01  0.26441968642E+02  0.00000000000E+00 0. -1.
</event>
<event>
 7    1  0.1246400E-009  0.4778727E+02  0.7816164E-02  0.1312668E+00
        -11   -1    0    0    0    0  0.00000000000E+00  0.00000000000E+00  0.45593999997E+02  0.45594000000E+02  0.51100000000E-03 0. -1.
         11   -1    0    0    0    0 -0.00000000000E+00 -0.00000000000E+00 -0.45593999997E+02  0.45594000000E+02  0.51100000000E-03 0.  1.
    9900012    2    1    2    0    0  0.25584769020E+02  0.82840050394E+01 -0.34064912294E+02  0.47787269650E+02  0.19999993642E+02 0.  0.
         12    1    1    2    0    0 -0.25584769020E+02 -0.82840050394E+01  0.34064912294E+02  0.43400730350E+02  0.00000000000E+00 0. -1.
         11    1    3    3    0    0  0.78892701521E+00  0.35509189390E+01 -0.14914921983E+02  0.15352078985E+02  0.51100000000E-03 0.  1.
        -11    1    3    3    0    0  0.10837188512E+02  0.29670966120E-01 -0.11630877687E+02  0.15897259237E+02  0.51100000000E-03 0. -1.
         12    1    3    3    0    0  0.13958653493E+02  0.47034151343E+01 -0.75191126238E+01  0.16537931428E+02  0.00000000000E+00 0. -1.
</event>
<event>
 7    1  0.1246400E-009  0.4778727E+02  0.7816164E-02  0.1312668E+00
        -11   -1    0    0    0    0  0.00000000000E+00  0.00000000000E+00  0.45593999997E+02  0.45594000000E+02  0.51100000000E-03 0.  1.
         11   -1    0    0    0    0 -0.00000000000E+00 -0.00000000000E+00 -0.45593999997E+02  0.45594000000E+02  0.51100000000E-03 0. -1.
    9900012    2    1    2    0    0  0.14991602067E+02  0.25965609886E+02  0.31379325243E+02  0.47787273255E+02  0.20000010077E+02 0.  0.
         12    1    1    2    0    0 -0.14991602067E+02 -0.25965609886E+02 -0.31379325243E+02  0.43400726745E+02  0.00000000000E+00 0. -1.
         11    1    3    3    0    0  0.50695155140E+01 -0.95015066417E+00  0.29497363291E+01  0.59416932354E+01  0.51100000000E-03 0. -1.
        -11    1    3    3    0    0 -0.11159038603E+01  0.98471638241E+01  0.12890635140E+02  0.16259777101E+02  0.51100000000E-03 0.  1.
        -12    1    3    3    0    0  0.11037990413E+02  0.17068596726E+02  0.15538953775E+02  0.25585802918E+02  0.00000000000E+00 0.  1.
</event>
<event>
 7    1  0.1246400E-009  0.4778727E+02  0.7816164E-02  0.1312668E+00
        -11   -1    0    0    0    0  0.00000000000E+00  0.00000000000E+00  0.45593999997E+02  0.45594000000E+02  0.51100000000E-03 0.  1.
         11   -1    0    0    0    0 -0.00000000000E+00 -0.00000000000E+00 -0.45593999997E+02  0.45594000000E+02  0.51100000000E-03 0. -1.
    9900012    2    1    2    0    0 -0.10212941221E+02  0.13440670759E+01  0.42160555821E+02  0.47787272451E+02  0.20000006411E+02 0.  0.
         12    1    1    2    0    0  0.10212941221E+02 -0.13440670759E+01 -0.42160555821E+02  0.43400727549E+02  0.00000000000E+00 0. -1.
         11    1    3    3    0    0 -0.31704394368E+01  0.16665882360E+01  0.11746715648E+01  0.37694901667E+01  0.51100000000E-03 0. -1.
        -11    1    3    3    0    0 -0.87574859784E+00 -0.69476593179E+01  0.17938795965E+02  0.19257136509E+02  0.51100000000E-03 0.  1.
         12    1    3    3    0    0 -0.61667531869E+01  0.66251381578E+01  0.23047088291E+02  0.24760645775E+02  0.00000000000E+00 0. -1.
</event>
<event>
 7    1  0.1246400E-009  0.4778727E+02  0.7816164E-02  0.1312668E+00
        -11   -1    0    0    0    0  0.00000000000E+00  0.00000000000E+00  0.45593999997E+02  0.45594000000E+02  0.51100000000E-03 0. -1.
         11   -1    0    0    0    0 -0.00000000000E+00 -0.00000000000E+00 -0.45593999997E+02  0.45594000000E+02  0.51100000000E-03 0.  1.
    9900012    2    1    2    0    0  0.16516486563E+02 -0.38864684670E+02 -0.10018247547E+02  0.47787270435E+02  0.19999997220E+02 0.  0.
         12    1    1    2    0    0 -0.16516486563E+02  0.38864684670E+02  0.10018247547E+02  0.43400729565E+02  0.00000000000E+00 0. -1.
         11    1    3    3    0    0  0.99452267643E+01 -0.16032941693E+02 -0.29559033963E+01  0.19097123340E+02  0.51100000000E-03 0. -1.
        -11    1    3    3    0    0 -0.28369936747E+00 -0.48394396333E+00 -0.52113586276E+01  0.52414641177E+01  0.51100000000E-03 0.  1.
        -12    1    3    3    0    0  0.68549591663E+01 -0.22347799014E+02 -0.18509855229E+01  0.23448682976E+02  0.00000000000E+00 0.  1.
</event>
<event>
 7    1  0.1246400E-009  0.4778727E+02  0.7816164E-02  0.1312668E+00
        -11   -1    0    0    0    0  0.00000000000E+00  0.00000000000E+00  0.45593999997E+02  0.45594000000E+02  0.51100000000E-03 0. -1.
         11   -1    0    0    0    0 -0.00000000000E+00 -0.00000000000E+00 -0.45593999997E+02  0.45594000000E+02  0.51100000000E-03 0.  1.
    9900012    2    1    2    0    0 -0.31134353168E+02 -0.23777690339E+02  0.18678776310E+02  0.47787272016E+02  0.20000004430E+02 0.  0.
         12    1    1    2    0    0  0.31134353168E+02  0.23777690339E+02 -0.18678776310E+02  0.43400727984E+02  0.00000000000E+00 0. -1.
         11    1    3    3    0    0 -0.12759197674E+01  0.85341019955E+00  0.52057236512E+01  0.54273233932E+01  0.51100000000E-03 0. -1.
        -11    1    3    3    0    0 -0.96371774567E+01 -0.61051422275E+01  0.90909208141E+01  0.14587418979E+02  0.51100000000E-03 0.  1.
         12    1    3    3    0    0 -0.20221255944E+02 -0.18525958311E+02  0.43821318452E+01  0.27772529644E+02  0.00000000000E+00 0. -1.
</event>
<event>
 7    1  0.1246400E-009  0.4778727E+02  0.7816164E-02  0.1312668E+00
        -11   -1    0    0    0    0  0.00000000000E+00  0.00000000000E+00  0.45593999997E+02  0.45594000000E+02  0.51100000000E-03 0.  1.
         11   -1    0    0    0    0 -0.00000000000E+00 -0.00000000000E+00 -0.45593999997E+02  0.45594000000E+02  0.51100000000E-03 0. -1.
    9900012    2    1    2    0    0  0.12887094988E+02  0.10105123018E+02  0.40192446605E+02  0.47787268525E+02  0.19999988514E+02 0.  0.
         12    1    1    2    0    0 -0.12887094988E+02 -0.10105123018E+02 -0.40192446605E+02  0.43400731475E+02  0.00000000000E+00 0. -1.
         11    1    3    3    0    0  0.91245130030E+01  0.10125658292E+02  0.24130196918E+02  0.27713752849E+02  0.51100000000E-03 0.  1.
        -11    1    3    3    0    0 -0.21364417409E+01  0.30242247837E+01  0.13645708245E+01  0.39461845688E+01  0.51100000000E-03 0. -1.
        -12    1    3    3    0    0  0.58990237256E+01 -0.30447600572E+01  0.14697678862E+02  0.16127331108E+02  0.00000000000E+00 0.  1.
</event>
<event>
 7    1  0.1246400E-009  0.4778727E+02  0.7816164E-02  0.1312668E+00
        -11   -1    0    0    0    0  0.00000000000E+00  0.00000000000E+00  0.45593999997E+02  0.45594000000E+02  0.51100000000E-03 0.  1.
         11   -1    0    0    0    0 -0.00000000000E+00 -0.00000000000E+00 -0.45593999997E+02  0.45594000000E+02  0.51100000000E-03 0. -1.
    9900012    2    1    2    0    0 -0.16014275104E+02 -0.38950484496E+02  0.10489330292E+02  0.47787270748E+02  0.19999998649E+02 0.  0.
         12    1    1    2    0    0  0.16014275104E+02  0.38950484496E+02 -0.10489330292E+02  0.43400729252E+02  0.00000000000E+00 0. -1.
         11    1    3    3    0    0  0.37148469450E+01 -0.11558487918E+02  0.17100163228E+01  0.12260623429E+02  0.51100000000E-03 0. -1.
        -11    1    3    3    0    0 -0.50512342644E+01 -0.78460994371E+01  0.55855884865E+01  0.10875433002E+02  0.51100000000E-03 0.  1.
        -12    1    3    3    0    0 -0.14677887785E+02 -0.19545897141E+02  0.31937254831E+01  0.24651214318E+02  0.00000000000E+00 0.  1.
</event>
<event>
 7    1  0.1246400E-009  0.4778727E+02  0.7816164E-02  0.1312668E+00
        -11   -1    0    0    0    0  0.00000000000E+00  0.00000000000E+00  0.45593999997E+02  0.45594000000E+02  0.51100000000E-03 0.  1.
         11   -1    0    0    0    0 -0.00000000000E+00 -0.00000000000E+00 -0.45593999997E+02  0.45594000000E+02  0.51100000000E-03 0. -1.
    9900012    2    1    2    0    0  0.35926154574E+02 -0.21647875266E+02  0.11149180800E+02  0.47787270530E+02  0.19999997656E+02 0.  0.
         12    1    1    2    0    0 -0.35926154574E+02  0.21647875266E+02 -0.11149180800E+02  0.43400729470E+02  0.00000000000E+00 0. -1.
         11    1    3    3    0    0  0.78397858583E+01  0.26451189427E+01  0.55337006125E+01  0.99539308444E+01  0.51100000000E-03 0. -1.
        -11    1    3    3    0    0  0.14833583753E+02 -0.99662251129E+01  0.19647040949E+01  0.17978345653E+02  0.51100000000E-03 0.  1.
         12    1    3    3    0    0  0.13252784962E+02 -0.14326769096E+02  0.36507760922E+01  0.19854994033E+02  0.00000000000E+00 0. -1.
</event>
<event>
 7    1  0.2678507E-009  0.4778727E+02  0.7816164E-02  0.1312668E+00
        -11   -1    0    0    0    0  0.00000000000E+00  0.00000000000E+00  0.45593999997E+02  0.45594000000E+02  0.51100000000E-03 0. -1.
         11   -1    0    0    0    0 -0.00000000000E+00 -0.00000000000E+00 -0.45593999997E+02  0.45594000000E+02  0.51100000000E-03 0.  1.
    9900012    2    1    2    0    0  0.28234843654E+02  0.32134213358E+02 -0.73354670028E+01  0.47787272582E+02  0.20000007009E+02 0.  0.
         12    1    1    2    0    0 -0.28234843654E+02 -0.32134213358E+02  0.73354670028E+01  0.43400727418E+02  0.00000000000E+00 0. -1.
         11    1    3    3    0    0 -0.15342927757E+01  0.56165714803E+01 -0.77095031758E+00  0.58731843295E+01  0.51100000000E-03 0. -1.
        -11    1    3    3    0    0  0.16532104701E+02  0.20960960370E+02 -0.68293061979E+01  0.27555612294E+02  0.51100000000E-03 0.  1.
         12    1    3    3    0    0  0.13237031729E+02  0.55566815074E+01  0.26478951273E+00  0.14358475959E+02  0.00000000000E+00 0. -1.
</event>
<event>
 7    1  0.1246400E-009  0.4778727E+02  0.7816164E-02  0.1312668E+00
        -11   -1    0    0    0    0  0.00000000000E+00  0.00000000000E+00  0.45593999997E+02  0.45594000000E+02  0.51100000000E-03 0.  1.
         11   -1    0    0    0    0 -0.00000000000E+00 -0.00000000000E+00 -0.45593999997E+02  0.45594000000E+02  0.51100000000E-03 0. -1.
    9900012    2    1    2    0    0 -0.59705407853E+01 -0.37780488897E+02  0.20508794684E+02  0.47787270076E+02  0.19999995583E+02 0.  0.
         12    1    1    2    0    0  0.59705407853E+01  0.37780488897E+02 -0.20508794684E+02  0.43400729924E+02  0.00000000000E+00 0. -1.
         11    1    3    3    0    0 -0.58302552701E+01 -0.45905018570E+01  0.28321838651E+01  0.79426601035E+01  0.51100000000E-03 0. -1.
        -11    1    3    3    0    0 -0.41611940626E+01 -0.89190704360E+01  0.52843669502E+00  0.98561959736E+01  0.51100000000E-03 0.  1.
         12    1    3    3    0    0  0.40209085474E+01 -0.24270916604E+02  0.17148174124E+02  0.29988413998E+02  0.00000000000E+00 0. -1.
</event>
<event>
 7    1  0.1246400E-009  0.4778723E+02  0.7816164E-02  0.1312668E+00
        -11   -1    0    0    0    0  0.00000000000E+00  0.00000000000E+00  0.45593999997E+02  0.45594000000E+02  0.51100000000E-03 0.  1.
         11   -1    0    0    0    0 -0.00000000000E+00 -0.00000000000E+00 -0.45593999997E+02  0.45594000000E+02  0.51100000000E-03 0. -1.
    9900012    2    1    2    0    0 -0.39668308684E+02  0.16945755488E+02 -0.47846699602E+01  0.47787234920E+02  0.19999835294E+02 0.  0.
         12    1    1    2    0    0  0.39668308684E+02 -0.16945755488E+02  0.47846699602E+01  0.43400765080E+02  0.00000000000E+00 0. -1.
         11    1    3    3    0    0 -0.78725577755E+00 -0.30805270416E+01  0.51546593121E+00  0.32210439147E+01  0.51100000000E-03 0. -1.
        -11    1    3    3    0    0 -0.47917571920E+01  0.17274566014E+00 -0.79902894890E+00  0.48609901844E+01  0.51100000000E-03 0.  1.
        -12    1    3    3    0    0 -0.34089295714E+02  0.19853536869E+02 -0.45011069425E+01  0.39705200821E+02  0.00000000000E+00 0.  1.
</event>
<event>
 7    1  0.1246400E-009  0.4778727E+02  0.7816164E-02  0.1312668E+00
        -11   -1    0    0    0    0  0.00000000000E+00  0.00000000000E+00  0.45593999997E+02  0.45594000000E+02  0.51100000000E-03 0.  1.
         11   -1    0    0    0    0 -0.00000000000E+00 -0.00000000000E+00 -0.45593999997E+02  0.45594000000E+02  0.51100000000E-03 0. -1.
    9900012    2    1    2    0    0 -0.12862585862E+00  0.14662485243E+02  0.40848725319E+02  0.47787269841E+02  0.19999994514E+02 0.  0.
         12    1    1    2    0    0  0.12862585862E+00 -0.14662485243E+02 -0.40848725319E+02  0.43400730159E+02  0.00000000000E+00 0. -1.
         11    1    3    3    0    0 -0.47309432036E+01  0.10723611449E+02  0.14441395670E+02  0.18599235878E+02  0.51100000000E-03 0.  1.
        -11    1    3    3    0    0 -0.79852681732E+00  0.29623373321E+01  0.21820935197E+02  0.22035568989E+02  0.51100000000E-03 0. -1.
         12    1    3    3    0    0  0.54008441623E+01  0.97653646211E+00  0.45863944529E+01  0.71524649740E+01  0.00000000000E+00 0. -1.
</event>
<event>
 7    1  0.1246400E-009  0.4778727E+02  0.7816164E-02  0.1312668E+00
        -11   -1    0    0    0    0  0.00000000000E+00  0.00000000000E+00  0.45593999997E+02  0.45594000000E+02  0.51100000000E-03 0.  1.
         11   -1    0    0    0    0 -0.00000000000E+00 -0.00000000000E+00 -0.45593999997E+02  0.45594000000E+02  0.51100000000E-03 0. -1.
    9900012    2    1    2    0    0  0.13095548376E+02 -0.63322305486E+01  0.40890494158E+02  0.47787273699E+02  0.20000012103E+02 0.  0.
         12    1    1    2    0    0 -0.13095548376E+02  0.63322305486E+01 -0.40890494158E+02  0.43400726301E+02  0.00000000000E+00 0. -1.
         11    1    3    3    0    0  0.85905523934E+01 -0.13616055415E+01  0.80501442138E+01  0.11851429542E+02  0.51100000000E-03 0. -1.
        -11    1    3    3    0    0  0.19416375515E+01 -0.34364012653E+01  0.11585674823E+01  0.41135251196E+01  0.51100000000E-03 0.  1.
         12    1    3    3    0    0  0.25633584312E+01 -0.15342237418E+01  0.31681782462E+02  0.31822319037E+02  0.00000000000E+00 0. -1.
</event>
<event>
 7    1  0.1246400E-009  0.4778727E+02  0.7816164E-02  0.1312668E+00
        -11   -1    0    0    0    0  0.00000000000E+00  0.00000000000E+00  0.45593999997E+02  0.45594000000E+02  0.51100000000E-03 0.  1.
         11   -1    0    0    0    0 -0.00000000000E+00 -0.00000000000E+00 -0.45593999997E+02  0.45594000000E+02  0.51100000000E-03 0. -1.
    9900012    2    1    2    0    0 -0.20265997901E+02 -0.73545861272E+01  0.37667268451E+02  0.47787265898E+02  0.19999976537E+02 0.  0.
         12    1    1    2    0    0  0.20265997901E+02  0.73545861272E+01 -0.37667268451E+02  0.43400734102E+02  0.00000000000E+00 0. -1.
         11    1    3    3    0    0 -0.97160780808E+01 -0.67850756435E+01  0.16893118221E+02  0.20635330583E+02  0.51100000000E-03 0. -1.
        -11    1    3    3    0    0 -0.77324158028E+01 -0.56610202482E+01  0.18630196754E+02  0.20950456696E+02  0.51100000000E-03 0.  1.
         12    1    3    3    0    0 -0.28175040171E+01  0.50915097645E+01  0.21439534754E+01  0.62014786198E+01  0.00000000000E+00 0. -1.
</event>
<event>
 7    1  0.1246400E-009  0.4778727E+02  0.7816164E-02  0.1312668E+00
        -11   -1    0    0    0    0  0.00000000000E+00  0.00000000000E+00  0.45593999997E+02  0.45594000000E+02  0.51100000000E-03 0.  1.
         11   -1    0    0    0    0 -0.00000000000E+00 -0.00000000000E+00 -0.45593999997E+02  0.45594000000E+02  0.51100000000E-03 0. -1.
    9900012    2    1    2    0    0  0.42535049670E+02 -0.26294672320E+01  0.82145408734E+01  0.47787271548E+02  0.20000002297E+02 0.  0.
         12    1    1    2    0    0 -0.42535049670E+02  0.26294672320E+01 -0.82145408734E+01  0.43400728452E+02  0.00000000000E+00 0. -1.
         11    1    3    3    0    0 -0.15309252716E+01 -0.80511451264E+00  0.36700472060E+00  0.17682291400E+01  0.51100000000E-03 0. -1.
        -11    1    3    3    0    0  0.16361341393E+02 -0.24592083891E+00 -0.21916826764E+01  0.16509313809E+02  0.51100000000E-03 0.  1.
        -12    1    3    3    0    0  0.27704633549E+02 -0.15784318805E+01  0.10039218829E+02  0.29509728599E+02  0.00000000000E+00 0.  1.
</event>
<event>
 7    1  0.1246400E-009  0.4778728E+02  0.7816164E-02  0.1312668E+00
        -11   -1    0    0    0    0  0.00000000000E+00  0.00000000000E+00  0.45593999997E+02  0.45594000000E+02  0.51100000000E-03 0.  1.
         11   -1    0    0    0    0 -0.00000000000E+00 -0.00000000000E+00 -0.45593999997E+02  0.45594000000E+02  0.51100000000E-03 0. -1.
    9900012    2    1    2    0    0  0.41335720622E+02  0.76166472632E+01  0.10815162681E+02  0.47787275827E+02  0.20000021807E+02 0.  0.
         12    1    1    2    0    0 -0.41335720622E+02 -0.76166472632E+01 -0.10815162681E+02  0.43400724173E+02  0.00000000000E+00 0. -1.
         11    1    3    3    0    0  0.22741008815E+02  0.16641798872E+01  0.13682354073E+01  0.22842833559E+02  0.51100000000E-03 0. -1.
        -11    1    3    3    0    0  0.10404126446E+02 -0.18008833852E+01  0.53906224845E+00  0.10572587972E+02  0.51100000000E-03 0.  1.
         12    1    3    3    0    0  0.81905853612E+01  0.77533507612E+01  0.89078650251E+01  0.14371854295E+02  0.00000000000E+00 0. -1.
</event>
<event>
 7    1  0.1246400E-009  0.4778727E+02  0.7816164E-02  0.1312668E+00
        -11   -1    0    0    0    0  0.00000000000E+00  0.00000000000E+00  0.45593999997E+02  0.45594000000E+02  0.51100000000E-03 0. -1.
         11   -1    0    0    0    0 -0.00000000000E+00 -0.00000000000E+00 -0.45593999997E+02  0.45594000000E+02  0.51100000000E-03 0.  1.
    9900012    2    1    2    0    0  0.21403957753E+01 -0.89640084837E+01 -0.42410947215E+02  0.47787272059E+02  0.20000004626E+02 0.  0.
         12    1    1    2    0    0 -0.21403957753E+01  0.89640084837E+01  0.42410947215E+02  0.43400727941E+02  0.00000000000E+00 0. -1.
         11    1    3    3    0    0 -0.50188004185E+01 -0.85076937017E+01 -0.87150840545E+01  0.13172771163E+02  0.51100000000E-03 0. -1.
        -11    1    3    3    0    0  0.45945526985E+01 -0.64148406015E+00 -0.13932040990E+02  0.14684113276E+02  0.51100000000E-03 0.  1.
         12    1    3    3    0    0  0.25646434953E+01  0.18516927814E+00 -0.19763822170E+02  0.19930387620E+02  0.00000000000E+00 0. -1.
</event>
<event>
 7    1  0.1246400E-009  0.4778728E+02  0.7816164E-02  0.1312668E+00
        -11   -1    0    0    0    0  0.00000000000E+00  0.00000000000E+00  0.45593999997E+02  0.45594000000E+02  0.51100000000E-03 0.  1.
         11   -1    0    0    0    0 -0.00000000000E+00 -0.00000000000E+00 -0.45593999997E+02  0.45594000000E+02  0.51100000000E-03 0. -1.
    9900012    2    1    2    0    0  0.34600516046E+02  0.24001371559E+02  0.10505278316E+02  0.47787280883E+02  0.20000044860E+02 0.  0.
         12    1    1    2    0    0 -0.34600516046E+02 -0.24001371559E+02 -0.10505278316E+02  0.43400719117E+02  0.00000000000E+00 0. -1.
         11    1    3    3    0    0  0.14102034515E+01  0.37890496067E+01  0.29710186059E+01  0.50172225897E+01  0.51100000000E-03 0. -1.
        -11    1    3    3    0    0  0.22274171596E+02  0.18525414378E+02  0.11304562374E+02  0.31098598503E+02  0.51100000000E-03 0.  1.
         12    1    3    3    0    0  0.10916140999E+02  0.16869075745E+01 -0.37703026639E+01  0.11671459791E+02  0.00000000000E+00 0. -1.
</event>
<event>
 7    1  0.1246400E-009  0.4778727E+02  0.7816164E-02  0.1312668E+00
        -11   -1    0    0    0    0  0.00000000000E+00  0.00000000000E+00  0.45593999997E+02  0.45594000000E+02  0.51100000000E-03 0.  1.
         11   -1    0    0    0    0 -0.00000000000E+00 -0.00000000000E+00 -0.45593999997E+02  0.45594000000E+02  0.51100000000E-03 0. -1.
    9900012    2    1    2    0    0  0.35450743978E+02 -0.13769315219E+02  0.20911097788E+02  0.47787270733E+02  0.19999998579E+02 0.  0.
         12    1    1    2    0    0 -0.35450743978E+02  0.13769315219E+02 -0.20911097788E+02  0.43400729267E+02  0.00000000000E+00 0. -1.
         11    1    3    3    0    0 -0.54371211062E+00  0.16409409434E+01 -0.27290488680E+00  0.17500821059E+01  0.51100000000E-03 0. -1.
        -11    1    3    3    0    0  0.20110877538E+02 -0.54043732806E+01  0.16808476319E+02  0.26761530643E+02  0.51100000000E-03 0.  1.
        -12    1    3    3    0    0  0.15883578551E+02 -0.10005882882E+02  0.43755263554E+01  0.19275657984E+02  0.00000000000E+00 0.  1.
</event>
<event>
 7    1  0.1246400E-009  0.4778727E+02  0.7816164E-02  0.1312668E+00
        -11   -1    0    0    0    0  0.00000000000E+00  0.00000000000E+00  0.45593999997E+02  0.45594000000E+02  0.51100000000E-03 0. -1.
         11   -1    0    0    0    0 -0.00000000000E+00 -0.00000000000E+00 -0.45593999997E+02  0.45594000000E+02  0.51100000000E-03 0.  1.
    9900012    2    1    2    0    0  0.16828741203E+02  0.26135512743E+02 -0.30287812330E+02  0.47787272673E+02  0.20000007424E+02 0.  0.
         12    1    1    2    0    0 -0.16828741203E+02 -0.26135512743E+02  0.30287812330E+02  0.43400727327E+02  0.00000000000E+00 0. -1.
         11    1    3    3    0    0 -0.16308144857E+01  0.21887944283E+01 -0.74420326001E+01  0.79268043004E+01  0.51100000000E-03 0. -1.
        -11    1    3    3    0    0  0.67332955952E+01  0.40179193053E+01 -0.11965574280E+02  0.14305799985E+02  0.51100000000E-03 0.  1.
        -12    1    3    3    0    0  0.11726260094E+02  0.19928799009E+02 -0.10880205450E+02  0.25554668387E+02  0.00000000000E+00 0.  1.
</event>
<event>
 7    1  0.1246400E-009  0.4778723E+02  0.7816164E-02  0.1312668E+00
        -11   -1    0    0    0    0  0.00000000000E+00  0.00000000000E+00  0.45593999997E+02  0.45594000000E+02  0.51100000000E-03 0.  1.
         11   -1    0    0    0    0 -0.00000000000E+00 -0.00000000000E+00 -0.45593999997E+02  0.45594000000E+02  0.51100000000E-03 0. -1.
    9900012    2    1    2    0    0  0.29518775671E+02  0.22132399137E+02  0.22856623650E+02  0.47787234415E+02  0.19999832991E+02 0.  0.
         12    1    1    2    0    0 -0.29518775671E+02 -0.22132399137E+02 -0.22856623650E+02  0.43400765585E+02  0.00000000000E+00 0. -1.
         11    1    3    3    0    0  0.58356108088E+01  0.70687840285E+01 -0.11654145099E+01  0.92401435267E+01  0.51100000000E-03 0. -1.
        -11    1    3    3    0    0  0.14250570023E+02  0.14241932570E+02  0.12822536805E+02  0.23881558569E+02  0.51100000000E-03 0.  1.
        -12    1    3    3    0    0  0.94325948396E+01  0.82168253828E+00  0.11199501355E+02  0.14665532319E+02  0.00000000000E+00 0.  1.
</event>
<event>
 7    1  0.1246400E-009  0.4778727E+02  0.7816164E-02  0.1312668E+00
        -11   -1    0    0    0    0  0.00000000000E+00  0.00000000000E+00  0.45593999997E+02  0.45594000000E+02  0.51100000000E-03 0. -1.
         11   -1    0    0    0    0 -0.00000000000E+00 -0.00000000000E+00 -0.45593999997E+02  0.45594000000E+02  0.51100000000E-03 0.  1.
    9900012    2    1    2    0    0 -0.10595205872E+02 -0.33584911740E+02 -0.25365701038E+02  0.47787268748E+02  0.19999989532E+02 0.  0.
         12    1    1    2    0    0  0.10595205872E+02  0.33584911740E+02  0.25365701038E+02  0.43400731252E+02  0.00000000000E+00 0. -1.
         11    1    3    3    0    0 -0.49203207173E+01 -0.96934219835E+00 -0.39321586041E+01  0.63726801118E+01  0.51100000000E-03 0. -1.
        -11    1    3    3    0    0  0.26089902395E+01 -0.93105988984E+01 -0.10789050051E+02  0.14487846051E+02  0.51100000000E-03 0.  1.
         12    1    3    3    0    0 -0.82838753941E+01 -0.23304970643E+02 -0.10644492383E+02  0.26926742586E+02  0.00000000000E+00 0. -1.
</event>
<event>
 7    1  0.1246400E-009  0.4778727E+02  0.7816164E-02  0.1312668E+00
        -11   -1    0    0    0    0  0.00000000000E+00  0.00000000000E+00  0.45593999997E+02  0.45594000000E+02  0.51100000000E-03 0.  1.
         11   -1    0    0    0    0 -0.00000000000E+00 -0.00000000000E+00 -0.45593999997E+02  0.45594000000E+02  0.51100000000E-03 0. -1.
    9900012    2    1    2    0    0 -0.85590375066E+01 -0.57720702405E+01  0.42155063951E+02  0.47787270345E+02  0.19999996812E+02 0.  0.
         12    1    1    2    0    0  0.85590375066E+01  0.57720702405E+01 -0.42155063951E+02  0.43400729655E+02  0.00000000000E+00 0. -1.
         11    1    3    3    0    0 -0.19832169002E+01 -0.23243274123E+01  0.79837189972E+00  0.31580128474E+01  0.51100000000E-03 0. -1.
        -11    1    3    3    0    0 -0.70384380474E+01 -0.81212439101E+01  0.35671372335E+02  0.37255080423E+02  0.51100000000E-03 0.  1.
        -12    1    3    3    0    0  0.46261744111E+00  0.46735010819E+01  0.56853197158E+01  0.73741770748E+01  0.00000000000E+00 0.  1.
</event>
<event>
 7    1  0.1246400E-009  0.4778728E+02  0.7816164E-02  0.1312668E+00
        -11   -1    0    0    0    0  0.00000000000E+00  0.00000000000E+00  0.45593999997E+02  0.45594000000E+02  0.51100000000E-03 0.  1.
         11   -1    0    0    0    0 -0.00000000000E+00 -0.00000000000E+00 -0.45593999997E+02  0.45594000000E+02  0.51100000000E-03 0. -1.
    9900012    2    1    2    0    0  0.13130377490E+02 -0.35312571022E+02  0.21546191208E+02  0.47787276034E+02  0.20000022751E+02 0.  0.
         12    1    1    2    0    0 -0.13130377490E+02  0.35312571022E+02 -0.21546191208E+02  0.43400723966E+02  0.00000000000E+00 0. -1.
         11    1    3    3    0    0 -0.86453738847E+00 -0.89724783264E+01 -0.20460376449E+01  0.92433252956E+01  0.51100000000E-03 0. -1.
        -11    1    3    3    0    0  0.40805584442E+01 -0.14361833285E+02  0.11411098882E+02  0.18791657470E+02  0.51100000000E-03 0.  1.
         12    1    3    3    0    0  0.99143564340E+01 -0.11978259410E+02  0.12181129971E+02  0.19752293268E+02  0.00000000000E+00 0. -1.
</event>
<event>
 7    1  0.1246400E-009  0.4778727E+02  0.7816164E-02  0.1312668E+00
        -11   -1    0    0    0    0  0.00000000000E+00  0.00000000000E+00  0.45593999997E+02  0.45594000000E+02  0.51100000000E-03 0. -1.
         11   -1    0    0    0    0 -0.00000000000E+00 -0.00000000000E+00 -0.45593999997E+02  0.45594000000E+02  0.51100000000E-03 0.  1.
    9900012    2    1    2    0    0  0.63590683298E+01  0.40793763577E+02 -0.13381109785E+02  0.47787274247E+02  0.20000014601E+02 0.  0.
         12    1    1    2    0    0 -0.63590683298E+01 -0.40793763577E+02  0.13381109785E+02  0.43400725753E+02  0.00000000000E+00 0. -1.
         11    1    3    3    0    0  0.96767516269E+01  0.33746498941E+02 -0.92139157031E+01  0.36295481202E+02  0.51100000000E-03 0. -1.
        -11    1    3    3    0    0 -0.18658364383E+01  0.44080008261E+01  0.15485502218E+01  0.50308870935E+01  0.51100000000E-03 0.  1.
         12    1    3    3    0    0 -0.14518468588E+01  0.26392638099E+01 -0.57157443041E+01  0.64609059512E+01  0.00000000000E+00 0. -1.
</event>
<event>
 7    1  0.1246400E-009  0.4778727E+02  0.7816164E-02  0.1312668E+00
        -11   -1    0    0    0    0  0.00000000000E+00  0.00000000000E+00  0.45593999997E+02  0.45594000000E+02  0.51100000000E-03 0.  1.
         11   -1    0    0    0    0 -0.00000000000E+00 -0.00000000000E+00 -0.45593999997E+02  0.45594000000E+02  0.51100000000E-03 0. -1.
    9900012    2    1    2    0    0  0.35806576075E+02 -0.15132052460E+02  0.19301131678E+02  0.47787267450E+02  0.19999983610E+02 0.  0.
         12    1    1    2    0    0 -0.35806576075E+02  0.15132052460E+02 -0.19301131678E+02  0.43400732550E+02  0.00000000000E+00 0. -1.
         11    1    3    3    0    0  0.19521060694E+02 -0.73676871025E+01  0.58237328788E+01  0.21662651933E+02  0.51100000000E-03 0. -1.
        -11    1    3    3    0    0  0.13581242280E+02 -0.10393774682E+02  0.14266188299E+02  0.22271165727E+02  0.51100000000E-03 0.  1.
        -12    1    3    3    0    0  0.27042731009E+01  0.26294093254E+01 -0.78878949976E+00  0.38534497895E+01  0.00000000000E+00 0.  1.
</event>
<event>
 7    1  0.1246400E-009  0.4778727E+02  0.7816164E-02  0.1312668E+00
        -11   -1    0    0    0    0  0.00000000000E+00  0.00000000000E+00  0.45593999997E+02  0.45594000000E+02  0.51100000000E-03 0.  1.
         11   -1    0    0    0    0 -0.00000000000E+00 -0.00000000000E+00 -0.45593999997E+02  0.45594000000E+02  0.51100000000E-03 0. -1.
    9900012    2    1    2    0    0 -0.21417881623E+02  0.15985360454E+02  0.34195992604E+02  0.47787270602E+02  0.19999997984E+02 0.  0.
         12    1    1    2    0    0  0.21417881623E+02 -0.15985360454E+02 -0.34195992604E+02  0.43400729398E+02  0.00000000000E+00 0. -1.
         11    1    3    3    0    0 -0.62649051514E+01  0.19907160224E+00 -0.25603194432E+00  0.62732940850E+01  0.51100000000E-03 0. -1.
        -11    1    3    3    0    0 -0.11717106888E+02  0.73080254015E+01  0.23357601019E+02  0.27134394312E+02  0.51100000000E-03 0.  1.
        -12    1    3    3    0    0 -0.34358695838E+01  0.84782634508E+01  0.11094423529E+02  0.14379582205E+02  0.00000000000E+00 0.  1.
</event>
<event>
 7    1  0.1246400E-009  0.4778728E+02  0.7816164E-02  0.1312668E+00
        -11   -1    0    0    0    0  0.00000000000E+00  0.00000000000E+00  0.45593999997E+02  0.45594000000E+02  0.51100000000E-03 0.  1.
         11   -1    0    0    0    0 -0.00000000000E+00 -0.00000000000E+00 -0.45593999997E+02  0.45594000000E+02  0.51100000000E-03 0. -1.
    9900012    2    1    2    0    0  0.36463819937E+02  0.19721384354E+01  0.23454707883E+02  0.47787276316E+02  0.20000024035E+02 0.  0.
         12    1    1    2    0    0 -0.36463819937E+02 -0.19721384354E+01 -0.23454707883E+02  0.43400723684E+02  0.00000000000E+00 0. -1.
         11    1    3    3    0    0  0.20287020456E+02 -0.20591713497E+01  0.60099196108E+01  0.21258469363E+02  0.51100000000E-03 0. -1.
        -11    1    3    3    0    0  0.15759276841E+02  0.34558035389E+01  0.98544197181E+01  0.18905210205E+02  0.51100000000E-03 0.  1.
         12    1    3    3    0    0  0.41752263934E+00  0.57550624626E+00  0.75903685540E+01  0.76235967482E+01  0.00000000000E+00 0. -1.
</event>
<event>
 7    1  0.1246400E-009  0.4778727E+02  0.7816164E-02  0.1312668E+00
        -11   -1    0    0    0    0  0.00000000000E+00  0.00000000000E+00  0.45593999997E+02  0.45594000000E+02  0.51100000000E-03 0. -1.
         11   -1    0    0    0    0 -0.00000000000E+00 -0.00000000000E+00 -0.45593999997E+02  0.45594000000E+02  0.51100000000E-03 0.  1.
    9900012    2    1    2    0    0 -0.36007495262E+01 -0.25712416470E+02 -0.34778295171E+02  0.47787267600E+02  0.19999984293E+02 0.  0.
         12    1    1    2    0    0  0.36007495262E+01  0.25712416470E+02  0.34778295171E+02  0.43400732400E+02  0.00000000000E+00 0. -1.
         11    1    3    3    0    0 -0.53150220312E+00 -0.15117220416E+02 -0.64972216711E+01  0.16462889704E+02  0.51100000000E-03 0. -1.
        -11    1    3    3    0    0  0.34805410445E-01  0.11358380351E+01 -0.43039479755E+01  0.44514388568E+01  0.51100000000E-03 0.  1.
         12    1    3    3    0    0 -0.31040527336E+01 -0.11731034090E+02 -0.23977125525E+02  0.26872939039E+02  0.00000000000E+00 0. -1.
</event>
<event>
 7    1  0.1246400E-009  0.4778727E+02  0.7816164E-02  0.1312668E+00
        -11   -1    0    0    0    0  0.00000000000E+00  0.00000000000E+00  0.45593999997E+02  0.45594000000E+02  0.51100000000E-03 0.  1.
         11   -1    0    0    0    0 -0.00000000000E+00 -0.00000000000E+00 -0.45593999997E+02  0.45594000000E+02  0.51100000000E-03 0. -1.
    9900012    2    1    2    0    0  0.26918035342E+02 -0.16689614928E+02  0.29673208156E+02  0.47787272410E+02  0.20000006224E+02 0.  0.
         12    1    1    2    0    0 -0.26918035342E+02  0.16689614928E+02 -0.29673208156E+02  0.43400727590E+02  0.00000000000E+00 0. -1.
         11    1    3    3    0    0  0.17971326258E+02 -0.93467432123E+01  0.11260275311E+02  0.23175935288E+02  0.51100000000E-03 0. -1.
        -11    1    3    3    0    0  0.36991698294E+01 -0.94357701426E+01  0.86168230384E+01  0.13302904012E+02  0.51100000000E-03 0.  1.
         12    1    3    3    0    0  0.52475392548E+01  0.20928984265E+01  0.97961098065E+01  0.11308433110E+02  0.00000000000E+00 0. -1.
</event>
<event>
 7    1  0.1246400E-009  0.4778727E+02  0.7816164E-02  0.1312668E+00
        -11   -1    0    0    0    0  0.00000000000E+00  0.00000000000E+00  0.45593999997E+02  0.45594000000E+02  0.51100000000E-03 0. -1.
         11   -1    0    0    0    0 -0.00000000000E+00 -0.00000000000E+00 -0.45593999997E+02  0.45594000000E+02  0.51100000000E-03 0.  1.
    9900012    2    1    2    0    0  0.75403344344E+01  0.42261991985E+02 -0.63789113619E+01  0.47787272816E+02  0.20000008079E+02 0.  0.
         12    1    1    2    0    0 -0.75403344344E+01 -0.42261991985E+02  0.63789113619E+01  0.43400727184E+02  0.00000000000E+00 0. -1.
         11    1    3    3    0    0 -0.15722754184E+01  0.34591211732E+01 -0.80009540907E+00  0.38830042760E+01  0.51100000000E-03 0. -1.
        -11    1    3    3    0    0  0.45032581005E+01  0.38179891877E+02 -0.29404910884E+01  0.38556840708E+02  0.51100000000E-03 0.  1.
        -12    1    3    3    0    0  0.46093517523E+01  0.62297893417E+00 -0.26383248645E+01  0.53474278321E+01  0.00000000000E+00 0.  1.
</event>
<event>
 7    1  0.1246400E-009  0.4778727E+02  0.7816164E-02  0.1312668E+00
        -11   -1    0    0    0    0  0.00000000000E+00  0.00000000000E+00  0.45593999997E+02  0.45594000000E+02  0.51100000000E-03 0.  1.
         11   -1    0    0    0    0 -0.00000000000E+00 -0.00000000000E+00 -0.45593999997E+02  0.45594000000E+02  0.51100000000E-03 0. -1.
    9900012    2    1    2    0    0 -0.11255034720E+02  0.39047365838E+02  0.15239767209E+02  0.47787273163E+02  0.20000009660E+02 0.  0.
         12    1    1    2    0    0  0.11255034720E+02 -0.39047365838E+02 -0.15239767209E+02  0.43400726837E+02  0.00000000000E+00 0. -1.
         11    1    3    3    0    0  0.22340952485E+01  0.13100437390E+02  0.42097730485E+01  0.13940402820E+02  0.51100000000E-03 0. -1.
        -11    1    3    3    0    0 -0.50551473528E+01  0.18040460234E+02  0.13764629767E+01  0.18785828989E+02  0.51100000000E-03 0.  1.
         12    1    3    3    0    0 -0.84339826158E+01  0.79064682134E+01  0.96535311835E+01  0.15061041355E+02  0.00000000000E+00 0. -1.
</event>
<event>
 7    1  0.1246400E-009  0.4778727E+02  0.7816164E-02  0.1312668E+00
        -11   -1    0    0    0    0  0.00000000000E+00  0.00000000000E+00  0.45593999997E+02  0.45594000000E+02  0.51100000000E-03 0.  1.
         11   -1    0    0    0    0 -0.00000000000E+00 -0.00000000000E+00 -0.45593999997E+02  0.45594000000E+02  0.51100000000E-03 0. -1.
    9900012    2    1    2    0    0  0.22951345618E+02 -0.30747043050E+02 -0.20284926660E+02  0.47787272223E+02  0.20000005375E+02 0.  0.
         12    1    1    2    0    0 -0.22951345618E+02  0.30747043050E+02  0.20284926660E+02  0.43400727777E+02  0.00000000000E+00 0. -1.
         11    1    3    3    0    0  0.19069516946E+01 -0.99104699678E+01 -0.55551372846E+01  0.11520131521E+02  0.51100000000E-03 0.  1.
        -11    1    3    3    0    0  0.14802440167E+02 -0.53126482441E+01 -0.34868977201E+01  0.16108846086E+02  0.51100000000E-03 0. -1.
         12    1    3    3    0    0  0.62419537561E+01 -0.15523924838E+02 -0.11242891655E+02  0.20158294616E+02  0.00000000000E+00 0. -1.
</event>
<event>
 7    1  0.1246400E-009  0.4778727E+02  0.7816164E-02  0.1312668E+00
        -11   -1    0    0    0    0  0.00000000000E+00  0.00000000000E+00  0.45593999997E+02  0.45594000000E+02  0.51100000000E-03 0.  1.
         11   -1    0    0    0    0 -0.00000000000E+00 -0.00000000000E+00 -0.45593999997E+02  0.45594000000E+02  0.51100000000E-03 0. -1.
    9900012    2    1    2    0    0  0.24940359415E+02 -0.29330722150E+02  0.20032731250E+02  0.47787272922E+02  0.20000008559E+02 0.  0.
         12    1    1    2    0    0 -0.24940359415E+02  0.29330722150E+02 -0.20032731250E+02  0.43400727078E+02  0.00000000000E+00 0. -1.
         11    1    3    3    0    0  0.13631353008E+01 -0.85001676101E+01  0.84377609942E+01  0.12054326945E+02  0.51100000000E-03 0. -1.
        -11    1    3    3    0    0  0.20227588891E+02 -0.17166905837E+02  0.14237602403E+02  0.30109256563E+02  0.51100000000E-03 0.  1.
         12    1    3    3    0    0  0.33496352229E+01 -0.36636487035E+01 -0.26426321470E+01  0.56236894130E+01  0.00000000000E+00 0. -1.
</event>
<event>
 7    1  0.1246400E-009  0.4778727E+02  0.7816164E-02  0.1312668E+00
        -11   -1    0    0    0    0  0.00000000000E+00  0.00000000000E+00  0.45593999997E+02  0.45594000000E+02  0.51100000000E-03 0. -1.
         11   -1    0    0    0    0 -0.00000000000E+00 -0.00000000000E+00 -0.45593999997E+02  0.45594000000E+02  0.51100000000E-03 0.  1.
    9900012    2    1    2    0    0  0.10661649091E+02  0.38157549684E+02 -0.17718739177E+02  0.47787273309E+02  0.20000010326E+02 0.  0.
         12    1    1    2    0    0 -0.10661649091E+02 -0.38157549684E+02  0.17718739177E+02  0.43400726691E+02  0.00000000000E+00 0. -1.
         11    1    3    3    0    0  0.77410145554E+01  0.18608694465E+02  0.70461288094E+00  0.20166886115E+02  0.51100000000E-03 0. -1.
        -11    1    3    3    0    0  0.37238661480E+01  0.13932110822E+02 -0.10342389176E+02  0.17746433591E+02  0.51100000000E-03 0.  1.
        -12    1    3    3    0    0 -0.80323161232E+00  0.56167443974E+01 -0.80809628825E+01  0.98739536031E+01  0.00000000000E+00 0.  1.
</event>
<event>
 7    1  0.1246400E-009  0.4778727E+02  0.7816164E-02  0.1312668E+00
        -11   -1    0    0    0    0  0.00000000000E+00  0.00000000000E+00  0.45593999997E+02  0.45594000000E+02  0.51100000000E-03 0. -1.
         11   -1    0    0    0    0 -0.00000000000E+00 -0.00000000000E+00 -0.45593999997E+02  0.45594000000E+02  0.51100000000E-03 0.  1.
    9900012    2    1    2    0    0 -0.17800328237E+02  0.26124177074E+02 -0.29737167540E+02  0.47787269056E+02  0.19999990936E+02 0.  0.
         12    1    1    2    0    0  0.17800328237E+02 -0.26124177074E+02  0.29737167540E+02  0.43400730944E+02  0.00000000000E+00 0. -1.
         11    1    3    3    0    0 -0.12678385107E+01  0.56993962748E+01  0.16591045446E+01  0.60698567147E+01  0.51100000000E-03 0. -1.
        -11    1    3    3    0    0  0.77166238318E+00  0.35996481384E+00 -0.40236459047E+00  0.94177227906E+00  0.51100000000E-03 0.  1.
        -12    1    3    3    0    0 -0.17304152110E+02  0.20064815985E+02 -0.30993907494E+02  0.40775640063E+02  0.00000000000E+00 0.  1.
</event>
<event>
 7    1  0.1246400E-009  0.4778728E+02  0.7816164E-02  0.1312668E+00
        -11   -1    0    0    0    0  0.00000000000E+00  0.00000000000E+00  0.45593999997E+02  0.45594000000E+02  0.51100000000E-03 0. -1.
         11   -1    0    0    0    0 -0.00000000000E+00 -0.00000000000E+00 -0.45593999997E+02  0.45594000000E+02  0.51100000000E-03 0.  1.
    9900012    2    1    2    0    0 -0.39785464136E+02 -0.12689910412E+02  0.11819714798E+02  0.47787278340E+02  0.20000033262E+02 0.  0.
         12    1    1    2    0    0  0.39785464136E+02  0.12689910412E+02 -0.11819714798E+02  0.43400721660E+02  0.00000000000E+00 0. -1.
         11    1    3    3    0    0 -0.60470960739E+01  0.25108322061E+00  0.57814986410E+01  0.83699546299E+01  0.51100000000E-03 0. -1.
        -11    1    3    3    0    0 -0.29919972656E+02 -0.56160306250E+01  0.28979547838E+01  0.30580103105E+02  0.51100000000E-03 0.  1.
        -12    1    3    3    0    0 -0.38183954061E+01 -0.73249630073E+01  0.31402613730E+01  0.88372206052E+01  0.00000000000E+00 0.  1.
</event>
<event>
 7    1  0.1246400E-009  0.4778726E+02  0.7816164E-02  0.1312668E+00
        -11   -1    0    0    0    0  0.00000000000E+00  0.00000000000E+00  0.45593999997E+02  0.45594000000E+02  0.51100000000E-03 0.  1.
         11   -1    0    0    0    0 -0.00000000000E+00 -0.00000000000E+00 -0.45593999997E+02  0.45594000000E+02  0.51100000000E-03 0. -1.
    9900012    2    1    2    0    0  0.21131533239E+02  0.25479000548E+02  0.28069609686E+02  0.47787260906E+02  0.19999953776E+02 0.  0.
         12    1    1    2    0    0 -0.21131533239E+02 -0.25479000548E+02 -0.28069609686E+02  0.43400739094E+02  0.00000000000E+00 0. -1.
         11    1    3    3    0    0 -0.16049413064E+01 -0.15138537034E+01  0.49161267986E+01  0.53884963203E+01  0.51100000000E-03 0. -1.
        -11    1    3    3    0    0  0.11771354192E+02  0.12706857656E+02  0.13533270616E+02  0.21981319906E+02  0.51100000000E-03 0.  1.
         12    1    3    3    0    0  0.10965120354E+02  0.14285996595E+02  0.96202122709E+01  0.20417444680E+02  0.00000000000E+00 0. -1.
</event>
<event>
 7    1  0.1246400E-009  0.4778729E+02  0.7816164E-02  0.1312668E+00
        -11   -1    0    0    0    0  0.00000000000E+00  0.00000000000E+00  0.45593999997E+02  0.45594000000E+02  0.51100000000E-03 0. -1.
         11   -1    0    0    0    0 -0.00000000000E+00 -0.00000000000E+00 -0.45593999997E+02  0.45594000000E+02  0.51100000000E-03 0.  1.
    9900012    2    1    2    0    0  0.38366424465E+02  0.59349736376E+01  0.19401428456E+02  0.47787287282E+02  0.20000074032E+02 0.  0.
         12    1    1    2    0    0 -0.38366424465E+02 -0.59349736376E+01 -0.19401428456E+02  0.43400712718E+02  0.00000000000E+00 0. -1.
         11    1    3    3    0    0  0.81532865914E+01 -0.37519762844E+01  0.14475519803E+01  0.90911393828E+01  0.51100000000E-03 0. -1.
        -11    1    3    3    0    0  0.49268782630E+01 -0.18828131295E+00 -0.16634722143E+01  0.52035295079E+01  0.51100000000E-03 0.  1.
        -12    1    3    3    0    0  0.25286259611E+02  0.98752312349E+01  0.19617348690E+02  0.33492618391E+02  0.00000000000E+00 0.  1.
</event>
<event>
 7    1  0.1246400E-009  0.4778728E+02  0.7816164E-02  0.1312668E+00
        -11   -1    0    0    0    0  0.00000000000E+00  0.00000000000E+00  0.45593999997E+02  0.45594000000E+02  0.51100000000E-03 0.  1.
         11   -1    0    0    0    0 -0.00000000000E+00 -0.00000000000E+00 -0.45593999997E+02  0.45594000000E+02  0.51100000000E-03 0. -1.
    9900012    2    1    2    0    0  0.12825333738E+01 -0.29443291972E+02  0.31860164569E+02  0.47787280877E+02  0.20000044830E+02 0.  0.
         12    1    1    2    0    0 -0.12825333738E+01  0.29443291972E+02 -0.31860164569E+02  0.43400719123E+02  0.00000000000E+00 0. -1.
         11    1    3    3    0    0  0.19282102519E+01 -0.10919926625E+02  0.17260872620E+02  0.20515860112E+02  0.51100000000E-03 0.  1.
        -11    1    3    3    0    0 -0.18485110585E+01 -0.20564937522E+02  0.12767557116E+02  0.24276411666E+02  0.51100000000E-03 0. -1.
        -12    1    3    3    0    0  0.12028341804E+01  0.20415721737E+01  0.18317348335E+01  0.29950090995E+01  0.00000000000E+00 0.  1.
</event>
<event>
 7    1  0.1246400E-009  0.4778727E+02  0.7816164E-02  0.1312668E+00
        -11   -1    0    0    0    0  0.00000000000E+00  0.00000000000E+00  0.45593999997E+02  0.45594000000E+02  0.51100000000E-03 0. -1.
         11   -1    0    0    0    0 -0.00000000000E+00 -0.00000000000E+00 -0.45593999997E+02  0.45594000000E+02  0.51100000000E-03 0.  1.
    9900012    2    1    2    0    0  0.43214730406E+02  0.38961596048E+01 -0.96478326618E+00  0.47787265093E+02  0.19999972863E+02 0.  0.
         12    1    1    2    0    0 -0.43214730406E+02 -0.38961596048E+01  0.96478326618E+00  0.43400734907E+02  0.00000000000E+00 0. -1.
         11    1    3    3    0    0  0.19992144561E+02 -0.57132442143E+01 -0.19047729360E+01  0.20879539358E+02  0.51100000000E-03 0. -1.
        -11    1    3    3    0    0  0.97406875069E+01  0.86916552221E+00 -0.32463704468E+01  0.10304143009E+02  0.51100000000E-03 0.  1.
        -12    1    3    3    0    0  0.13481898338E+02  0.87402382969E+01  0.41863601167E+01  0.16603582725E+02  0.00000000000E+00 0.  1.
</event>
<event>
 7    1  0.1246400E-009  0.4778727E+02  0.7816164E-02  0.1312668E+00
        -11   -1    0    0    0    0  0.00000000000E+00  0.00000000000E+00  0.45593999997E+02  0.45594000000E+02  0.51100000000E-03 0. -1.
         11   -1    0    0    0    0 -0.00000000000E+00 -0.00000000000E+00 -0.45593999997E+02  0.45594000000E+02  0.51100000000E-03 0.  1.
    9900012    2    1    2    0    0  0.20921620344E+02 -0.29885355139E+02 -0.23511159146E+02  0.47787271274E+02  0.20000001046E+02 0.  0.
         12    1    1    2    0    0 -0.20921620344E+02  0.29885355139E+02  0.23511159146E+02  0.43400728726E+02  0.00000000000E+00 0. -1.
         11    1    3    3    0    0  0.52260665906E+01 -0.11896594261E+02 -0.15044355225E+02  0.19878967564E+02  0.51100000000E-03 0. -1.
        -11    1    3    3    0    0  0.16661691373E+02 -0.12818919195E+02 -0.84280678238E+01  0.22648818429E+02  0.51100000000E-03 0.  1.
         12    1    3    3    0    0 -0.96613761942E+00 -0.51698416833E+01 -0.38736096441E-01  0.52594852804E+01  0.00000000000E+00 0. -1.
</event>
<event>
 7    1  0.1246400E-009  0.4778727E+02  0.7816164E-02  0.1312668E+00
        -11   -1    0    0    0    0  0.00000000000E+00  0.00000000000E+00  0.45593999997E+02  0.45594000000E+02  0.51100000000E-03 0.  1.
         11   -1    0    0    0    0 -0.00000000000E+00 -0.00000000000E+00 -0.45593999997E+02  0.45594000000E+02  0.51100000000E-03 0. -1.
    9900012    2    1    2    0    0  0.10389506711E+02 -0.34542792430E+02  0.24134553153E+02  0.47787274033E+02  0.20000013626E+02 0.  0.
         12    1    1    2    0    0 -0.10389506711E+02  0.34542792430E+02 -0.24134553153E+02  0.43400725967E+02  0.00000000000E+00 0. -1.
         11    1    3    3    0    0 -0.58102210867E-01 -0.21901786849E+01  0.51332421831E+01  0.55812573951E+01  0.51100000000E-03 0. -1.
        -11    1    3    3    0    0  0.11267879955E+02 -0.18066434316E+02  0.43617121480E+01  0.21734435827E+02  0.51100000000E-03 0.  1.
        -12    1    3    3    0    0 -0.82027103347E+00 -0.14286179429E+02  0.14639598822E+02  0.20471580811E+02  0.00000000000E+00 0.  1.
</event>
<event>
 7    1  0.1246400E-009  0.4778727E+02  0.7816164E-02  0.1312668E+00
        -11   -1    0    0    0    0  0.00000000000E+00  0.00000000000E+00  0.45593999997E+02  0.45594000000E+02  0.51100000000E-03 0.  1.
         11   -1    0    0    0    0 -0.00000000000E+00 -0.00000000000E+00 -0.45593999997E+02  0.45594000000E+02  0.51100000000E-03 0. -1.
    9900012    2    1    2    0    0 -0.18760768282E+02  0.44383467762E+01  0.38883904767E+02  0.47787269608E+02  0.19999993451E+02 0.  0.
         12    1    1    2    0    0  0.18760768282E+02 -0.44383467762E+01 -0.38883904767E+02  0.43400730392E+02  0.00000000000E+00 0. -1.
         11    1    3    3    0    0  0.17473545428E+01 -0.17775947619E+01  0.29142345610E+01  0.38348212961E+01  0.51100000000E-03 0. -1.
        -11    1    3    3    0    0 -0.21457439319E+02  0.44509683081E+01  0.35755816987E+02  0.41936991662E+02  0.51100000000E-03 0.  1.
         12    1    3    3    0    0  0.94931649418E+00  0.17649732299E+01  0.21385321913E+00  0.20154566499E+01  0.00000000000E+00 0. -1.
</event>
<event>
 7    1  0.1246400E-009  0.4778727E+02  0.7816164E-02  0.1312668E+00
        -11   -1    0    0    0    0  0.00000000000E+00  0.00000000000E+00  0.45593999997E+02  0.45594000000E+02  0.51100000000E-03 0.  1.
         11   -1    0    0    0    0 -0.00000000000E+00 -0.00000000000E+00 -0.45593999997E+02  0.45594000000E+02  0.51100000000E-03 0. -1.
    9900012    2    1    2    0    0 -0.31566766342E+01  0.14726575153E+02  0.40703644276E+02  0.47787270969E+02  0.19999999655E+02 0.  0.
         12    1    1    2    0    0  0.31566766342E+01 -0.14726575153E+02 -0.40703644276E+02  0.43400729031E+02  0.00000000000E+00 0. -1.
         11    1    3    3    0    0 -0.13623836320E+01 -0.16576536143E+01  0.75151742070E+01  0.78154813216E+01  0.51100000000E-03 0. -1.
        -11    1    3    3    0    0  0.64314355768E+01  0.98112809020E+01  0.18255768011E+02  0.21700176553E+02  0.51100000000E-03 0.  1.
        -12    1    3    3    0    0 -0.82257285789E+01  0.65729478649E+01  0.14932702058E+02  0.18271613094E+02  0.00000000000E+00 0.  1.
</event>
<event>
 7    1  0.1246400E-009  0.4778727E+02  0.7816164E-02  0.1312668E+00
        -11   -1    0    0    0    0  0.00000000000E+00  0.00000000000E+00  0.45593999997E+02  0.45594000000E+02  0.51100000000E-03 0.  1.
         11   -1    0    0    0    0 -0.00000000000E+00 -0.00000000000E+00 -0.45593999997E+02  0.45594000000E+02  0.51100000000E-03 0. -1.
    9900012    2    1    2    0    0  0.20980793142E+02  0.14928428261E+02  0.34936682351E+02  0.47787269305E+02  0.19999992067E+02 0.  0.
         12    1    1    2    0    0 -0.20980793142E+02 -0.14928428261E+02 -0.34936682351E+02  0.43400730695E+02  0.00000000000E+00 0. -1.
         11    1    3    3    0    0  0.31261150905E+01  0.49555402409E+01  0.30150923744E+01  0.65894428387E+01  0.51100000000E-03 0.  1.
        -11    1    3    3    0    0  0.18036501560E+02  0.61598868498E+01  0.32148672892E+02  0.37373744306E+02  0.51100000000E-03 0. -1.
         12    1    3    3    0    0 -0.18182350794E+00  0.38130011703E+01 -0.22708291520E+00  0.38240821596E+01  0.00000000000E+00 0. -1.
</event>
<event>
 7    1  0.1246400E-009  0.4778727E+02  0.7816164E-02  0.1312668E+00
        -11   -1    0    0    0    0  0.00000000000E+00  0.00000000000E+00  0.45593999997E+02  0.45594000000E+02  0.51100000000E-03 0. -1.
         11   -1    0    0    0    0 -0.00000000000E+00 -0.00000000000E+00 -0.45593999997E+02  0.45594000000E+02  0.51100000000E-03 0.  1.
    9900012    2    1    2    0    0  0.16323998610E+02 -0.95238952781E+01 -0.39069755800E+02  0.47787270397E+02  0.19999997046E+02 0.  0.
         12    1    1    2    0    0 -0.16323998610E+02  0.95238952781E+01  0.39069755800E+02  0.43400729603E+02  0.00000000000E+00 0. -1.
         11    1    3    3    0    0  0.13180510082E+01 -0.21523856400E+01  0.13150837333E+01  0.28459564105E+01  0.51100000000E-03 0. -1.
        -11    1    3    3    0    0  0.36869916256E+01 -0.23893687867E+01 -0.24077156865E+02  0.24474731325E+02  0.51100000000E-03 0.  1.
         12    1    3    3    0    0  0.11318955976E+02 -0.49821408515E+01 -0.16307682668E+02  0.20466582661E+02  0.00000000000E+00 0. -1.
</event>
<event>
 7    1  0.1246400E-009  0.4778728E+02  0.7816164E-02  0.1312668E+00
        -11   -1    0    0    0    0  0.00000000000E+00  0.00000000000E+00  0.45593999997E+02  0.45594000000E+02  0.51100000000E-03 0.  1.
         11   -1    0    0    0    0 -0.00000000000E+00 -0.00000000000E+00 -0.45593999997E+02  0.45594000000E+02  0.51100000000E-03 0. -1.
    9900012    2    1    2    0    0 -0.41196610239E+02  0.97766845489E+01  0.95330200830E+01  0.47787277335E+02  0.20000028681E+02 0.  0.
         12    1    1    2    0    0  0.41196610239E+02 -0.97766845489E+01 -0.95330200830E+01  0.43400722665E+02  0.00000000000E+00 0. -1.
         11    1    3    3    0    0  0.10067039925E+01 -0.53371186828E-02  0.31844858518E+00  0.10558840731E+01  0.51100000000E-03 0. -1.
        -11    1    3    3    0    0 -0.34863437524E+02  0.89313221197E+01  0.14581439550E+01  0.36018800297E+02  0.51100000000E-03 0.  1.
         12    1    3    3    0    0 -0.73398767071E+01  0.85069954791E+00  0.77564275428E+01  0.10712592965E+02  0.00000000000E+00 0. -1.
</event>
<event>
 7    1  0.1246400E-009  0.4778727E+02  0.7816164E-02  0.1312668E+00
        -11   -1    0    0    0    0  0.00000000000E+00  0.00000000000E+00  0.45593999997E+02  0.45594000000E+02  0.51100000000E-03 0. -1.
         11   -1    0    0    0    0 -0.00000000000E+00 -0.00000000000E+00 -0.45593999997E+02  0.45594000000E+02  0.51100000000E-03 0.  1.
    9900012    2    1    2    0    0  0.32136603992E+02  0.19195072064E+02 -0.21963861207E+02  0.47787270665E+02  0.19999998270E+02 0.  0.
         12    1    1    2    0    0 -0.32136603992E+02 -0.19195072064E+02  0.21963861207E+02  0.43400729335E+02  0.00000000000E+00 0. -1.
         11    1    3    3    0    0  0.11036718307E+02  0.10022935587E+02 -0.72523499093E+01  0.16579052091E+02  0.51100000000E-03 0.  1.
        -11    1    3    3    0    0  0.92011271997E+01  0.11361593303E+02 -0.42803916398E+01  0.15233788005E+02  0.51100000000E-03 0. -1.
         12    1    3    3    0    0  0.11898758486E+02 -0.21894568261E+01 -0.10431119658E+02  0.15974430569E+02  0.00000000000E+00 0. -1.
</event>
<event>
 7    1  0.1246400E-009  0.4778727E+02  0.7816164E-02  0.1312668E+00
        -11   -1    0    0    0    0  0.00000000000E+00  0.00000000000E+00  0.45593999997E+02  0.45594000000E+02  0.51100000000E-03 0.  1.
         11   -1    0    0    0    0 -0.00000000000E+00 -0.00000000000E+00 -0.45593999997E+02  0.45594000000E+02  0.51100000000E-03 0. -1.
    9900012    2    1    2    0    0  0.57517894609E+01 -0.17796617860E+01  0.42981078717E+02  0.47787269525E+02  0.19999993073E+02 0.  0.
         12    1    1    2    0    0 -0.57517894609E+01  0.17796617860E+01 -0.42981078717E+02  0.43400730475E+02  0.00000000000E+00 0. -1.
         11    1    3    3    0    0  0.15646921747E+01  0.81650395712E+00 -0.15381075164E+01  0.23410927591E+01  0.51100000000E-03 0. -1.
        -11    1    3    3    0    0  0.17752782571E+00 -0.44731015684E+01  0.17326632946E+02  0.17895596198E+02  0.51100000000E-03 0.  1.
        -12    1    3    3    0    0  0.40095694605E+01  0.18769358253E+01  0.27192553287E+02  0.27550580568E+02  0.00000000000E+00 0.  1.
</event>
<event>
 7    1  0.1246400E-009  0.4778728E+02  0.7816164E-02  0.1312668E+00
        -11   -1    0    0    0    0  0.00000000000E+00  0.00000000000E+00  0.45593999997E+02  0.45594000000E+02  0.51100000000E-03 0.  1.
         11   -1    0    0    0    0 -0.00000000000E+00 -0.00000000000E+00 -0.45593999997E+02  0.45594000000E+02  0.51100000000E-03 0. -1.
    9900012    2    1    2    0    0  0.28459795586E+02 -0.13618213259E+02  0.29802803444E+02  0.47787276616E+02  0.20000025402E+02 0.  0.
         12    1    1    2    0    0 -0.28459795586E+02  0.13618213259E+02 -0.29802803444E+02  0.43400723384E+02  0.00000000000E+00 0. -1.
         11    1    3    3    0    0  0.12015349513E+02 -0.19495803170E+01  0.99094678237E+01  0.15696083593E+02  0.51100000000E-03 0. -1.
        -11    1    3    3    0    0 -0.61628353396E+00 -0.26723233339E+01  0.10088711181E+02  0.10454817595E+02  0.51100000000E-03 0.  1.
         12    1    3    3    0    0  0.17060729606E+02 -0.89963096081E+01  0.98046244398E+01  0.21636375428E+02  0.00000000000E+00 0. -1.
</event>
<event>
 7    1  0.1246400E-009  0.4778727E+02  0.7816164E-02  0.1312668E+00
        -11   -1    0    0    0    0  0.00000000000E+00  0.00000000000E+00  0.45593999997E+02  0.45594000000E+02  0.51100000000E-03 0. -1.
         11   -1    0    0    0    0 -0.00000000000E+00 -0.00000000000E+00 -0.45593999997E+02  0.45594000000E+02  0.51100000000E-03 0.  1.
    9900012    2    1    2    0    0 -0.25047079676E+02  0.31411830689E+02 -0.16418400702E+02  0.47787272021E+02  0.20000004452E+02 0.  0.
         12    1    1    2    0    0  0.25047079676E+02 -0.31411830689E+02  0.16418400702E+02  0.43400727979E+02  0.00000000000E+00 0. -1.
         11    1    3    3    0    0 -0.71064081302E+01  0.34135770078E+01 -0.57358733506E+01  0.97495532132E+01  0.51100000000E-03 0.  1.
        -11    1    3    3    0    0 -0.16202431999E+02  0.29793550892E+02 -0.10619599636E+02  0.35538013087E+02  0.51100000000E-03 0. -1.
         12    1    3    3    0    0 -0.17382395460E+01 -0.17952972109E+01 -0.62927715001E-01  0.24997057211E+01  0.00000000000E+00 0. -1.
</event>
<event>
 7    1  0.1246400E-009  0.4778727E+02  0.7816164E-02  0.1312668E+00
        -11   -1    0    0    0    0  0.00000000000E+00  0.00000000000E+00  0.45593999997E+02  0.45594000000E+02  0.51100000000E-03 0.  1.
         11   -1    0    0    0    0 -0.00000000000E+00 -0.00000000000E+00 -0.45593999997E+02  0.45594000000E+02  0.51100000000E-03 0. -1.
    9900012    2    1    2    0    0  0.41431625425E+01  0.60217684107E+01  0.42780785477E+02  0.47787273086E+02  0.20000009308E+02 0.  0.
         12    1    1    2    0    0 -0.41431625425E+01 -0.60217684107E+01 -0.42780785477E+02  0.43400726914E+02  0.00000000000E+00 0. -1.
         11    1    3    3    0    0 -0.35519539487E+01  0.22948852255E+01  0.18452847391E+02  0.18931203135E+02  0.51100000000E-03 0. -1.
        -11    1    3    3    0    0  0.51527904487E+01  0.84487224240E+01  0.13144103216E+02  0.16452951396E+02  0.51100000000E-03 0.  1.
         12    1    3    3    0    0  0.25423260425E+01 -0.47218392388E+01  0.11183834870E+02  0.12403118555E+02  0.00000000000E+00 0. -1.
</event>
<event>
 7    1  0.1246400E-009  0.4778727E+02  0.7816164E-02  0.1312668E+00
        -11   -1    0    0    0    0  0.00000000000E+00  0.00000000000E+00  0.45593999997E+02  0.45594000000E+02  0.51100000000E-03 0.  1.
         11   -1    0    0    0    0 -0.00000000000E+00 -0.00000000000E+00 -0.45593999997E+02  0.45594000000E+02  0.51100000000E-03 0. -1.
    9900012    2    1    2    0    0  0.12905671012E+02 -0.40859125973E+02  0.68991677337E+01  0.47787273797E+02  0.20000012551E+02 0.  0.
         12    1    1    2    0    0 -0.12905671012E+02  0.40859125973E+02 -0.68991677337E+01  0.43400726203E+02  0.00000000000E+00 0. -1.
         11    1    3    3    0    0 -0.11983888064E+01 -0.18204608022E-01 -0.25845067236E+01  0.28488844140E+01  0.51100000000E-03 0. -1.
        -11    1    3    3    0    0  0.30067492476E+01 -0.13179946572E+02  0.64558139109E+01  0.14980956785E+02  0.51100000000E-03 0.  1.
         12    1    3    3    0    0  0.11097310571E+02 -0.27660974792E+02  0.30278605463E+01  0.29957432598E+02  0.00000000000E+00 0. -1.
</event>
<event>
 7    1  0.1246400E-009  0.4778727E+02  0.7816164E-02  0.1312668E+00
        -11   -1    0    0    0    0  0.00000000000E+00  0.00000000000E+00  0.45593999997E+02  0.45594000000E+02  0.51100000000E-03 0.  1.
         11   -1    0    0    0    0 -0.00000000000E+00 -0.00000000000E+00 -0.45593999997E+02  0.45594000000E+02  0.51100000000E-03 0. -1.
    9900012    2    1    2    0    0  0.41178412722E+02 -0.48932972309E+01  0.12806921155E+02  0.47787271187E+02  0.20000000648E+02 0.  0.
         12    1    1    2    0    0 -0.41178412722E+02  0.48932972309E+01 -0.12806921155E+02  0.43400728813E+02  0.00000000000E+00 0. -1.
         11    1    3    3    0    0  0.13044162846E+02  0.22959125440E+01  0.42519745185E+01  0.13910452413E+02  0.51100000000E-03 0. -1.
        -11    1    3    3    0    0  0.20788818857E+02 -0.11678581969E+02  0.83543502427E+01  0.25265775953E+02  0.51100000000E-03 0.  1.
        -12    1    3    3    0    0  0.73454310184E+01  0.44893721941E+01  0.20059639370E+00  0.86110428205E+01  0.00000000000E+00 0.  1.
</event>
<event>
 7    1  0.1246400E-009  0.4778727E+02  0.7816164E-02  0.1312668E+00
        -11   -1    0    0    0    0  0.00000000000E+00  0.00000000000E+00  0.45593999997E+02  0.45594000000E+02  0.51100000000E-03 0. -1.
         11   -1    0    0    0    0 -0.00000000000E+00 -0.00000000000E+00 -0.45593999997E+02  0.45594000000E+02  0.51100000000E-03 0.  1.
    9900012    2    1    2    0    0  0.23493684212E+02 -0.30882522531E+02  0.19440672088E+02  0.47787272737E+02  0.20000007717E+02 0.  0.
         12    1    1    2    0    0 -0.23493684212E+02  0.30882522531E+02 -0.19440672088E+02  0.43400727263E+02  0.00000000000E+00 0. -1.
         11    1    3    3    0    0  0.15940619350E+02 -0.69052907707E+01  0.70409800948E+01  0.18744646885E+02  0.51100000000E-03 0. -1.
        -11    1    3    3    0    0 -0.12570000884E+01 -0.48671187055E+01  0.10553788515E+01  0.51364110522E+01  0.51100000000E-03 0.  1.
        -12    1    3    3    0    0  0.88100649504E+01 -0.19110113055E+02  0.11344313142E+02  0.23906214800E+02  0.00000000000E+00 0.  1.
</event>
<event>
 7    1  0.1246400E-009  0.4778727E+02  0.7816164E-02  0.1312668E+00
        -11   -1    0    0    0    0  0.00000000000E+00  0.00000000000E+00  0.45593999997E+02  0.45594000000E+02  0.51100000000E-03 0.  1.
         11   -1    0    0    0    0 -0.00000000000E+00 -0.00000000000E+00 -0.45593999997E+02  0.45594000000E+02  0.51100000000E-03 0. -1.
    9900012    2    1    2    0    0 -0.31477650527E+02  0.29545924088E+02 -0.44518882184E+01  0.47787269342E+02  0.19999992239E+02 0.  0.
         12    1    1    2    0    0  0.31477650527E+02 -0.29545924088E+02  0.44518882184E+01  0.43400730658E+02  0.00000000000E+00 0. -1.
         11    1    3    3    0    0  0.94748805542E+00 -0.12730615964E+01 -0.17451630472E+01  0.23588161789E+01  0.51100000000E-03 0. -1.
        -11    1    3    3    0    0 -0.99489805957E+01  0.14090666236E+02  0.28244506281E+00  0.17251343871E+02  0.51100000000E-03 0.  1.
         12    1    3    3    0    0 -0.22476157987E+02  0.16728319448E+02 -0.29891702340E+01  0.28177109293E+02  0.00000000000E+00 0. -1.
</event>
<event>
 7    1  0.1246400E-009  0.4778727E+02  0.7816164E-02  0.1312668E+00
        -11   -1    0    0    0    0  0.00000000000E+00  0.00000000000E+00  0.45593999997E+02  0.45594000000E+02  0.51100000000E-03 0.  1.
         11   -1    0    0    0    0 -0.00000000000E+00 -0.00000000000E+00 -0.45593999997E+02  0.45594000000E+02  0.51100000000E-03 0. -1.
    9900012    2    1    2    0    0  0.12472541717E+02  0.31439793358E+02  0.27195558902E+02  0.47787270429E+02  0.19999997195E+02 0.  0.
         12    1    1    2    0    0 -0.12472541717E+02 -0.31439793358E+02 -0.27195558902E+02  0.43400729571E+02  0.00000000000E+00 0. -1.
         11    1    3    3    0    0 -0.34800142921E+01  0.55717905314E+01  0.46767483977E+01  0.80639521970E+01  0.51100000000E-03 0. -1.
        -11    1    3    3    0    0  0.61550023317E+01  0.46024610422E+01  0.69710778687E+00  0.77170370529E+01  0.51100000000E-03 0.  1.
        -12    1    3    3    0    0  0.97975536777E+01  0.21265541784E+02  0.21821702717E+02  0.32006281179E+02  0.00000000000E+00 0.  1.
</event>
<event>
 7    1  0.1246400E-009  0.4778724E+02  0.7816164E-02  0.1312668E+00
        -11   -1    0    0    0    0  0.00000000000E+00  0.00000000000E+00  0.45593999997E+02  0.45594000000E+02  0.51100000000E-03 0.  1.
         11   -1    0    0    0    0 -0.00000000000E+00 -0.00000000000E+00 -0.45593999997E+02  0.45594000000E+02  0.51100000000E-03 0. -1.
    9900012    2    1    2    0    0 -0.11255207858E+02  0.77204778055E+01  0.41198791867E+02  0.47787240412E+02  0.19999860336E+02 0.  0.
         12    1    1    2    0    0  0.11255207858E+02 -0.77204778055E+01 -0.41198791867E+02  0.43400759588E+02  0.00000000000E+00 0. -1.
         11    1    3    3    0    0 -0.44179935135E+01  0.51485881204E+01  0.42339617506E+01  0.79970656296E+01  0.51100000000E-03 0. -1.
        -11    1    3    3    0    0  0.11527976383E+01 -0.40002818722E+01  0.77463438194E+01  0.87941480703E+01  0.51100000000E-03 0.  1.
        -12    1    3    3    0    0 -0.79900119833E+01  0.65721715573E+01  0.29218486297E+02  0.30996026712E+02  0.00000000000E+00 0.  1.
</event>
<event>
 7    1  0.1246400E-009  0.4778727E+02  0.7816164E-02  0.1312668E+00
        -11   -1    0    0    0    0  0.00000000000E+00  0.00000000000E+00  0.45593999997E+02  0.45594000000E+02  0.51100000000E-03 0.  1.
         11   -1    0    0    0    0 -0.00000000000E+00 -0.00000000000E+00 -0.45593999997E+02  0.45594000000E+02  0.51100000000E-03 0. -1.
    9900012    2    1    2    0    0 -0.27752298691E+02 -0.15728864308E+02  0.29428493336E+02  0.47787268726E+02  0.19999989431E+02 0.  0.
         12    1    1    2    0    0  0.27752298691E+02  0.15728864308E+02 -0.29428493336E+02  0.43400731274E+02  0.00000000000E+00 0. -1.
         11    1    3    3    0    0 -0.12036258973E+02 -0.36425035235E+01  0.17043124914E+02  0.21180355735E+02  0.51100000000E-03 0. -1.
        -11    1    3    3    0    0 -0.20809042573E+01  0.23347859010E+01  0.39597656945E+01  0.50459025306E+01  0.51100000000E-03 0.  1.
         12    1    3    3    0    0 -0.13635135460E+02 -0.14421146686E+02  0.84256027281E+01  0.21561010460E+02  0.00000000000E+00 0. -1.
</event>
<event>
 7    1  0.1246400E-009  0.4778727E+02  0.7816164E-02  0.1312668E+00
        -11   -1    0    0    0    0  0.00000000000E+00  0.00000000000E+00  0.45593999997E+02  0.45594000000E+02  0.51100000000E-03 0.  1.
         11   -1    0    0    0    0 -0.00000000000E+00 -0.00000000000E+00 -0.45593999997E+02  0.45594000000E+02  0.51100000000E-03 0. -1.
    9900012    2    1    2    0    0  0.26701292026E+02 -0.33216141786E+01  0.34053353684E+02  0.47787274042E+02  0.20000013666E+02 0.  0.
         12    1    1    2    0    0 -0.26701292026E+02  0.33216141786E+01 -0.34053353684E+02  0.43400725958E+02  0.00000000000E+00 0. -1.
         11    1    3    3    0    0  0.27243666647E+01 -0.16835695665E+01  0.26451142473E+01  0.41536983341E+01  0.51100000000E-03 0.  1.
        -11    1    3    3    0    0 -0.20060654642E+01  0.18979064649E+01  0.57776602183E-01  0.27621886238E+01  0.51100000000E-03 0. -1.
        -12    1    3    3    0    0  0.25982990825E+02 -0.35359510771E+01  0.31350462834E+02  0.40871387084E+02  0.00000000000E+00 0.  1.
</event>
<event>
 7    1  0.1246400E-009  0.4778727E+02  0.7816164E-02  0.1312668E+00
        -11   -1    0    0    0    0  0.00000000000E+00  0.00000000000E+00  0.45593999997E+02  0.45594000000E+02  0.51100000000E-03 0.  1.
         11   -1    0    0    0    0 -0.00000000000E+00 -0.00000000000E+00 -0.45593999997E+02  0.45594000000E+02  0.51100000000E-03 0. -1.
    9900012    2    1    2    0    0 -0.38586615324E+02 -0.19620098605E+02  0.31222215391E+01  0.47787269375E+02  0.19999992387E+02 0.  0.
         12    1    1    2    0    0  0.38586615324E+02  0.19620098605E+02 -0.31222215391E+01  0.43400730625E+02  0.00000000000E+00 0. -1.
         11    1    3    3    0    0 -0.36842643581E+01 -0.10323945703E+01 -0.41614405193E+01  0.56530726040E+01  0.51100000000E-03 0. -1.
        -11    1    3    3    0    0 -0.29089338266E+02 -0.93446247421E+01  0.46894548359E+01  0.30911205076E+02  0.51100000000E-03 0.  1.
         12    1    3    3    0    0 -0.58130127001E+01 -0.92430792927E+01  0.25942072224E+01  0.11222991695E+02  0.00000000000E+00 0. -1.
</event>
<event>
 7    1  0.1246400E-009  0.4778727E+02  0.7816164E-02  0.1312668E+00
        -11   -1    0    0    0    0  0.00000000000E+00  0.00000000000E+00  0.45593999997E+02  0.45594000000E+02  0.51100000000E-03 0.  1.
         11   -1    0    0    0    0 -0.00000000000E+00 -0.00000000000E+00 -0.45593999997E+02  0.45594000000E+02  0.51100000000E-03 0. -1.
    9900012    2    1    2    0    0  0.48825016441E+01 -0.72513699184E+01  0.42511195805E+02  0.47787274698E+02  0.20000016658E+02 0.  0.
         12    1    1    2    0    0 -0.48825016441E+01  0.72513699184E+01 -0.42511195805E+02  0.43400725302E+02  0.00000000000E+00 0. -1.
         11    1    3    3    0    0 -0.58952485001E+00  0.12759907685E+00 -0.10965427663E+01  0.12514900610E+01  0.51100000000E-03 0. -1.
        -11    1    3    3    0    0 -0.10352937026E+01  0.32921163800E+01  0.62069595258E+01  0.71018455436E+01  0.51100000000E-03 0.  1.
         12    1    3    3    0    0  0.65073201967E+01 -0.10671085375E+02  0.37400779045E+02  0.39433939093E+02  0.00000000000E+00 0. -1.
</event>
<event>
 7    1  0.1246400E-009  0.4778727E+02  0.7816164E-02  0.1312668E+00
        -11   -1    0    0    0    0  0.00000000000E+00  0.00000000000E+00  0.45593999997E+02  0.45594000000E+02  0.51100000000E-03 0.  1.
         11   -1    0    0    0    0 -0.00000000000E+00 -0.00000000000E+00 -0.45593999997E+02  0.45594000000E+02  0.51100000000E-03 0. -1.
    9900012    2    1    2    0    0  0.24291806234E+02  0.18179010372E+02  0.31033126926E+02  0.47787271492E+02  0.20000002039E+02 0.  0.
         12    1    1    2    0    0 -0.24291806234E+02 -0.18179010372E+02 -0.31033126926E+02  0.43400728508E+02  0.00000000000E+00 0. -1.
         11    1    3    3    0    0  0.28967245078E+01  0.56484696227E+00  0.11388390550E+02  0.11764586883E+02  0.51100000000E-03 0. -1.
        -11    1    3    3    0    0  0.17161632586E+02  0.66056991207E+01  0.12445636568E+02  0.22204746423E+02  0.51100000000E-03 0.  1.
         12    1    3    3    0    0  0.42334491409E+01  0.11008464289E+02  0.71990998090E+01  0.13817938185E+02  0.00000000000E+00 0. -1.
</event>
<event>
 7    1  0.1246400E-009  0.4778728E+02  0.7816164E-02  0.1312668E+00
        -11   -1    0    0    0    0  0.00000000000E+00  0.00000000000E+00  0.45593999997E+02  0.45594000000E+02  0.51100000000E-03 0.  1.
         11   -1    0    0    0    0 -0.00000000000E+00 -0.00000000000E+00 -0.45593999997E+02  0.45594000000E+02  0.51100000000E-03 0. -1.
    9900012    2    1    2    0    0 -0.17672886565E+02  0.12855801801E+02  0.37496936926E+02  0.47787276062E+02  0.20000022878E+02 0.  0.
         12    1    1    2    0    0  0.17672886565E+02 -0.12855801801E+02 -0.37496936926E+02  0.43400723938E+02  0.00000000000E+00 0. -1.
         11    1    3    3    0    0 -0.12584061349E+02  0.11683456373E+02  0.25020493017E+02  0.30346117115E+02  0.51100000000E-03 0.  1.
        -11    1    3    3    0    0 -0.24262662593E+00  0.43660945070E+01  0.86156853181E+00  0.44568990924E+01  0.51100000000E-03 0. -1.
         12    1    3    3    0    0 -0.48461985906E+01 -0.31937490793E+01  0.11614875377E+02  0.12984259855E+02  0.00000000000E+00 0. -1.
</event>
<event>
 7    1  0.1246400E-009  0.4778729E+02  0.7816164E-02  0.1312668E+00
        -11   -1    0    0    0    0  0.00000000000E+00  0.00000000000E+00  0.45593999997E+02  0.45594000000E+02  0.51100000000E-03 0.  1.
         11   -1    0    0    0    0 -0.00000000000E+00 -0.00000000000E+00 -0.45593999997E+02  0.45594000000E+02  0.51100000000E-03 0. -1.
    9900012    2    1    2    0    0  0.19635784870E+02 -0.35576002854E+02  0.15244868545E+02  0.47787285219E+02  0.20000064629E+02 0.  0.
         12    1    1    2    0    0 -0.19635784870E+02  0.35576002854E+02 -0.15244868545E+02  0.43400714781E+02  0.00000000000E+00 0. -1.
         11    1    3    3    0    0  0.63351717597E+01 -0.16258819258E+02  0.74746028985E+01  0.18982973783E+02  0.51100000000E-03 0. -1.
        -11    1    3    3    0    0  0.98622854578E+01 -0.80432873579E+01 -0.27335276361E+01  0.13016578643E+02  0.51100000000E-03 0.  1.
         12    1    3    3    0    0  0.34383276521E+01 -0.11273896238E+02  0.10503793283E+02  0.15787732794E+02  0.00000000000E+00 0. -1.
</event>
<event>
 7    1  0.1246400E-009  0.4778728E+02  0.7816164E-02  0.1312668E+00
        -11   -1    0    0    0    0  0.00000000000E+00  0.00000000000E+00  0.45593999997E+02  0.45594000000E+02  0.51100000000E-03 0. -1.
         11   -1    0    0    0    0 -0.00000000000E+00 -0.00000000000E+00 -0.45593999997E+02  0.45594000000E+02  0.51100000000E-03 0.  1.
    9900012    2    1    2    0    0  0.79692536985E+01 -0.37039800410E+02 -0.21169950326E+02  0.47787278627E+02  0.20000034571E+02 0.  0.
         12    1    1    2    0    0 -0.79692536985E+01  0.37039800410E+02  0.21169950326E+02  0.43400721373E+02  0.00000000000E+00 0. -1.
         11    1    3    3    0    0 -0.20821702705E+01 -0.26228367190E+02 -0.13533401455E+02  0.29587423573E+02  0.51100000000E-03 0. -1.
        -11    1    3    3    0    0  0.63776210962E+01 -0.90888119185E+01 -0.85823884251E+01  0.14033458030E+02  0.51100000000E-03 0.  1.
         12    1    3    3    0    0  0.36738028728E+01 -0.17226213014E+01  0.94583955453E+00  0.41663970237E+01  0.00000000000E+00 0. -1.
</event>
<event>
 7    1  0.1246400E-009  0.4778727E+02  0.7816164E-02  0.1312668E+00
        -11   -1    0    0    0    0  0.00000000000E+00  0.00000000000E+00  0.45593999997E+02  0.45594000000E+02  0.51100000000E-03 0.  1.
         11   -1    0    0    0    0 -0.00000000000E+00 -0.00000000000E+00 -0.45593999997E+02  0.45594000000E+02  0.51100000000E-03 0. -1.
    9900012    2    1    2    0    0  0.12227136275E+02  0.24349286149E+02  0.33782134274E+02  0.47787271969E+02  0.20000004217E+02 0.  0.
         12    1    1    2    0    0 -0.12227136275E+02 -0.24349286149E+02 -0.33782134274E+02  0.43400728031E+02  0.00000000000E+00 0. -1.
         11    1    3    3    0    0 -0.11723801379E+01  0.35257978908E+01  0.40396614167E+01  0.54885873025E+01  0.51100000000E-03 0. -1.
        -11    1    3    3    0    0  0.11067105361E+02  0.23235123872E+02  0.29161012134E+02  0.38893655413E+02  0.51100000000E-03 0.  1.
         12    1    3    3    0    0  0.23324110522E+01 -0.24116356134E+01  0.58146072304E+00  0.34050292540E+01  0.00000000000E+00 0. -1.
</event>
<event>
 7    1  0.1246400E-009  0.4778727E+02  0.7816164E-02  0.1312668E+00
        -11   -1    0    0    0    0  0.00000000000E+00  0.00000000000E+00  0.45593999997E+02  0.45594000000E+02  0.51100000000E-03 0.  1.
         11   -1    0    0    0    0 -0.00000000000E+00 -0.00000000000E+00 -0.45593999997E+02  0.45594000000E+02  0.51100000000E-03 0. -1.
    9900012    2    1    2    0    0  0.23988215147E+02 -0.24131445049E+02  0.26941833270E+02  0.47787268600E+02  0.19999988854E+02 0.  0.
         12    1    1    2    0    0 -0.23988215147E+02  0.24131445049E+02 -0.26941833270E+02  0.43400731400E+02  0.00000000000E+00 0. -1.
         11    1    3    3    0    0  0.76516085745E+00 -0.25822536806E+01 -0.11477881202E+01  0.29276138815E+01  0.51100000000E-03 0. -1.
        -11    1    3    3    0    0  0.23582613524E+02 -0.16240841133E+02  0.19120103388E+02  0.34430842789E+02  0.51100000000E-03 0.  1.
        -12    1    3    3    0    0 -0.35955923379E+00 -0.53083502354E+01  0.89695180028E+01  0.10428811930E+02  0.00000000000E+00 0.  1.
</event>
<event>
 7    1  0.1246400E-009  0.4778727E+02  0.7816164E-02  0.1312668E+00
        -11   -1    0    0    0    0  0.00000000000E+00  0.00000000000E+00  0.45593999997E+02  0.45594000000E+02  0.51100000000E-03 0.  1.
         11   -1    0    0    0    0 -0.00000000000E+00 -0.00000000000E+00 -0.45593999997E+02  0.45594000000E+02  0.51100000000E-03 0. -1.
    9900012    2    1    2    0    0 -0.76979402205E+01  0.36008060828E+02  0.22973558883E+02  0.47787272633E+02  0.20000007244E+02 0.  0.
         12    1    1    2    0    0  0.76979402205E+01 -0.36008060828E+02 -0.22973558883E+02  0.43400727367E+02  0.00000000000E+00 0. -1.
         11    1    3    3    0    0 -0.79250287027E+00 -0.74379322544E+00 -0.73963244818E+00  0.13146655777E+01  0.51100000000E-03 0. -1.
        -11    1    3    3    0    0  0.19033444735E+01  0.18807898078E+02  0.16891420855E+02  0.25351131120E+02  0.51100000000E-03 0.  1.
         12    1    3    3    0    0 -0.88087818237E+01  0.17943955976E+02  0.68217704756E+01  0.21121475935E+02  0.00000000000E+00 0. -1.
</event>
<event>
 7    1  0.1911506E-009  0.4778727E+02  0.7816164E-02  0.1312668E+00
        -11   -1    0    0    0    0  0.00000000000E+00  0.00000000000E+00  0.45593999997E+02  0.45594000000E+02  0.51100000000E-03 0.  1.
         11   -1    0    0    0    0 -0.00000000000E+00 -0.00000000000E+00 -0.45593999997E+02  0.45594000000E+02  0.51100000000E-03 0. -1.
    9900012    2    1    2    0    0 -0.42072019441E+02  0.10622418928E+02 -0.85604153200E+00  0.47787269466E+02  0.19999992805E+02 0.  0.
         12    1    1    2    0    0  0.42072019441E+02 -0.10622418928E+02  0.85604153200E+00  0.43400730534E+02  0.00000000000E+00 0. -1.
         11    1    3    3    0    0 -0.15376139712E+01  0.36821552356E+01  0.35701997398E+01  0.53543300558E+01  0.51100000000E-03 0. -1.
        -11    1    3    3    0    0 -0.25586254825E+02  0.89755373776E+01 -0.29432245813E+01  0.27274150369E+02  0.51100000000E-03 0.  1.
        -12    1    3    3    0    0 -0.14948150645E+02 -0.20352736855E+01 -0.14830166905E+01  0.15158789041E+02  0.00000000000E+00 0.  1.
</event>
<event>
 7    1  0.1246400E-009  0.4778733E+02  0.7816164E-02  0.1312667E+00
        -11   -1    0    0    0    0  0.00000000000E+00  0.00000000000E+00  0.45593999997E+02  0.45594000000E+02  0.51100000000E-03 0.  1.
         11   -1    0    0    0    0 -0.00000000000E+00 -0.00000000000E+00 -0.45593999997E+02  0.45594000000E+02  0.51100000000E-03 0. -1.
    9900012    2    1    2    0    0  0.32497119919E+02  0.20559602613E+01  0.28693696352E+02  0.47787331964E+02  0.20000277756E+02 0.  0.
         12    1    1    2    0    0 -0.32497119919E+02 -0.20559602613E+01 -0.28693696352E+02  0.43400668036E+02  0.00000000000E+00 0. -1.
         11    1    3    3    0    0  0.43028395209E+01  0.35358155655E+01  0.11505987214E+02  0.12782963729E+02  0.51100000000E-03 0. -1.
        -11    1    3    3    0    0  0.24765356550E+02  0.12032644742E+00  0.18592571682E+02  0.30968065576E+02  0.51100000000E-03 0.  1.
         12    1    3    3    0    0  0.34289238473E+01 -0.16001817516E+01 -0.14048625440E+01  0.40363026592E+01  0.00000000000E+00 0. -1.
</event>
<event>
 7    1  0.1246400E-009  0.4778727E+02  0.7816164E-02  0.1312668E+00
        -11   -1    0    0    0    0  0.00000000000E+00  0.00000000000E+00  0.45593999997E+02  0.45594000000E+02  0.51100000000E-03 0.  1.
         11   -1    0    0    0    0 -0.00000000000E+00 -0.00000000000E+00 -0.45593999997E+02  0.45594000000E+02  0.51100000000E-03 0. -1.
    9900012    2    1    2    0    0 -0.20726121974E+02 -0.15404367171E+02  0.34882042234E+02  0.47787268088E+02  0.19999986522E+02 0.  0.
         12    1    1    2    0    0  0.20726121974E+02  0.15404367171E+02 -0.34882042234E+02  0.43400731912E+02  0.00000000000E+00 0. -1.
         11    1    3    3    0    0 -0.32075445565E+01 -0.91441193423E+01  0.48240648771E+01  0.10824733846E+02  0.51100000000E-03 0.  1.
        -11    1    3    3    0    0 -0.46721472466E+01 -0.72022364671E+01  0.13213695834E+02  0.15757630782E+02  0.51100000000E-03 0. -1.
        -12    1    3    3    0    0 -0.12846430171E+02  0.94198863841E+00  0.16844281524E+02  0.21204903461E+02  0.00000000000E+00 0.  1.
</event>
<event>
 7    1  0.1246400E-009  0.4778727E+02  0.7816164E-02  0.1312668E+00
        -11   -1    0    0    0    0  0.00000000000E+00  0.00000000000E+00  0.45593999997E+02  0.45594000000E+02  0.51100000000E-03 0. -1.
         11   -1    0    0    0    0 -0.00000000000E+00 -0.00000000000E+00 -0.45593999997E+02  0.45594000000E+02  0.51100000000E-03 0.  1.
    9900012    2    1    2    0    0  0.31059372699E+02 -0.14105121114E+02 -0.26832523745E+02  0.47787269538E+02  0.19999993132E+02 0.  0.
         12    1    1    2    0    0 -0.31059372699E+02  0.14105121114E+02  0.26832523745E+02  0.43400730462E+02  0.00000000000E+00 0. -1.
         11    1    3    3    0    0  0.16071682370E+01  0.26211845369E+01  0.44584001393E-01  0.30749936769E+01  0.51100000000E-03 0. -1.
        -11    1    3    3    0    0  0.42705250053E+01  0.22266955059E+00 -0.76994559728E+01  0.88073031109E+01  0.51100000000E-03 0.  1.
        -12    1    3    3    0    0  0.25181679457E+02 -0.16948975201E+02 -0.19177651774E+02  0.35904972750E+02  0.00000000000E+00 0.  1.
</event>
<event>
 7    1  0.1246400E-009  0.4778728E+02  0.7816164E-02  0.1312668E+00
        -11   -1    0    0    0    0  0.00000000000E+00  0.00000000000E+00  0.45593999997E+02  0.45594000000E+02  0.51100000000E-03 0.  1.
         11   -1    0    0    0    0 -0.00000000000E+00 -0.00000000000E+00 -0.45593999997E+02  0.45594000000E+02  0.51100000000E-03 0. -1.
    9900012    2    1    2    0    0 -0.15930532427E+02  0.39770189247E+02  0.69406529370E+01  0.47787280197E+02  0.20000041732E+02 0.  0.
         12    1    1    2    0    0  0.15930532427E+02 -0.39770189247E+02 -0.69406529370E+01  0.43400719803E+02  0.00000000000E+00 0. -1.
         11    1    3    3    0    0 -0.85339498481E+01  0.55256286253E+01 -0.20672770538E+01  0.10374705123E+02  0.51100000000E-03 0. -1.
        -11    1    3    3    0    0 -0.25701554335E+01  0.27828558259E+01  0.34048380740E+01  0.50934181128E+01  0.51100000000E-03 0.  1.
        -12    1    3    3    0    0 -0.48264271455E+01  0.31461704796E+02  0.56030919167E+01  0.32319156961E+02  0.00000000000E+00 0.  1.
</event>
<event>
 7    1  0.1246400E-009  0.4778727E+02  0.7816164E-02  0.1312668E+00
        -11   -1    0    0    0    0  0.00000000000E+00  0.00000000000E+00  0.45593999997E+02  0.45594000000E+02  0.51100000000E-03 0.  1.
         11   -1    0    0    0    0 -0.00000000000E+00 -0.00000000000E+00 -0.45593999997E+02  0.45594000000E+02  0.51100000000E-03 0. -1.
    9900012    2    1    2    0    0 -0.14362335689E+01  0.38523524077E+02  0.19937370113E+02  0.47787269578E+02  0.19999993314E+02 0.  0.
         12    1    1    2    0    0  0.14362335689E+01 -0.38523524077E+02 -0.19937370113E+02  0.43400730422E+02  0.00000000000E+00 0. -1.
         11    1    3    3    0    0 -0.71512859253E+01  0.19859967204E+02  0.11193857548E+02  0.23892710914E+02  0.51100000000E-03 0. -1.
        -11    1    3    3    0    0  0.31715518422E+01  0.18411407748E+02  0.98374725697E+01  0.21114320807E+02  0.51100000000E-03 0.  1.
         12    1    3    3    0    0  0.25435005142E+01  0.25214912489E+00 -0.10939600055E+01  0.27802378569E+01  0.00000000000E+00 0. -1.
</event>
<event>
 7    1  0.1246400E-009  0.4778727E+02  0.7816164E-02  0.1312668E+00
        -11   -1    0    0    0    0  0.00000000000E+00  0.00000000000E+00  0.45593999997E+02  0.45594000000E+02  0.51100000000E-03 0.  1.
         11   -1    0    0    0    0 -0.00000000000E+00 -0.00000000000E+00 -0.45593999997E+02  0.45594000000E+02  0.51100000000E-03 0. -1.
    9900012    2    1    2    0    0 -0.48969227974E+01  0.33623297180E+02  0.27002175151E+02  0.47787269257E+02  0.19999991852E+02 0.  0.
         12    1    1    2    0    0  0.48969227974E+01 -0.33623297180E+02 -0.27002175151E+02  0.43400730743E+02  0.00000000000E+00 0. -1.
         11    1    3    3    0    0 -0.86434962723E+01  0.20748623721E+02  0.11761788119E+02  0.25368387298E+02  0.51100000000E-03 0. -1.
        -11    1    3    3    0    0 -0.10484618697E+01  0.78683264252E+01  0.32678048519E+01  0.85841937209E+01  0.51100000000E-03 0.  1.
        -12    1    3    3    0    0  0.47950353447E+01  0.50063470337E+01  0.11972582180E+02  0.13834688238E+02  0.00000000000E+00 0.  1.
</event>
<event>
 7    1  0.1246400E-009  0.4778729E+02  0.7816164E-02  0.1312668E+00
        -11   -1    0    0    0    0  0.00000000000E+00  0.00000000000E+00  0.45593999997E+02  0.45594000000E+02  0.51100000000E-03 0. -1.
         11   -1    0    0    0    0 -0.00000000000E+00 -0.00000000000E+00 -0.45593999997E+02  0.45594000000E+02  0.51100000000E-03 0.  1.
    9900012    2    1    2    0    0  0.39748787768E+02 -0.21926624718E+01 -0.17287211183E+02  0.47787290695E+02  0.20000089593E+02 0.  0.
         12    1    1    2    0    0 -0.39748787768E+02  0.21926624718E+01  0.17287211183E+02  0.43400709305E+02  0.00000000000E+00 0. -1.
         11    1    3    3    0    0  0.15491207062E+02  0.59035775634E+01 -0.24134315850E+00  0.16579745808E+02  0.51100000000E-03 0. -1.
        -11    1    3    3    0    0  0.59665616198E+01 -0.37051853732E+01 -0.25972977205E+01  0.74882716246E+01  0.51100000000E-03 0.  1.
         12    1    3    3    0    0  0.18291019086E+02 -0.43910546620E+01 -0.14448570304E+02  0.23719273262E+02  0.00000000000E+00 0. -1.
</event>
<event>
 7    1  0.1246400E-009  0.4778727E+02  0.7816164E-02  0.1312668E+00
        -11   -1    0    0    0    0  0.00000000000E+00  0.00000000000E+00  0.45593999997E+02  0.45594000000E+02  0.51100000000E-03 0. -1.
         11   -1    0    0    0    0 -0.00000000000E+00 -0.00000000000E+00 -0.45593999997E+02  0.45594000000E+02  0.51100000000E-03 0.  1.
    9900012    2    1    2    0    0 -0.33491248690E+02  0.53179741639E+00 -0.27598490525E+02  0.47787271589E+02  0.20000002483E+02 0.  0.
         12    1    1    2    0    0  0.33491248690E+02 -0.53179741639E+00  0.27598490525E+02  0.43400728411E+02  0.00000000000E+00 0. -1.
         11    1    3    3    0    0 -0.17732762785E+02 -0.30073931479E+01 -0.59028674318E+01  0.18929847693E+02  0.51100000000E-03 0. -1.
        -11    1    3    3    0    0 -0.29725373449E+01 -0.31984751697E+01 -0.69673001047E+01  0.82224991753E+01  0.51100000000E-03 0.  1.
         12    1    3    3    0    0 -0.12785948561E+02  0.67376657340E+01 -0.14728322989E+02  0.20634924720E+02  0.00000000000E+00 0. -1.
</event>
<event>
 7    1  0.1246400E-009  0.4778727E+02  0.7816164E-02  0.1312668E+00
        -11   -1    0    0    0    0  0.00000000000E+00  0.00000000000E+00  0.45593999997E+02  0.45594000000E+02  0.51100000000E-03 0.  1.
         11   -1    0    0    0    0 -0.00000000000E+00 -0.00000000000E+00 -0.45593999997E+02  0.45594000000E+02  0.51100000000E-03 0. -1.
    9900012    2    1    2    0    0 -0.10340513004E+02  0.17682573691E+01  0.42113779218E+02  0.47787270244E+02  0.19999996350E+02 0.  0.
         12    1    1    2    0    0  0.10340513004E+02 -0.17682573691E+01 -0.42113779218E+02  0.43400729756E+02  0.00000000000E+00 0. -1.
         11    1    3    3    0    0 -0.34402201136E+01 -0.24888032250E+01  0.20557178774E+01  0.47175451429E+01  0.51100000000E-03 0. -1.
        -11    1    3    3    0    0 -0.92472726445E+01  0.41168184666E+00  0.15122867424E+02  0.17730839030E+02  0.51100000000E-03 0.  1.
        -12    1    3    3    0    0  0.23469797537E+01  0.38453787475E+01  0.24935193917E+02  0.25338886071E+02  0.00000000000E+00 0.  1.
</event>
<event>
 7    1  0.1246400E-009  0.4778727E+02  0.7816164E-02  0.1312668E+00
        -11   -1    0    0    0    0  0.00000000000E+00  0.00000000000E+00  0.45593999997E+02  0.45594000000E+02  0.51100000000E-03 0.  1.
         11   -1    0    0    0    0 -0.00000000000E+00 -0.00000000000E+00 -0.45593999997E+02  0.45594000000E+02  0.51100000000E-03 0. -1.
    9900012    2    1    2    0    0 -0.47836450111E+00  0.30909801713E+01  0.43287877177E+02  0.47787270726E+02  0.19999998547E+02 0.  0.
         12    1    1    2    0    0  0.47836450111E+00 -0.30909801713E+01 -0.43287877177E+02  0.43400729274E+02  0.00000000000E+00 0. -1.
         11    1    3    3    0    0  0.17409413782E+01 -0.71058223715E+01  0.10678554808E+02  0.12944308460E+02  0.51100000000E-03 0. -1.
        -11    1    3    3    0    0 -0.41446096294E+01  0.51081550990E+01  0.14261321881E+02  0.15705296544E+02  0.51100000000E-03 0.  1.
        -12    1    3    3    0    0  0.19253037501E+01  0.50886474439E+01  0.18348000489E+02  0.19137665722E+02  0.00000000000E+00 0.  1.
</event>
<event>
 7    1  0.1246400E-009  0.4778725E+02  0.7816164E-02  0.1312668E+00
        -11   -1    0    0    0    0  0.00000000000E+00  0.00000000000E+00  0.45593999997E+02  0.45594000000E+02  0.51100000000E-03 0.  1.
         11   -1    0    0    0    0 -0.00000000000E+00 -0.00000000000E+00 -0.45593999997E+02  0.45594000000E+02  0.51100000000E-03 0. -1.
    9900012    2    1    2    0    0  0.10674961395E+02  0.24634574994E+02  0.34099968781E+02  0.47787251656E+02  0.19999911600E+02 0.  0.
         12    1    1    2    0    0 -0.10674961395E+02 -0.24634574994E+02 -0.34099968781E+02  0.43400748344E+02  0.00000000000E+00 0. -1.
         11    1    3    3    0    0  0.35984866187E+00 -0.70737061188E+00  0.62893837162E+01  0.63392595808E+01  0.51100000000E-03 0. -1.
        -11    1    3    3    0    0  0.22925197153E+01  0.87210024017E+01  0.18927299903E+02  0.20965548202E+02  0.51100000000E-03 0.  1.
         12    1    3    3    0    0  0.80225930179E+01  0.16620943204E+02  0.88832851620E+01  0.20482443873E+02  0.00000000000E+00 0. -1.
</event>
<event>
 7    1  0.1246400E-009  0.4778727E+02  0.7816164E-02  0.1312668E+00
        -11   -1    0    0    0    0  0.00000000000E+00  0.00000000000E+00  0.45593999997E+02  0.45594000000E+02  0.51100000000E-03 0.  1.
         11   -1    0    0    0    0 -0.00000000000E+00 -0.00000000000E+00 -0.45593999997E+02  0.45594000000E+02  0.51100000000E-03 0. -1.
    9900012    2    1    2    0    0 -0.70811119218E+01  0.12771021730E+02  0.40870308722E+02  0.47787271007E+02  0.19999999829E+02 0.  0.
         12    1    1    2    0    0  0.70811119218E+01 -0.12771021730E+02 -0.40870308722E+02  0.43400728993E+02  0.00000000000E+00 0. -1.
         11    1    3    3    0    0 -0.17907018084E+01 -0.77320753980E+00  0.36379377545E+00  0.19841393697E+01  0.51100000000E-03 0. -1.
        -11    1    3    3    0    0 -0.14511543183E+01  0.96250778804E+01  0.38881226279E+02  0.40081139333E+02  0.51100000000E-03 0.  1.
        -12    1    3    3    0    0 -0.38392557950E+01  0.39191513895E+01  0.16252886682E+01  0.57219923041E+01  0.00000000000E+00 0.  1.
</event>
<event>
 7    1  0.1246400E-009  0.4778727E+02  0.7816164E-02  0.1312668E+00
        -11   -1    0    0    0    0  0.00000000000E+00  0.00000000000E+00  0.45593999997E+02  0.45594000000E+02  0.51100000000E-03 0.  1.
         11   -1    0    0    0    0 -0.00000000000E+00 -0.00000000000E+00 -0.45593999997E+02  0.45594000000E+02  0.51100000000E-03 0. -1.
    9900012    2    1    2    0    0  0.23816381516E+02 -0.28556162929E+02  0.22381879377E+02  0.47787274266E+02  0.20000014689E+02 0.  0.
         12    1    1    2    0    0 -0.23816381516E+02  0.28556162929E+02 -0.22381879377E+02  0.43400725734E+02  0.00000000000E+00 0. -1.
         11    1    3    3    0    0  0.12998973111E+02 -0.14516788816E+02  0.87010286549E+01  0.21340533249E+02  0.51100000000E-03 0. -1.
        -11    1    3    3    0    0  0.74271667269E+01 -0.74593869368E+01  0.15582099445E+02  0.18804443156E+02  0.51100000000E-03 0.  1.
         12    1    3    3    0    0  0.33902416788E+01 -0.65799871765E+01 -0.19012487221E+01  0.76422978604E+01  0.00000000000E+00 0. -1.
</event>
<event>
 7    1  0.1246400E-009  0.4778727E+02  0.7816164E-02  0.1312668E+00
        -11   -1    0    0    0    0  0.00000000000E+00  0.00000000000E+00  0.45593999997E+02  0.45594000000E+02  0.51100000000E-03 0.  1.
         11   -1    0    0    0    0 -0.00000000000E+00 -0.00000000000E+00 -0.45593999997E+02  0.45594000000E+02  0.51100000000E-03 0. -1.
    9900012    2    1    2    0    0 -0.34035827061E+02  0.22068872751E+02  0.15432132129E+02  0.47787269934E+02  0.19999994937E+02 0.  0.
         12    1    1    2    0    0  0.34035827061E+02 -0.22068872751E+02 -0.15432132129E+02  0.43400730066E+02  0.00000000000E+00 0. -1.
         11    1    3    3    0    0 -0.19384023115E+02  0.90847455221E+01  0.55090125857E+01  0.22104799778E+02  0.51100000000E-03 0. -1.
        -11    1    3    3    0    0 -0.43198066621E+01  0.88608998428E+01 -0.12247857130E+01  0.99335983372E+01  0.51100000000E-03 0.  1.
        -12    1    3    3    0    0 -0.10331997284E+02  0.41232273866E+01  0.11147905256E+02  0.15748871818E+02  0.00000000000E+00 0.  1.
</event>
<event>
 7    1  0.1246400E-009  0.4778728E+02  0.7816164E-02  0.1312668E+00
        -11   -1    0    0    0    0  0.00000000000E+00  0.00000000000E+00  0.45593999997E+02  0.45594000000E+02  0.51100000000E-03 0.  1.
         11   -1    0    0    0    0 -0.00000000000E+00 -0.00000000000E+00 -0.45593999997E+02  0.45594000000E+02  0.51100000000E-03 0. -1.
    9900012    2    1    2    0    0 -0.19400181793E+02  0.38749605623E+02  0.23923158361E+01  0.47787283824E+02  0.20000058268E+02 0.  0.
         12    1    1    2    0    0  0.19400181793E+02 -0.38749605623E+02 -0.23923158361E+01  0.43400716176E+02  0.00000000000E+00 0. -1.
         11    1    3    3    0    0 -0.40784034329E+01  0.86667682101E+01  0.48991762265E+01  0.10758632521E+02  0.51100000000E-03 0. -1.
        -11    1    3    3    0    0 -0.55435506372E+01  0.18184997623E+02 -0.80715992251E+01  0.20653711689E+02  0.51100000000E-03 0.  1.
        -12    1    3    3    0    0 -0.97782277231E+01  0.11897839789E+02  0.55647388347E+01  0.16374939614E+02  0.00000000000E+00 0.  1.
</event>
<event>
 7    1  0.1246400E-009  0.4778727E+02  0.7816164E-02  0.1312668E+00
        -11   -1    0    0    0    0  0.00000000000E+00  0.00000000000E+00  0.45593999997E+02  0.45594000000E+02  0.51100000000E-03 0.  1.
         11   -1    0    0    0    0 -0.00000000000E+00 -0.00000000000E+00 -0.45593999997E+02  0.45594000000E+02  0.51100000000E-03 0. -1.
    9900012    2    1    2    0    0  0.11276124793E+02  0.16037698291E+02  0.38720337032E+02  0.47787271242E+02  0.20000000901E+02 0.  0.
         12    1    1    2    0    0 -0.11276124793E+02 -0.16037698291E+02 -0.38720337032E+02  0.43400728758E+02  0.00000000000E+00 0. -1.
         11    1    3    3    0    0 -0.24160209589E+01  0.78717237585E+01  0.14137741406E+02  0.16360835080E+02  0.51100000000E-03 0. -1.
        -11    1    3    3    0    0  0.69239107655E+00  0.10294888369E+01 -0.11724360659E+01  0.17070030047E+01  0.51100000000E-03 0.  1.
        -12    1    3    3    0    0  0.12999754675E+02  0.71364856958E+01  0.25755031693E+02  0.29719433157E+02  0.00000000000E+00 0.  1.
</event>
<event>
 7    1  0.1246400E-009  0.4778727E+02  0.7816164E-02  0.1312668E+00
        -11   -1    0    0    0    0  0.00000000000E+00  0.00000000000E+00  0.45593999997E+02  0.45594000000E+02  0.51100000000E-03 0.  1.
         11   -1    0    0    0    0 -0.00000000000E+00 -0.00000000000E+00 -0.45593999997E+02  0.45594000000E+02  0.51100000000E-03 0. -1.
    9900012    2    1    2    0    0  0.56358880294E+01  0.28477124458E+02  0.32263188126E+02  0.47787272364E+02  0.20000006016E+02 0.  0.
         12    1    1    2    0    0 -0.56358880294E+01 -0.28477124458E+02 -0.32263188126E+02  0.43400727636E+02  0.00000000000E+00 0. -1.
         11    1    3    3    0    0 -0.18110901725E+01 -0.70757960037E+00  0.33722373699E+01  0.38926471256E+01  0.51100000000E-03 0. -1.
        -11    1    3    3    0    0  0.12622608337E+01  0.26078310339E+02  0.22266995688E+02  0.34314583923E+02  0.51100000000E-03 0.  1.
         12    1    3    3    0    0  0.61847173681E+01  0.31063937190E+01  0.66239550678E+01  0.95800413152E+01  0.00000000000E+00 0. -1.
</event>
<event>
 7    1  0.1246400E-009  0.4778727E+02  0.7816164E-02  0.1312668E+00
        -11   -1    0    0    0    0  0.00000000000E+00  0.00000000000E+00  0.45593999997E+02  0.45594000000E+02  0.51100000000E-03 0.  1.
         11   -1    0    0    0    0 -0.00000000000E+00 -0.00000000000E+00 -0.45593999997E+02  0.45594000000E+02  0.51100000000E-03 0. -1.
    9900012    2    1    2    0    0  0.20733893465E+02 -0.33672272046E+02  0.17885951707E+02  0.47787268308E+02  0.19999987521E+02 0.  0.
         12    1    1    2    0    0 -0.20733893465E+02  0.33672272046E+02 -0.17885951707E+02  0.43400731692E+02  0.00000000000E+00 0. -1.
         11    1    3    3    0    0  0.24169995829E+01 -0.89812683547E+01 -0.68518022772E+00  0.93260141780E+01  0.51100000000E-03 0. -1.
        -11    1    3    3    0    0  0.63188788098E+01 -0.19363069703E+02  0.93063194763E+01  0.22393398138E+02  0.51100000000E-03 0.  1.
        -12    1    3    3    0    0  0.11998015072E+02 -0.53279339888E+01  0.92648124588E+01  0.16067855991E+02  0.00000000000E+00 0.  1.
</event>
<event>
 7    1  0.1246400E-009  0.4778728E+02  0.7816164E-02  0.1312668E+00
        -11   -1    0    0    0    0  0.00000000000E+00  0.00000000000E+00  0.45593999997E+02  0.45594000000E+02  0.51100000000E-03 0.  1.
         11   -1    0    0    0    0 -0.00000000000E+00 -0.00000000000E+00 -0.45593999997E+02  0.45594000000E+02  0.51100000000E-03 0. -1.
    9900012    2    1    2    0    0  0.70119799242E+01  0.30628658642E+02  0.29938940082E+02  0.47787277357E+02  0.20000028783E+02 0.  0.
         12    1    1    2    0    0 -0.70119799242E+01 -0.30628658642E+02 -0.29938940082E+02  0.43400722643E+02  0.00000000000E+00 0. -1.
         11    1    3    3    0    0  0.91225492741E+01  0.41717242555E+01  0.91391319458E+01  0.13570111330E+02  0.51100000000E-03 0. -1.
        -11    1    3    3    0    0 -0.27229069008E+01  0.82243528911E+01  0.45452692315E+01  0.97833366044E+01  0.51100000000E-03 0.  1.
        -12    1    3    3    0    0  0.61233755086E+00  0.18232581495E+02  0.16254538905E+02  0.24433829423E+02  0.00000000000E+00 0.  1.
</event>
<event>
 7    1  0.1246400E-009  0.4778727E+02  0.7816164E-02  0.1312668E+00
        -11   -1    0    0    0    0  0.00000000000E+00  0.00000000000E+00  0.45593999997E+02  0.45594000000E+02  0.51100000000E-03 0.  1.
         11   -1    0    0    0    0 -0.00000000000E+00 -0.00000000000E+00 -0.45593999997E+02  0.45594000000E+02  0.51100000000E-03 0. -1.
    9900012    2    1    2    0    0 -0.30150190152E+02  0.30230104017E+02  0.77929570419E+01  0.47787270346E+02  0.19999996815E+02 0.  0.
         12    1    1    2    0    0  0.30150190152E+02 -0.30230104017E+02 -0.77929570419E+01  0.43400729654E+02  0.00000000000E+00 0. -1.
         11    1    3    3    0    0 -0.29585790646E+01 -0.10870162869E+01 -0.81909462477E+00  0.32566410234E+01  0.51100000000E-03 0. -1.
        -11    1    3    3    0    0 -0.24478207051E+02  0.29058628862E+02  0.32801288338E+01  0.38135885688E+02  0.51100000000E-03 0.  1.
        -12    1    3    3    0    0 -0.27134040359E+01  0.22584914419E+01  0.53319228328E+01  0.63947436345E+01  0.00000000000E+00 0.  1.
</event>
<event>
 7    1  0.1246400E-009  0.4778727E+02  0.7816164E-02  0.1312668E+00
        -11   -1    0    0    0    0  0.00000000000E+00  0.00000000000E+00  0.45593999997E+02  0.45594000000E+02  0.51100000000E-03 0.  1.
         11   -1    0    0    0    0 -0.00000000000E+00 -0.00000000000E+00 -0.45593999997E+02  0.45594000000E+02  0.51100000000E-03 0. -1.
    9900012    2    1    2    0    0  0.56810248599E+01  0.32826200597E+02  0.27817075358E+02  0.47787272234E+02  0.20000005424E+02 0.  0.
         12    1    1    2    0    0 -0.56810248599E+01 -0.32826200597E+02 -0.27817075358E+02  0.43400727766E+02  0.00000000000E+00 0. -1.
         11    1    3    3    0    0  0.93694274945E+01  0.20354295806E+02  0.20321327620E+02  0.30249626209E+02  0.51100000000E-03 0. -1.
        -11    1    3    3    0    0 -0.23431924568E+01  0.13778812717E+02  0.64995323070E+01  0.15413959623E+02  0.51100000000E-03 0.  1.
         12    1    3    3    0    0 -0.13452101778E+01 -0.13069079254E+01  0.99621543184E+00  0.21236864021E+01  0.00000000000E+00 0. -1.
</event>
<event>
 7    1  0.1246400E-009  0.4778727E+02  0.7816164E-02  0.1312668E+00
        -11   -1    0    0    0    0  0.00000000000E+00  0.00000000000E+00  0.45593999997E+02  0.45594000000E+02  0.51100000000E-03 0.  1.
         11   -1    0    0    0    0 -0.00000000000E+00 -0.00000000000E+00 -0.45593999997E+02  0.45594000000E+02  0.51100000000E-03 0. -1.
    9900012    2    1    2    0    0 -0.26330717959E+02 -0.32813628913E+02  0.10657499034E+02  0.47787271477E+02  0.20000001972E+02 0.  0.
         12    1    1    2    0    0  0.26330717959E+02  0.32813628913E+02 -0.10657499034E+02  0.43400728523E+02  0.00000000000E+00 0. -1.
         11    1    3    3    0    0  0.17806068356E+01 -0.46451843529E+01 -0.27910608752E+00  0.49825895722E+01  0.51100000000E-03 0. -1.
        -11    1    3    3    0    0 -0.14281304009E+02 -0.17470425501E+02  0.76771587472E+00  0.22577882968E+02  0.51100000000E-03 0.  1.
         12    1    3    3    0    0 -0.13830020785E+02 -0.10698019059E+02  0.10168889247E+02  0.20226798937E+02  0.00000000000E+00 0. -1.
</event>
<event>
 7    1  0.1246400E-009  0.4778728E+02  0.7816164E-02  0.1312668E+00
        -11   -1    0    0    0    0  0.00000000000E+00  0.00000000000E+00  0.45593999997E+02  0.45594000000E+02  0.51100000000E-03 0.  1.
         11   -1    0    0    0    0 -0.00000000000E+00 -0.00000000000E+00 -0.45593999997E+02  0.45594000000E+02  0.51100000000E-03 0. -1.
    9900012    2    1    2    0    0  0.43193979190E+02  0.36971010004E+01  0.20576917385E+01  0.47787280083E+02  0.20000041210E+02 0.  0.
         12    1    1    2    0    0 -0.43193979190E+02 -0.36971010004E+01 -0.20576917385E+01  0.43400719917E+02  0.00000000000E+00 0. -1.
         11    1    3    3    0    0  0.15600070265E+01  0.42579703900E+00  0.28797879694E+01  0.33027418990E+01  0.51100000000E-03 0. -1.
        -11    1    3    3    0    0  0.13056885244E+02  0.62191411191E+01  0.47460163410E+01  0.15221190489E+02  0.51100000000E-03 0.  1.
        -12    1    3    3    0    0  0.28577086920E+02 -0.29478371577E+01 -0.55681125719E+01  0.29263347695E+02  0.00000000000E+00 0.  1.
</event>
<event>
 7    1  0.1246400E-009  0.4778727E+02  0.7816164E-02  0.1312668E+00
        -11   -1    0    0    0    0  0.00000000000E+00  0.00000000000E+00  0.45593999997E+02  0.45594000000E+02  0.51100000000E-03 0.  1.
         11   -1    0    0    0    0 -0.00000000000E+00 -0.00000000000E+00 -0.45593999997E+02  0.45594000000E+02  0.51100000000E-03 0. -1.
    9900012    2    1    2    0    0  0.15024754353E+02  0.15947489808E+02  0.37464085737E+02  0.47787269653E+02  0.19999993654E+02 0.  0.
         12    1    1    2    0    0 -0.15024754353E+02 -0.15947489808E+02 -0.37464085737E+02  0.43400730347E+02  0.00000000000E+00 0. -1.
         11    1    3    3    0    0  0.45256768572E+01  0.26847783207E+00  0.19522373097E+01  0.49360978653E+01  0.51100000000E-03 0. -1.
        -11    1    3    3    0    0  0.57872591927E-01 -0.15631744094E+01 -0.44798703772E+00  0.16271312541E+01  0.51100000000E-03 0.  1.
        -12    1    3    3    0    0  0.10441204904E+02  0.17242186386E+02  0.35959835465E+02  0.41224040533E+02  0.00000000000E+00 0.  1.
</event>
<event>
 7    1  0.1246400E-009  0.4778727E+02  0.7816164E-02  0.1312668E+00
        -11   -1    0    0    0    0  0.00000000000E+00  0.00000000000E+00  0.45593999997E+02  0.45594000000E+02  0.51100000000E-03 0. -1.
         11   -1    0    0    0    0 -0.00000000000E+00 -0.00000000000E+00 -0.45593999997E+02  0.45594000000E+02  0.51100000000E-03 0.  1.
    9900012    2    1    2    0    0  0.63748025498E+01 -0.42889255583E+02 -0.18701356411E+01  0.47787265451E+02  0.19999974499E+02 0.  0.
         12    1    1    2    0    0 -0.63748025498E+01  0.42889255583E+02  0.18701356411E+01  0.43400734549E+02  0.00000000000E+00 0. -1.
         11    1    3    3    0    0 -0.41621996255E+01 -0.10666754091E+02  0.79794252567E+00  0.11477816042E+02  0.51100000000E-03 0. -1.
        -11    1    3    3    0    0  0.38432606410E+01 -0.15831738324E+02 -0.75322602263E+01  0.17948524593E+02  0.51100000000E-03 0.  1.
         12    1    3    3    0    0  0.66937415342E+01 -0.16390763168E+02  0.48641820596E+01  0.18360924815E+02  0.00000000000E+00 0. -1.
</event>
<event>
 7    1  0.1246400E-009  0.4778727E+02  0.7816164E-02  0.1312668E+00
        -11   -1    0    0    0    0  0.00000000000E+00  0.00000000000E+00  0.45593999997E+02  0.45594000000E+02  0.51100000000E-03 0. -1.
         11   -1    0    0    0    0 -0.00000000000E+00 -0.00000000000E+00 -0.45593999997E+02  0.45594000000E+02  0.51100000000E-03 0.  1.
    9900012    2    1    2    0    0 -0.12223640141E+02 -0.11012527282E+02 -0.40161302866E+02  0.47787269784E+02  0.19999994251E+02 0.  0.
         12    1    1    2    0    0  0.12223640141E+02  0.11012527282E+02  0.40161302866E+02  0.43400730216E+02  0.00000000000E+00 0. -1.
         11    1    3    3    0    0 -0.47486828920E+01  0.21628596118E+01 -0.14744338295E+01  0.54223524680E+01  0.51100000000E-03 0. -1.
        -11    1    3    3    0    0  0.16286755931E+01 -0.30561682404E+01 -0.10643816184E+02  0.11193014417E+02  0.51100000000E-03 0.  1.
        -12    1    3    3    0    0 -0.91036328423E+01 -0.10119218653E+02 -0.28043052852E+02  0.31171902899E+02  0.00000000000E+00 0.  1.
</event>
<event>
 7    1  0.1246400E-009  0.4778726E+02  0.7816164E-02  0.1312668E+00
        -11   -1    0    0    0    0  0.00000000000E+00  0.00000000000E+00  0.45593999997E+02  0.45594000000E+02  0.51100000000E-03 0. -1.
         11   -1    0    0    0    0 -0.00000000000E+00 -0.00000000000E+00 -0.45593999997E+02  0.45594000000E+02  0.51100000000E-03 0.  1.
    9900012    2    1    2    0    0 -0.39471283955E+02  0.17777151436E+02 -0.31007726053E+01  0.47787260824E+02  0.19999953402E+02 0.  0.
         12    1    1    2    0    0  0.39471283955E+02 -0.17777151436E+02  0.31007726053E+01  0.43400739176E+02  0.00000000000E+00 0. -1.
         11    1    3    3    0    0 -0.18715998648E+02  0.42361871884E+01 -0.20890768562E+01  0.19302801084E+02  0.51100000000E-03 0.  1.
        -11    1    3    3    0    0  0.39824619429E+00 -0.19601842049E+01  0.89244458573E+00  0.21902921605E+01  0.51100000000E-03 0. -1.
         12    1    3    3    0    0 -0.21153531501E+02  0.15501148452E+02 -0.19041403348E+01  0.26294167580E+02  0.00000000000E+00 0. -1.
</event>
<event>
 7    1  0.1246400E-009  0.4778727E+02  0.7816164E-02  0.1312668E+00
        -11   -1    0    0    0    0  0.00000000000E+00  0.00000000000E+00  0.45593999997E+02  0.45594000000E+02  0.51100000000E-03 0. -1.
         11   -1    0    0    0    0 -0.00000000000E+00 -0.00000000000E+00 -0.45593999997E+02  0.45594000000E+02  0.51100000000E-03 0.  1.
    9900012    2    1    2    0    0  0.18181465212E+02 -0.14499063979E+02 -0.36644715173E+02  0.47787266324E+02  0.19999978476E+02 0.  0.
         12    1    1    2    0    0 -0.18181465212E+02  0.14499063979E+02  0.36644715173E+02  0.43400733676E+02  0.00000000000E+00 0. -1.
         11    1    3    3    0    0  0.75887431103E+01 -0.18237714862E+01 -0.88755076039E+01  0.11819043951E+02  0.51100000000E-03 0. -1.
        -11    1    3    3    0    0  0.49497202430E+01 -0.12740756525E+02 -0.89912833088E+01  0.16360616832E+02  0.51100000000E-03 0.  1.
        -12    1    3    3    0    0  0.56430018584E+01  0.65464031908E-01 -0.18777924260E+02  0.19607605541E+02  0.00000000000E+00 0.  1.
</event>
<event>
 7    1  0.1246400E-009  0.4778727E+02  0.7816164E-02  0.1312668E+00
        -11   -1    0    0    0    0  0.00000000000E+00  0.00000000000E+00  0.45593999997E+02  0.45594000000E+02  0.51100000000E-03 0.  1.
         11   -1    0    0    0    0 -0.00000000000E+00 -0.00000000000E+00 -0.45593999997E+02  0.45594000000E+02  0.51100000000E-03 0. -1.
    9900012    2    1    2    0    0 -0.61906209204E+01 -0.24837409467E+01  0.42885090439E+02  0.47787265693E+02  0.19999975600E+02 0.  0.
         12    1    1    2    0    0  0.61906209204E+01  0.24837409467E+01 -0.42885090439E+02  0.43400734307E+02  0.00000000000E+00 0. -1.
         11    1    3    3    0    0 -0.65904955578E+01 -0.46197626019E+01  0.12128181616E+02  0.14555742089E+02  0.51100000000E-03 0. -1.
        -11    1    3    3    0    0 -0.45659991269E+01  0.49451966441E+01  0.19144522811E+02  0.20293251878E+02  0.51100000000E-03 0.  1.
         12    1    3    3    0    0  0.49658737642E+01 -0.28091749889E+01  0.11612386011E+02  0.12938271725E+02  0.00000000000E+00 0. -1.
</event>
<event>
 7    1  0.1246400E-009  0.4778731E+02  0.7816164E-02  0.1312668E+00
        -11   -1    0    0    0    0  0.00000000000E+00  0.00000000000E+00  0.45593999997E+02  0.45594000000E+02  0.51100000000E-03 0.  1.
         11   -1    0    0    0    0 -0.00000000000E+00 -0.00000000000E+00 -0.45593999997E+02  0.45594000000E+02  0.51100000000E-03 0. -1.
    9900012    2    1    2    0    0  0.51220336170E+01 -0.17907341812E+00  0.43097014844E+02  0.47787308944E+02  0.20000172801E+02 0.  0.
         12    1    1    2    0    0 -0.51220336170E+01  0.17907341812E+00 -0.43097014844E+02  0.43400691056E+02  0.00000000000E+00 0. -1.
         11    1    3    3    0    0 -0.43743192524E+01  0.26812485280E+01  0.26377884474E+01  0.57690285790E+01  0.51100000000E-03 0. -1.
        -11    1    3    3    0    0  0.50336659551E+01 -0.25027925869E+01  0.12540187754E+02  0.13742564275E+02  0.51100000000E-03 0.  1.
        -12    1    3    3    0    0  0.44626869142E+01 -0.35752935924E+00  0.27919038642E+02  0.28275716090E+02  0.00000000000E+00 0.  1.
</event>
<event>
 7    1  0.1246400E-009  0.4778727E+02  0.7816164E-02  0.1312668E+00
        -11   -1    0    0    0    0  0.00000000000E+00  0.00000000000E+00  0.45593999997E+02  0.45594000000E+02  0.51100000000E-03 0.  1.
         11   -1    0    0    0    0 -0.00000000000E+00 -0.00000000000E+00 -0.45593999997E+02  0.45594000000E+02  0.51100000000E-03 0. -1.
    9900012    2    1    2    0    0  0.16790554245E+02  0.98160531877E+01  0.38798782930E+02  0.47787272254E+02  0.20000005516E+02 0.  0.
         12    1    1    2    0    0 -0.16790554245E+02 -0.98160531877E+01 -0.38798782930E+02  0.43400727746E+02  0.00000000000E+00 0. -1.
         11    1    3    3    0    0  0.11297379674E+02  0.60593883719E+01  0.18133069368E+02  0.22207097512E+02  0.51100000000E-03 0. -1.
        -11    1    3    3    0    0  0.58339655146E+01  0.83428968866E+01  0.16427563613E+02  0.19326249730E+02  0.51100000000E-03 0.  1.
         12    1    3    3    0    0 -0.34079094358E+00 -0.45862320709E+01  0.42381499481E+01  0.62539250122E+01  0.00000000000E+00 0. -1.
</event>
<event>
 7    1  0.1246400E-009  0.4778726E+02  0.7816164E-02  0.1312668E+00
        -11   -1    0    0    0    0  0.00000000000E+00  0.00000000000E+00  0.45593999997E+02  0.45594000000E+02  0.51100000000E-03 0.  1.
         11   -1    0    0    0    0 -0.00000000000E+00 -0.00000000000E+00 -0.45593999997E+02  0.45594000000E+02  0.51100000000E-03 0. -1.
    9900012    2    1    2    0    0  0.15083763699E+02 -0.21474994987E+02  0.34567737608E+02  0.47787264748E+02  0.19999971294E+02 0.  0.
         12    1    1    2    0    0 -0.15083763699E+02  0.21474994987E+02 -0.34567737608E+02  0.43400735252E+02  0.00000000000E+00 0. -1.
         11    1    3    3    0    0  0.70072931194E+00 -0.29345922835E+01  0.11272378735E+00  0.30191986275E+01  0.51100000000E-03 0. -1.
        -11    1    3    3    0    0 -0.97781890787E+00 -0.96968866996E+01  0.66663158394E+01  0.11807857918E+02  0.51100000000E-03 0.  1.
        -12    1    3    3    0    0  0.15360853295E+02 -0.88435160043E+01  0.27788697981E+02  0.32960208203E+02  0.00000000000E+00 0.  1.
</event>
<event>
 7    1  0.1246400E-009  0.4778727E+02  0.7816164E-02  0.1312668E+00
        -11   -1    0    0    0    0  0.00000000000E+00  0.00000000000E+00  0.45593999997E+02  0.45594000000E+02  0.51100000000E-03 0.  1.
         11   -1    0    0    0    0 -0.00000000000E+00 -0.00000000000E+00 -0.45593999997E+02  0.45594000000E+02  0.51100000000E-03 0. -1.
    9900012    2    1    2    0    0 -0.10849614710E+02 -0.41922202293E+02 -0.29049091288E+01  0.47787266348E+02  0.19999978588E+02 0.  0.
         12    1    1    2    0    0  0.10849614710E+02  0.41922202293E+02  0.29049091288E+01  0.43400733652E+02  0.00000000000E+00 0. -1.
         11    1    3    3    0    0 -0.24168982246E+01 -0.13800148833E+01  0.24536608874E+01  0.37102951524E+01  0.51100000000E-03 0. -1.
        -11    1    3    3    0    0 -0.30387380393E+01 -0.33992859674E+01  0.32133278846E+01  0.55780417993E+01  0.51100000000E-03 0.  1.
        -12    1    3    3    0    0 -0.53939784460E+01 -0.37142901443E+02 -0.85718979009E+01  0.38498929396E+02  0.00000000000E+00 0.  1.
</event>
<event>
 7    1  0.1246400E-009  0.4778731E+02  0.7816164E-02  0.1312668E+00
        -11   -1    0    0    0    0  0.00000000000E+00  0.00000000000E+00  0.45593999997E+02  0.45594000000E+02  0.51100000000E-03 0.  1.
         11   -1    0    0    0    0 -0.00000000000E+00 -0.00000000000E+00 -0.45593999997E+02  0.45594000000E+02  0.51100000000E-03 0. -1.
    9900012    2    1    2    0    0 -0.15980901038E+02  0.30844584151E+02  0.26016192430E+02  0.47787310628E+02  0.20000180476E+02 0.  0.
         12    1    1    2    0    0  0.15980901038E+02 -0.30844584151E+02 -0.26016192430E+02  0.43400689372E+02  0.00000000000E+00 0. -1.
         11    1    3    3    0    0 -0.42706292844E+01  0.38911479817E+01 -0.56536924236E+00  0.58050796499E+01  0.51100000000E-03 0. -1.
        -11    1    3    3    0    0 -0.11119294785E+02  0.13568918748E+02  0.21267640325E+02  0.27569308982E+02  0.51100000000E-03 0.  1.
         12    1    3    3    0    0 -0.59097696776E+00  0.13384517421E+02  0.53139213476E+01  0.14412921996E+02  0.00000000000E+00 0. -1.
</event>
<event>
 7    1  0.1246400E-009  0.4778727E+02  0.7816164E-02  0.1312668E+00
        -11   -1    0    0    0    0  0.00000000000E+00  0.00000000000E+00  0.45593999997E+02  0.45594000000E+02  0.51100000000E-03 0. -1.
         11   -1    0    0    0    0 -0.00000000000E+00 -0.00000000000E+00 -0.45593999997E+02  0.45594000000E+02  0.51100000000E-03 0.  1.
    9900012    2    1    2    0    0  0.94268395798E+01 -0.36199886314E+02 -0.22007410510E+02  0.47787271999E+02  0.20000004352E+02 0.  0.
         12    1    1    2    0    0 -0.94268395798E+01  0.36199886314E+02  0.22007410510E+02  0.43400728001E+02  0.00000000000E+00 0. -1.
         11    1    3    3    0    0  0.15132951415E+01 -0.24819282053E+02 -0.20538571969E+02  0.32250887780E+02  0.51100000000E-03 0. -1.
        -11    1    3    3    0    0  0.55918112056E+01 -0.11039727061E+02 -0.30010590104E+01  0.12733824311E+02  0.51100000000E-03 0.  1.
         12    1    3    3    0    0  0.23217332327E+01 -0.34087719978E+00  0.15322204689E+01  0.28025599074E+01  0.00000000000E+00 0. -1.
</event>
<event>
 7    1  0.1246400E-009  0.4778727E+02  0.7816164E-02  0.1312668E+00
        -11   -1    0    0    0    0  0.00000000000E+00  0.00000000000E+00  0.45593999997E+02  0.45594000000E+02  0.51100000000E-03 0.  1.
         11   -1    0    0    0    0 -0.00000000000E+00 -0.00000000000E+00 -0.45593999997E+02  0.45594000000E+02  0.51100000000E-03 0. -1.
    9900012    2    1    2    0    0  0.28641699353E+02 -0.20972677255E+02  0.24968444333E+02  0.47787270219E+02  0.19999996235E+02 0.  0.
         12    1    1    2    0    0 -0.28641699353E+02  0.20972677255E+02 -0.24968444333E+02  0.43400729781E+02  0.00000000000E+00 0. -1.
         11    1    3    3    0    0 -0.26550308514E+01 -0.10119357278E+01  0.38656861141E+01  0.47975756516E+01  0.51100000000E-03 0.  1.
        -11    1    3    3    0    0  0.20055108072E+02 -0.10801274853E+02  0.14892655307E+02  0.27215181068E+02  0.51100000000E-03 0. -1.
        -12    1    3    3    0    0  0.11241622133E+02 -0.91594666751E+01  0.62101029124E+01  0.15774513499E+02  0.00000000000E+00 0.  1.
</event>
<event>
 7    1  0.1246400E-009  0.4778727E+02  0.7816164E-02  0.1312668E+00
        -11   -1    0    0    0    0  0.00000000000E+00  0.00000000000E+00  0.45593999997E+02  0.45594000000E+02  0.51100000000E-03 0.  1.
         11   -1    0    0    0    0 -0.00000000000E+00 -0.00000000000E+00 -0.45593999997E+02  0.45594000000E+02  0.51100000000E-03 0. -1.
    9900012    2    1    2    0    0  0.39237887442E+02  0.69670711755E+01  0.17189280466E+02  0.47787271266E+02  0.20000001011E+02 0.  0.
         12    1    1    2    0    0 -0.39237887442E+02 -0.69670711755E+01 -0.17189280466E+02  0.43400728734E+02  0.00000000000E+00 0. -1.
         11    1    3    3    0    0  0.24430141016E+02  0.67111766230E+01  0.10703507234E+02  0.27503395228E+02  0.51100000000E-03 0. -1.
        -11    1    3    3    0    0  0.12459990944E+02  0.43448731518E+01  0.78767830225E+01  0.15367921398E+02  0.51100000000E-03 0.  1.
         12    1    3    3    0    0  0.23477554822E+01 -0.40889785993E+01 -0.13910097903E+01  0.49159546404E+01  0.00000000000E+00 0. -1.
</event>
<event>
 7    1  0.1246400E-009  0.4778727E+02  0.7816164E-02  0.1312668E+00
        -11   -1    0    0    0    0  0.00000000000E+00  0.00000000000E+00  0.45593999997E+02  0.45594000000E+02  0.51100000000E-03 0.  1.
         11   -1    0    0    0    0 -0.00000000000E+00 -0.00000000000E+00 -0.45593999997E+02  0.45594000000E+02  0.51100000000E-03 0. -1.
    9900012    2    1    2    0    0 -0.21400692838E+02  0.23019432300E+02  0.29928904394E+02  0.47787271486E+02  0.20000002012E+02 0.  0.
         12    1    1    2    0    0  0.21400692838E+02 -0.23019432300E+02 -0.29928904394E+02  0.43400728514E+02  0.00000000000E+00 0. -1.
         11    1    3    3    0    0 -0.58381086815E+01  0.11203479226E+02  0.14313724659E+02  0.19091468608E+02  0.51100000000E-03 0. -1.
        -11    1    3    3    0    0 -0.88351947947E+00  0.21845573117E+01  0.99836679088E+01  0.10257997977E+02  0.51100000000E-03 0.  1.
         12    1    3    3    0    0 -0.14679064677E+02  0.96313957623E+01  0.56315118264E+01  0.18437804901E+02  0.00000000000E+00 0. -1.
</event>
<event>
 7    1  0.1246400E-009  0.4778727E+02  0.7816164E-02  0.1312668E+00
        -11   -1    0    0    0    0  0.00000000000E+00  0.00000000000E+00  0.45593999997E+02  0.45594000000E+02  0.51100000000E-03 0.  1.
         11   -1    0    0    0    0 -0.00000000000E+00 -0.00000000000E+00 -0.45593999997E+02  0.45594000000E+02  0.51100000000E-03 0. -1.
    9900012    2    1    2    0    0  0.12869853309E+02 -0.12493053100E+02  0.39521057903E+02  0.47787268235E+02  0.19999987191E+02 0.  0.
         12    1    1    2    0    0 -0.12869853309E+02  0.12493053100E+02 -0.39521057903E+02  0.43400731765E+02  0.00000000000E+00 0. -1.
         11    1    3    3    0    0  0.16116809573E+02 -0.95665532309E+01  0.27689636686E+02  0.33436304694E+02  0.51100000000E-03 0. -1.
        -11    1    3    3    0    0 -0.46332546221E-01  0.64088807338E+00  0.84761846607E+01  0.85005053315E+01  0.51100000000E-03 0.  1.
         12    1    3    3    0    0 -0.32006237177E+01 -0.35673879420E+01  0.33552365568E+01  0.58504582096E+01  0.00000000000E+00 0. -1.
</event>
<event>
 7    1  0.1319286E-009  0.4778727E+02  0.7816164E-02  0.1312668E+00
        -11   -1    0    0    0    0  0.00000000000E+00  0.00000000000E+00  0.45593999997E+02  0.45594000000E+02  0.51100000000E-03 0.  1.
         11   -1    0    0    0    0 -0.00000000000E+00 -0.00000000000E+00 -0.45593999997E+02  0.45594000000E+02  0.51100000000E-03 0. -1.
    9900012    2    1    2    0    0  0.15910419261E+02  0.21335010559E+02  0.34282636183E+02  0.47787271201E+02  0.20000000712E+02 0.  0.
         12    1    1    2    0    0 -0.15910419261E+02 -0.21335010559E+02 -0.34282636183E+02  0.43400728799E+02  0.00000000000E+00 0. -1.
         11    1    3    3    0    0  0.39301448183E+00  0.10258447964E+02  0.60152830307E+01  0.11898480794E+02  0.51100000000E-03 0. -1.
        -11    1    3    3    0    0  0.22113201596E+01 -0.17928532630E+01  0.77424416776E+01  0.82492219671E+01  0.51100000000E-03 0.  1.
        -12    1    3    3    0    0  0.13306084620E+02  0.12869415858E+02  0.20524911475E+02  0.27639568439E+02  0.00000000000E+00 0.  1.
</event>
<event>
 7    1 -0.1246400E-009  0.4778729E+02  0.7816164E-02  0.1312668E+00
        -11   -1    0    0    0    0  0.00000000000E+00  0.00000000000E+00  0.45593999997E+02  0.45594000000E+02  0.51100000000E-03 0. -1.
         11   -1    0    0    0    0 -0.00000000000E+00 -0.00000000000E+00 -0.45593999997E+02  0.45594000000E+02  0.51100000000E-03 0.  1.
    9900012    2    1    2    0    0  0.30344964806E+02 -0.62104539641E+01 -0.30401235148E+02  0.47787288876E+02  0.20000081301E+02 0.  0.
         12    1    1    2    0    0 -0.30344964806E+02  0.62104539641E+01  0.30401235148E+02  0.43400711124E+02  0.00000000000E+00 0. -1.
         11    1    3    3    0    0  0.31583473270E+01  0.44266851255E+01 -0.56964644863E+01  0.78753036096E+01  0.51100000000E-03 0. -1.
        -11    1    3    3    0    0  0.65236895917E+01 -0.44590847644E+01 -0.13414006785E+02  0.15568479088E+02  0.51100000000E-03 0.  1.
        -12    1    3    3    0    0  0.20662927888E+02 -0.61780543253E+01 -0.11290763877E+02  0.24343506178E+02  0.00000000000E+00 0.  1.
</event>
<event>
 7    1  0.1246400E-009  0.4778727E+02  0.7816164E-02  0.1312668E+00
        -11   -1    0    0    0    0  0.00000000000E+00  0.00000000000E+00  0.45593999997E+02  0.45594000000E+02  0.51100000000E-03 0. -1.
         11   -1    0    0    0    0 -0.00000000000E+00 -0.00000000000E+00 -0.45593999997E+02  0.45594000000E+02  0.51100000000E-03 0.  1.
    9900012    2    1    2    0    0 -0.41164198914E+02 -0.94606147919E-01 -0.13752190844E+02  0.47787274481E+02  0.20000015671E+02 0.  0.
         12    1    1    2    0    0  0.41164198914E+02  0.94606147919E-01  0.13752190844E+02  0.43400725519E+02  0.00000000000E+00 0. -1.
         11    1    3    3    0    0 -0.14540642416E+02  0.37342453023E+01 -0.10397628315E+02  0.18261586587E+02  0.51100000000E-03 0. -1.
        -11    1    3    3    0    0 -0.32546056423E+01  0.21872923969E+01  0.25568239759E+01  0.46812450290E+01  0.51100000000E-03 0.  1.
        -12    1    3    3    0    0 -0.23368950855E+02 -0.60161438470E+01 -0.59113865052E+01  0.24844442865E+02  0.00000000000E+00 0.  1.
</event>
<event>
 7    1  0.1246400E-009  0.4778727E+02  0.7816164E-02  0.1312668E+00
        -11   -1    0    0    0    0  0.00000000000E+00  0.00000000000E+00  0.45593999997E+02  0.45594000000E+02  0.51100000000E-03 0.  1.
         11   -1    0    0    0    0 -0.00000000000E+00 -0.00000000000E+00 -0.45593999997E+02  0.45594000000E+02  0.51100000000E-03 0. -1.
    9900012    2    1    2    0    0  0.16917768170E+02  0.36888715540E+02  0.15382942462E+02  0.47787272669E+02  0.20000007406E+02 0.  0.
         12    1    1    2    0    0 -0.16917768170E+02 -0.36888715540E+02 -0.15382942462E+02  0.43400727331E+02  0.00000000000E+00 0. -1.
         11    1    3    3    0    0  0.32249580123E+01  0.19695653088E+02  0.11038370351E+02  0.22807120050E+02  0.51100000000E-03 0. -1.
        -11    1    3    3    0    0  0.49388290944E+01  0.14682239810E+02  0.28840349829E+01  0.15756835237E+02  0.51100000000E-03 0.  1.
         12    1    3    3    0    0  0.87539810636E+01  0.25108226431E+01  0.14605371279E+01  0.92233173809E+01  0.00000000000E+00 0. -1.
</event>
<event>
 7    1  0.1246400E-009  0.4778727E+02  0.7816164E-02  0.1312668E+00
        -11   -1    0    0    0    0  0.00000000000E+00  0.00000000000E+00  0.45593999997E+02  0.45594000000E+02  0.51100000000E-03 0.  1.
         11   -1    0    0    0    0 -0.00000000000E+00 -0.00000000000E+00 -0.45593999997E+02  0.45594000000E+02  0.51100000000E-03 0. -1.
    9900012    2    1    2    0    0 -0.34558856845E+02  0.26209765438E+02  0.15351453412E+01  0.47787273486E+02  0.20000011132E+02 0.  0.
         12    1    1    2    0    0  0.34558856845E+02 -0.26209765438E+02 -0.15351453412E+01  0.43400726514E+02  0.00000000000E+00 0. -1.
         11    1    3    3    0    0 -0.18861191734E+02  0.44874669854E+01  0.88527367822E+00  0.19407875291E+02  0.51100000000E-03 0. -1.
        -11    1    3    3    0    0 -0.11551521801E+02  0.81633105219E+01 -0.50348893490E+00  0.14153826195E+02  0.51100000000E-03 0.  1.
        -12    1    3    3    0    0 -0.41461433101E+01  0.13558987931E+02  0.11533605979E+01  0.14225572000E+02  0.00000000000E+00 0.  1.
</event>
<event>
 7    1  0.1246400E-009  0.4778727E+02  0.7816164E-02  0.1312668E+00
        -11   -1    0    0    0    0  0.00000000000E+00  0.00000000000E+00  0.45593999997E+02  0.45594000000E+02  0.51100000000E-03 0.  1.
         11   -1    0    0    0    0 -0.00000000000E+00 -0.00000000000E+00 -0.45593999997E+02  0.45594000000E+02  0.51100000000E-03 0. -1.
    9900012    2    1    2    0    0 -0.28583208234E+02 -0.29181299426E+02  0.14665454144E+02  0.47787267582E+02  0.19999984215E+02 0.  0.
         12    1    1    2    0    0  0.28583208234E+02  0.29181299426E+02 -0.14665454144E+02  0.43400732418E+02  0.00000000000E+00 0. -1.
         11    1    3    3    0    0 -0.15288223127E+02 -0.15856426400E+02  0.34992455206E+01  0.22302482912E+02  0.51100000000E-03 0. -1.
        -11    1    3    3    0    0 -0.13062573178E+02 -0.42447529719E+01  0.78188255784E+01  0.15804517693E+02  0.51100000000E-03 0.  1.
        -12    1    3    3    0    0 -0.23241192892E+00 -0.90801200544E+01  0.33473830453E+01  0.96802669776E+01  0.00000000000E+00 0.  1.
</event>
<event>
 7    1  0.1246400E-009  0.4778727E+02  0.7816164E-02  0.1312668E+00
        -11   -1    0    0    0    0  0.00000000000E+00  0.00000000000E+00  0.45593999997E+02  0.45594000000E+02  0.51100000000E-03 0.  1.
         11   -1    0    0    0    0 -0.00000000000E+00 -0.00000000000E+00 -0.45593999997E+02  0.45594000000E+02  0.51100000000E-03 0. -1.
    9900012    2    1    2    0    0  0.18613380726E+01 -0.10583227012E+02  0.42049421059E+02  0.47787273222E+02  0.20000009930E+02 0.  0.
         12    1    1    2    0    0 -0.18613380726E+01  0.10583227012E+02 -0.42049421059E+02  0.43400726778E+02  0.00000000000E+00 0. -1.
         11    1    3    3    0    0 -0.28509678208E+01  0.21003127995E+01  0.55157036092E+01  0.65545646641E+01  0.51100000000E-03 0. -1.
        -11    1    3    3    0    0 -0.41728663122E+01 -0.76713673952E+01  0.14048532890E+02  0.16541582983E+02  0.51100000000E-03 0.  1.
        -12    1    3    3    0    0  0.88851722057E+01 -0.50121724160E+01  0.22485184560E+02  0.24691125575E+02  0.00000000000E+00 0.  1.
</event>
<event>
 7    1  0.1246400E-009  0.4778727E+02  0.7816164E-02  0.1312668E+00
        -11   -1    0    0    0    0  0.00000000000E+00  0.00000000000E+00  0.45593999997E+02  0.45594000000E+02  0.51100000000E-03 0. -1.
         11   -1    0    0    0    0 -0.00000000000E+00 -0.00000000000E+00 -0.45593999997E+02  0.45594000000E+02  0.51100000000E-03 0.  1.
    9900012    2    1    2    0    0 -0.20124899144E+02 -0.37764916357E+02 -0.72403499576E+01  0.47787272581E+02  0.20000007004E+02 0.  0.
         12    1    1    2    0    0  0.20124899144E+02  0.37764916357E+02  0.72403499576E+01  0.43400727419E+02  0.00000000000E+00 0. -1.
         11    1    3    3    0    0 -0.17903976951E+02 -0.18156113925E+02 -0.35321197369E+00  0.25501404324E+02  0.51100000000E-03 0.  1.
        -11    1    3    3    0    0  0.15920754353E+01 -0.55888824372E+00 -0.43231688858E-01  0.16878772173E+01  0.51100000000E-03 0. -1.
         12    1    3    3    0    0 -0.38129976284E+01 -0.19049914188E+02 -0.68439062950E+01  0.20597991040E+02  0.00000000000E+00 0. -1.
</event>
<event>
 7    1  0.1246400E-009  0.4778728E+02  0.7816164E-02  0.1312668E+00
        -11   -1    0    0    0    0  0.00000000000E+00  0.00000000000E+00  0.45593999997E+02  0.45594000000E+02  0.51100000000E-03 0.  1.
         11   -1    0    0    0    0 -0.00000000000E+00 -0.00000000000E+00 -0.45593999997E+02  0.45594000000E+02  0.51100000000E-03 0. -1.
    9900012    2    1    2    0    0 -0.42354756723E+02  0.39263144216E+01  0.86186592492E+01  0.47787278240E+02  0.20000032808E+02 0.  0.
         12    1    1    2    0    0  0.42354756723E+02 -0.39263144216E+01 -0.86186592492E+01  0.43400721760E+02  0.00000000000E+00 0. -1.
         11    1    3    3    0    0 -0.56288505751E-01 -0.17875609791E+01  0.12093073765E+01  0.21589273359E+01  0.51100000000E-03 0.  1.
        -11    1    3    3    0    0 -0.23144572058E+01  0.41209131603E+01 -0.76039429814E+00  0.47871533485E+01  0.51100000000E-03 0. -1.
        -12    1    3    3    0    0 -0.39984011012E+02  0.15929622404E+01  0.81697461708E+01  0.40841197556E+02  0.00000000000E+00 0.  1.
</event>
<event>
 7    1  0.1246400E-009  0.4778727E+02  0.7816164E-02  0.1312668E+00
        -11   -1    0    0    0    0  0.00000000000E+00  0.00000000000E+00  0.45593999997E+02  0.45594000000E+02  0.51100000000E-03 0.  1.
         11   -1    0    0    0    0 -0.00000000000E+00 -0.00000000000E+00 -0.45593999997E+02  0.45594000000E+02  0.51100000000E-03 0. -1.
    9900012    2    1    2    0    0 -0.31236729543E+02 -0.28400815665E+02  0.10063994947E+02  0.47787267318E+02  0.19999983012E+02 0.  0.
         12    1    1    2    0    0  0.31236729543E+02  0.28400815665E+02 -0.10063994947E+02  0.43400732682E+02  0.00000000000E+00 0. -1.
         11    1    3    3    0    0 -0.55195991774E+01 -0.46124689711E+01 -0.25556750348E+01  0.76336308683E+01  0.51100000000E-03 0. -1.
        -11    1    3    3    0    0  0.75562915376E+00 -0.59145634672E+01  0.47707169423E+00  0.59816915742E+01  0.51100000000E-03 0.  1.
         12    1    3    3    0    0 -0.26472759520E+02 -0.17873783227E+02  0.12142598288E+02  0.34171944876E+02  0.00000000000E+00 0. -1.
</event>
<event>
 7    1  0.1246400E-009  0.4778727E+02  0.7816164E-02  0.1312668E+00
        -11   -1    0    0    0    0  0.00000000000E+00  0.00000000000E+00  0.45593999997E+02  0.45594000000E+02  0.51100000000E-03 0. -1.
         11   -1    0    0    0    0 -0.00000000000E+00 -0.00000000000E+00 -0.45593999997E+02  0.45594000000E+02  0.51100000000E-03 0.  1.
    9900012    2    1    2    0    0 -0.25994559520E+02  0.22416491783E+02 -0.26559495983E+02  0.47787273562E+02  0.20000011478E+02 0.  0.
         12    1    1    2    0    0  0.25994559520E+02 -0.22416491783E+02  0.26559495983E+02  0.43400726438E+02  0.00000000000E+00 0. -1.
         11    1    3    3    0    0 -0.95160385970E+01  0.15920592860E+02 -0.89902100438E+01  0.20611747730E+02  0.51100000000E-03 0. -1.
        -11    1    3    3    0    0 -0.16095355437E+02  0.84081073449E+01 -0.17507422589E+02  0.25224325199E+02  0.51100000000E-03 0.  1.
        -12    1    3    3    0    0 -0.38316548578E+00 -0.19122084218E+01 -0.61863350913E-01  0.19512006335E+01  0.00000000000E+00 0.  1.
</event>
<event>
 7    1  0.1246400E-009  0.4778726E+02  0.7816164E-02  0.1312668E+00
        -11   -1    0    0    0    0  0.00000000000E+00  0.00000000000E+00  0.45593999997E+02  0.45594000000E+02  0.51100000000E-03 0.  1.
         11   -1    0    0    0    0 -0.00000000000E+00 -0.00000000000E+00 -0.45593999997E+02  0.45594000000E+02  0.51100000000E-03 0. -1.
    9900012    2    1    2    0    0 -0.11724446864E+02  0.17042817403E+02  0.38153684548E+02  0.47787263556E+02  0.19999965858E+02 0.  0.
         12    1    1    2    0    0  0.11724446864E+02 -0.17042817403E+02 -0.38153684548E+02  0.43400736444E+02  0.00000000000E+00 0. -1.
         11    1    3    3    0    0 -0.14179513882E+02  0.68757212419E+01  0.30536862492E+02  0.34363267127E+02  0.51100000000E-03 0. -1.
        -11    1    3    3    0    0 -0.44447700454E+00  0.45634292744E+01  0.21009023330E+01  0.50434350817E+01  0.51100000000E-03 0.  1.
        -12    1    3    3    0    0  0.28995440220E+01  0.56036668865E+01  0.55159197233E+01  0.83805613478E+01  0.00000000000E+00 0.  1.
</event>
<event>
 7    1  0.1246400E-009  0.4778727E+02  0.7816164E-02  0.1312668E+00
        -11   -1    0    0    0    0  0.00000000000E+00  0.00000000000E+00  0.45593999997E+02  0.45594000000E+02  0.51100000000E-03 0.  1.
         11   -1    0    0    0    0 -0.00000000000E+00 -0.00000000000E+00 -0.45593999997E+02  0.45594000000E+02  0.51100000000E-03 0. -1.
    9900012    2    1    2    0    0  0.13508061726E+02  0.39999278309E+02  0.10060477147E+02  0.47787271927E+02  0.20000004026E+02 0.  0.
         12    1    1    2    0    0 -0.13508061726E+02 -0.39999278309E+02 -0.10060477147E+02  0.43400728073E+02  0.00000000000E+00 0. -1.
         11    1    3    3    0    0  0.22376964692E+01  0.16886674468E+02  0.10353678952E+02  0.19934034418E+02  0.51100000000E-03 0. -1.
        -11    1    3    3    0    0 -0.17190763026E+00  0.64573527519E+00 -0.24584282229E+01  0.25476255351E+01  0.51100000000E-03 0.  1.
        -12    1    3    3    0    0  0.11442272887E+02  0.22466868565E+02  0.21652264176E+01  0.25305611974E+02  0.00000000000E+00 0.  1.
</event>
<event>
 7    1  0.1246400E-009  0.4778727E+02  0.7816164E-02  0.1312668E+00
        -11   -1    0    0    0    0  0.00000000000E+00  0.00000000000E+00  0.45593999997E+02  0.45594000000E+02  0.51100000000E-03 0.  1.
         11   -1    0    0    0    0 -0.00000000000E+00 -0.00000000000E+00 -0.45593999997E+02  0.45594000000E+02  0.51100000000E-03 0. -1.
    9900012    2    1    2    0    0 -0.29271477289E+02  0.86799836781E+00  0.32032022422E+02  0.47787271154E+02  0.20000000500E+02 0.  0.
         12    1    1    2    0    0  0.29271477289E+02 -0.86799836781E+00 -0.32032022422E+02  0.43400728846E+02  0.00000000000E+00 0. -1.
         11    1    3    3    0    0 -0.25090750336E+02 -0.74040632456E+00  0.22910531987E+02  0.33985091292E+02  0.51100000000E-03 0. -1.
        -11    1    3    3    0    0 -0.68020954805E+01 -0.12921625377E+00  0.43087785898E+01  0.80529977625E+01  0.51100000000E-03 0.  1.
        -12    1    3    3    0    0  0.26213685269E+01  0.17376209461E+01  0.48127118453E+01  0.57491820994E+01  0.00000000000E+00 0.  1.
</event>
<event>
 7    1  0.1246400E-009  0.4778727E+02  0.7816164E-02  0.1312668E+00
        -11   -1    0    0    0    0  0.00000000000E+00  0.00000000000E+00  0.45593999997E+02  0.45594000000E+02  0.51100000000E-03 0. -1.
         11   -1    0    0    0    0 -0.00000000000E+00 -0.00000000000E+00 -0.45593999997E+02  0.45594000000E+02  0.51100000000E-03 0.  1.
    9900012    2    1    2    0    0 -0.38455218321E+02 -0.11252741009E+02 -0.16679183042E+02  0.47787272549E+02  0.20000006862E+02 0.  0.
         12    1    1    2    0    0  0.38455218321E+02  0.11252741009E+02  0.16679183042E+02  0.43400727451E+02  0.00000000000E+00 0. -1.
         11    1    3    3    0    0 -0.26336899232E+01  0.16752509381E+01  0.32296311337E+01  0.44914703425E+01  0.51100000000E-03 0. -1.
        -11    1    3    3    0    0 -0.14208160180E+02 -0.25503693650E+01 -0.83939776640E+01  0.16698355035E+02  0.51100000000E-03 0.  1.
         12    1    3    3    0    0 -0.21613368218E+02 -0.10377622582E+02 -0.11514836511E+02  0.26597447172E+02  0.00000000000E+00 0. -1.
</event>
<event>
 7    1  0.1246400E-009  0.4778727E+02  0.7816164E-02  0.1312668E+00
        -11   -1    0    0    0    0  0.00000000000E+00  0.00000000000E+00  0.45593999997E+02  0.45594000000E+02  0.51100000000E-03 0.  1.
         11   -1    0    0    0    0 -0.00000000000E+00 -0.00000000000E+00 -0.45593999997E+02  0.45594000000E+02  0.51100000000E-03 0. -1.
    9900012    2    1    2    0    0  0.25414162123E+02  0.34492269623E+02  0.69301395187E+01  0.47787272657E+02  0.20000007355E+02 0.  0.
         12    1    1    2    0    0 -0.25414162123E+02 -0.34492269623E+02 -0.69301395187E+01  0.43400727343E+02  0.00000000000E+00 0. -1.
         11    1    3    3    0    0  0.11334892501E+02  0.29061126779E+02  0.41029165252E+01  0.31462085150E+02  0.51100000000E-03 0. -1.
        -11    1    3    3    0    0  0.52549335863E+01  0.29121941642E+01  0.37814144436E+01  0.70988940901E+01  0.51100000000E-03 0.  1.
         12    1    3    3    0    0  0.88243360351E+01  0.25189486793E+01 -0.95419145014E+00  0.92262934179E+01  0.00000000000E+00 0. -1.
</event>
<event>
 7    1  0.1246400E-009  0.4778726E+02  0.7816164E-02  0.1312668E+00
        -11   -1    0    0    0    0  0.00000000000E+00  0.00000000000E+00  0.45593999997E+02  0.45594000000E+02  0.51100000000E-03 0. -1.
         11   -1    0    0    0    0 -0.00000000000E+00 -0.00000000000E+00 -0.45593999997E+02  0.45594000000E+02  0.51100000000E-03 0.  1.
    9900012    2    1    2    0    0  0.29039829084E+02 -0.20191723036E+02 -0.25151670859E+02  0.47787263838E+02  0.19999967142E+02 0.  0.
         12    1    1    2    0    0 -0.29039829084E+02  0.20191723036E+02  0.25151670859E+02  0.43400736162E+02  0.00000000000E+00 0. -1.
         11    1    3    3    0    0 -0.13549702067E+01 -0.81451917531E+00 -0.18609875472E+00  0.15918601558E+01  0.51100000000E-03 0. -1.
        -11    1    3    3    0    0 -0.56882723986E+00  0.14454366176E+01 -0.93579325701E+00  0.18134389224E+01  0.51100000000E-03 0.  1.
        -12    1    3    3    0    0  0.30963626531E+02 -0.20822640479E+02 -0.24029778848E+02  0.44381964759E+02  0.00000000000E+00 0.  1.
</event>
<event>
 7    1  0.1246400E-009  0.4778729E+02  0.7816164E-02  0.1312668E+00
        -11   -1    0    0    0    0  0.00000000000E+00  0.00000000000E+00  0.45593999997E+02  0.45594000000E+02  0.51100000000E-03 0.  1.
         11   -1    0    0    0    0 -0.00000000000E+00 -0.00000000000E+00 -0.45593999997E+02  0.45594000000E+02  0.51100000000E-03 0. -1.
    9900012    2    1    2    0    0 -0.20029390810E+02  0.18904583925E+02  0.33541942928E+02  0.47787288888E+02  0.20000081357E+02 0.  0.
         12    1    1    2    0    0  0.20029390810E+02 -0.18904583925E+02 -0.33541942928E+02  0.43400711112E+02  0.00000000000E+00 0. -1.
         11    1    3    3    0    0 -0.12363208604E+02  0.92050505047E+01  0.76639682235E+01  0.17213898192E+02  0.51100000000E-03 0. -1.
        -11    1    3    3    0    0 -0.41303081709E+01  0.10961553992E+02  0.14788933523E+02  0.18866045333E+02  0.51100000000E-03 0.  1.
        -12    1    3    3    0    0 -0.35358740348E+01 -0.12620205714E+01  0.11089041182E+02  0.11707345363E+02  0.00000000000E+00 0.  1.
</event>
<event>
 7    1  0.1246400E-009  0.4778727E+02  0.7816164E-02  0.1312668E+00
        -11   -1    0    0    0    0  0.00000000000E+00  0.00000000000E+00  0.45593999997E+02  0.45594000000E+02  0.51100000000E-03 0. -1.
         11   -1    0    0    0    0 -0.00000000000E+00 -0.00000000000E+00 -0.45593999997E+02  0.45594000000E+02  0.51100000000E-03 0.  1.
    9900012    2    1    2    0    0  0.20806415194E+02 -0.10197893344E+02 -0.36697676003E+02  0.47787269984E+02  0.19999995166E+02 0.  0.
         12    1    1    2    0    0 -0.20806415194E+02  0.10197893344E+02  0.36697676003E+02  0.43400730016E+02  0.00000000000E+00 0. -1.
         11    1    3    3    0    0 -0.17545682561E+01 -0.89821544203E+00 -0.17082593095E+01  0.26083425532E+01  0.51100000000E-03 0. -1.
        -11    1    3    3    0    0 -0.13038289642E+01  0.85571824765E+00  0.79263964293E-01  0.15615718762E+01  0.51100000000E-03 0.  1.
        -12    1    3    3    0    0  0.23864812415E+02 -0.10155396150E+02 -0.35068680657E+02  0.43617355555E+02  0.00000000000E+00 0.  1.
</event>
<event>
 7    1  0.1246400E-009  0.4778726E+02  0.7816164E-02  0.1312668E+00
        -11   -1    0    0    0    0  0.00000000000E+00  0.00000000000E+00  0.45593999997E+02  0.45594000000E+02  0.51100000000E-03 0. -1.
         11   -1    0    0    0    0 -0.00000000000E+00 -0.00000000000E+00 -0.45593999997E+02  0.45594000000E+02  0.51100000000E-03 0.  1.
    9900012    2    1    2    0    0  0.31094869306E+00 -0.75466797792E+01 -0.42738450568E+02  0.47787260124E+02  0.19999950212E+02 0.  0.
         12    1    1    2    0    0 -0.31094869306E+00  0.75466797792E+01  0.42738450568E+02  0.43400739876E+02  0.00000000000E+00 0. -1.
         11    1    3    3    0    0 -0.28152770318E+01  0.22948541043E+01 -0.18798241419E+02  0.19145913946E+02  0.51100000000E-03 0. -1.
        -11    1    3    3    0    0  0.63231200936E+01 -0.27103745264E+01 -0.16388476001E+02  0.17773860686E+02  0.51100000000E-03 0.  1.
         12    1    3    3    0    0 -0.31968943688E+01 -0.71311593571E+01 -0.75517331477E+01  0.10867485492E+02  0.00000000000E+00 0. -1.
</event>
<event>
 7    1  0.1246400E-009  0.4778727E+02  0.7816164E-02  0.1312668E+00
        -11   -1    0    0    0    0  0.00000000000E+00  0.00000000000E+00  0.45593999997E+02  0.45594000000E+02  0.51100000000E-03 0. -1.
         11   -1    0    0    0    0 -0.00000000000E+00 -0.00000000000E+00 -0.45593999997E+02  0.45594000000E+02  0.51100000000E-03 0.  1.
    9900012    2    1    2    0    0 -0.22013690078E+02 -0.35681163171E+02  0.11219412909E+02  0.47787272102E+02  0.20000004821E+02 0.  0.
         12    1    1    2    0    0  0.22013690078E+02  0.35681163171E+02 -0.11219412909E+02  0.43400727898E+02  0.00000000000E+00 0. -1.
         11    1    3    3    0    0 -0.62404349481E+01 -0.92380745346E+01 -0.32959426795E+01  0.11625329581E+02  0.51100000000E-03 0. -1.
        -11    1    3    3    0    0 -0.79364906763E+01 -0.15055761548E+02  0.13510232233E+01  0.17073051984E+02  0.51100000000E-03 0.  1.
        -12    1    3    3    0    0 -0.78367644532E+01 -0.11387327088E+02  0.13164332365E+02  0.19088890537E+02  0.00000000000E+00 0.  1.
</event>
<event>
 7    1  0.1246400E-009  0.4778727E+02  0.7816164E-02  0.1312668E+00
        -11   -1    0    0    0    0  0.00000000000E+00  0.00000000000E+00  0.45593999997E+02  0.45594000000E+02  0.51100000000E-03 0.  1.
         11   -1    0    0    0    0 -0.00000000000E+00 -0.00000000000E+00 -0.45593999997E+02  0.45594000000E+02  0.51100000000E-03 0. -1.
    9900012    2    1    2    0    0 -0.15781077440E+02  0.22841370737E+02  0.33359444181E+02  0.47787272606E+02  0.20000007120E+02 0.  0.
         12    1    1    2    0    0  0.15781077440E+02 -0.22841370737E+02 -0.33359444181E+02  0.43400727394E+02  0.00000000000E+00 0. -1.
         11    1    3    3    0    0 -0.11644903478E+01  0.92084914938E+01  0.33990360894E+01  0.98846244218E+01  0.51100000000E-03 0. -1.
        -11    1    3    3    0    0 -0.85177454205E+01  0.12368847946E+02  0.27240878481E+02  0.31106363453E+02  0.51100000000E-03 0.  1.
         12    1    3    3    0    0 -0.60988416715E+01  0.12640312969E+01  0.27195296102E+01  0.67962847317E+01  0.00000000000E+00 0. -1.
</event>
<event>
 7    1  0.1246400E-009  0.4778727E+02  0.7816164E-02  0.1312668E+00
        -11   -1    0    0    0    0  0.00000000000E+00  0.00000000000E+00  0.45593999997E+02  0.45594000000E+02  0.51100000000E-03 0.  1.
         11   -1    0    0    0    0 -0.00000000000E+00 -0.00000000000E+00 -0.45593999997E+02  0.45594000000E+02  0.51100000000E-03 0. -1.
    9900012    2    1    2    0    0  0.39305866790E+02 -0.17964442209E+02 -0.39938564042E+01  0.47787271470E+02  0.20000001938E+02 0.  0.
         12    1    1    2    0    0 -0.39305866790E+02  0.17964442209E+02  0.39938564042E+01  0.43400728530E+02  0.00000000000E+00 0. -1.
         11    1    3    3    0    0  0.50727016249E+00 -0.30285197198E+01 -0.33140834946E+01  0.45180088957E+01  0.51100000000E-03 0. -1.
        -11    1    3    3    0    0  0.25563633536E+02 -0.10361807392E+02 -0.61060692846E+01  0.28251557380E+02  0.51100000000E-03 0.  1.
         12    1    3    3    0    0  0.13234963091E+02 -0.45741150972E+01  0.54262963750E+01  0.15017705194E+02  0.00000000000E+00 0. -1.
</event>
<event>
 7    1  0.1246400E-009  0.4778727E+02  0.7816164E-02  0.1312668E+00
        -11   -1    0    0    0    0  0.00000000000E+00  0.00000000000E+00  0.45593999997E+02  0.45594000000E+02  0.51100000000E-03 0. -1.
         11   -1    0    0    0    0 -0.00000000000E+00 -0.00000000000E+00 -0.45593999997E+02  0.45594000000E+02  0.51100000000E-03 0.  1.
    9900012    2    1    2    0    0  0.25475571954E+02 -0.33051940158E+02 -0.11924249159E+02  0.47787271520E+02  0.20000002167E+02 0.  0.
         12    1    1    2    0    0 -0.25475571954E+02  0.33051940158E+02  0.11924249159E+02  0.43400728480E+02  0.00000000000E+00 0. -1.
         11    1    3    3    0    0  0.14967436980E+01 -0.73474089579E+01  0.44904002441E+01  0.87400431752E+01  0.51100000000E-03 0. -1.
        -11    1    3    3    0    0  0.67098097180E+01 -0.98605868209E+01 -0.44163217840E+01  0.12718357491E+02  0.51100000000E-03 0.  1.
        -12    1    3    3    0    0  0.17269018538E+02 -0.15843944379E+02 -0.11998327619E+02  0.26328870854E+02  0.00000000000E+00 0.  1.
</event>
<event>
 7    1  0.1246400E-009  0.4778727E+02  0.7816164E-02  0.1312668E+00
        -11   -1    0    0    0    0  0.00000000000E+00  0.00000000000E+00  0.45593999997E+02  0.45594000000E+02  0.51100000000E-03 0.  1.
         11   -1    0    0    0    0 -0.00000000000E+00 -0.00000000000E+00 -0.45593999997E+02  0.45594000000E+02  0.51100000000E-03 0. -1.
    9900012    2    1    2    0    0 -0.35804666264E+02 -0.35374536230E+01  0.24272116671E+02  0.47787270144E+02  0.19999995893E+02 0.  0.
         12    1    1    2    0    0  0.35804666264E+02  0.35374536230E+01 -0.24272116671E+02  0.43400729856E+02  0.00000000000E+00 0. -1.
         11    1    3    3    0    0 -0.37032339930E+01  0.23672151073E+01 -0.14296417743E+01  0.46218530088E+01  0.51100000000E-03 0. -1.
        -11    1    3    3    0    0 -0.26398957480E+02  0.78205246426E-01  0.19020617094E+02  0.32537592827E+02  0.51100000000E-03 0.  1.
         12    1    3    3    0    0 -0.57024747910E+01 -0.59828739767E+01  0.66811413509E+01  0.10627824308E+02  0.00000000000E+00 0. -1.
</event>
<event>
 7    1  0.1246400E-009  0.4778725E+02  0.7816164E-02  0.1312668E+00
        -11   -1    0    0    0    0  0.00000000000E+00  0.00000000000E+00  0.45593999997E+02  0.45594000000E+02  0.51100000000E-03 0. -1.
         11   -1    0    0    0    0 -0.00000000000E+00 -0.00000000000E+00 -0.45593999997E+02  0.45594000000E+02  0.51100000000E-03 0.  1.
    9900012    2    1    2    0    0  0.29293615283E+02  0.28597630088E+02 -0.14411262588E+02  0.47787253090E+02  0.19999918137E+02 0.  0.
         12    1    1    2    0    0 -0.29293615283E+02 -0.28597630088E+02  0.14411262588E+02  0.43400746910E+02  0.00000000000E+00 0. -1.
         11    1    3    3    0    0  0.67585583533E+01  0.17643998209E+01 -0.76633686751E+01  0.10369109772E+02  0.51100000000E-03 0. -1.
        -11    1    3    3    0    0  0.12986760087E+01  0.88493128950E+01 -0.97034858051E+00  0.89965812794E+01  0.51100000000E-03 0.  1.
        -12    1    3    3    0    0  0.21236380921E+02  0.17983917372E+02 -0.57775453322E+01  0.28421562039E+02  0.00000000000E+00 0.  1.
</event>
<event>
 7    1  0.1246400E-009  0.4778728E+02  0.7816164E-02  0.1312668E+00
        -11   -1    0    0    0    0  0.00000000000E+00  0.00000000000E+00  0.45593999997E+02  0.45594000000E+02  0.51100000000E-03 0.  1.
         11   -1    0    0    0    0 -0.00000000000E+00 -0.00000000000E+00 -0.45593999997E+02  0.45594000000E+02  0.51100000000E-03 0. -1.
    9900012    2    1    2    0    0 -0.67453872085E+00  0.65215757589E+01  0.42902639088E+02  0.47787281186E+02  0.20000046241E+02 0.  0.
         12    1    1    2    0    0  0.67453872085E+00 -0.65215757589E+01 -0.42902639088E+02  0.43400718814E+02  0.00000000000E+00 0. -1.
         11    1    3    3    0    0 -0.19631164232E+01  0.90093685101E+01  0.23140906663E+02  0.24910321324E+02  0.51100000000E-03 0. -1.
        -11    1    3    3    0    0 -0.45034505775E+01 -0.22102211735E+01  0.13194973764E+02  0.14116425810E+02  0.51100000000E-03 0.  1.
         12    1    3    3    0    0  0.57920282799E+01 -0.27757157775E+00  0.65667586603E+01  0.87605340521E+01  0.00000000000E+00 0. -1.
</event>
<event>
 7    1  0.1246400E-009  0.4778727E+02  0.7816164E-02  0.1312668E+00
        -11   -1    0    0    0    0  0.00000000000E+00  0.00000000000E+00  0.45593999997E+02  0.45594000000E+02  0.51100000000E-03 0.  1.
         11   -1    0    0    0    0 -0.00000000000E+00 -0.00000000000E+00 -0.45593999997E+02  0.45594000000E+02  0.51100000000E-03 0. -1.
    9900012    2    1    2    0    0  0.19891667328E+02 -0.42265899177E+01  0.38341631693E+02  0.47787271754E+02  0.20000003235E+02 0.  0.
         12    1    1    2    0    0 -0.19891667328E+02  0.42265899177E+01 -0.38341631693E+02  0.43400728246E+02  0.00000000000E+00 0. -1.
         11    1    3    3    0    0  0.12270317256E+02 -0.82401119428E+01  0.19054674527E+02  0.24115156064E+02  0.51100000000E-03 0. -1.
        -11    1    3    3    0    0 -0.11616664417E+00 -0.37910591095E+00  0.12436956447E+02  0.12443275369E+02  0.51100000000E-03 0.  1.
         12    1    3    3    0    0  0.77375167162E+01  0.43926279361E+01  0.68500007188E+01  0.11228840321E+02  0.00000000000E+00 0. -1.
</event>
<event>
 7    1  0.1246400E-009  0.4778727E+02  0.7816164E-02  0.1312668E+00
        -11   -1    0    0    0    0  0.00000000000E+00  0.00000000000E+00  0.45593999997E+02  0.45594000000E+02  0.51100000000E-03 0. -1.
         11   -1    0    0    0    0 -0.00000000000E+00 -0.00000000000E+00 -0.45593999997E+02  0.45594000000E+02  0.51100000000E-03 0.  1.
    9900012    2    1    2    0    0 -0.21887894695E+02  0.35765076429E+02 -0.11198334455E+02  0.47787270505E+02  0.19999997539E+02 0.  0.
         12    1    1    2    0    0  0.21887894695E+02 -0.35765076429E+02  0.11198334455E+02  0.43400729495E+02  0.00000000000E+00 0. -1.
         11    1    3    3    0    0 -0.86453537080E+01  0.18391126191E+02 -0.28538786966E+01  0.20521215539E+02  0.51100000000E-03 0.  1.
        -11    1    3    3    0    0 -0.62767070255E+01  0.90694563566E+01 -0.11542446069E+02  0.15964966371E+02  0.51100000000E-03 0. -1.
         12    1    3    3    0    0 -0.69658339613E+01  0.83044938819E+01  0.31979903114E+01  0.11301088595E+02  0.00000000000E+00 0. -1.
</event>
<event>
 7    1  0.1246400E-009  0.4778727E+02  0.7816164E-02  0.1312668E+00
        -11   -1    0    0    0    0  0.00000000000E+00  0.00000000000E+00  0.45593999997E+02  0.45594000000E+02  0.51100000000E-03 0.  1.
         11   -1    0    0    0    0 -0.00000000000E+00 -0.00000000000E+00 -0.45593999997E+02  0.45594000000E+02  0.51100000000E-03 0. -1.
    9900012    2    1    2    0    0 -0.42954104411E+02 -0.62077298259E+01 -0.17939616225E+00  0.47787272145E+02  0.20000005018E+02 0.  0.
         12    1    1    2    0    0  0.42954104411E+02  0.62077298259E+01  0.17939616225E+00  0.43400727855E+02  0.00000000000E+00 0. -1.
         11    1    3    3    0    0 -0.14143252173E+02 -0.10384350538E+02  0.21552195707E+01  0.17677988850E+02  0.51100000000E-03 0. -1.
        -11    1    3    3    0    0 -0.18557556238E+02 -0.51581688678E+00  0.13841802795E+00  0.18565239573E+02  0.51100000000E-03 0.  1.
         12    1    3    3    0    0 -0.10253296000E+02  0.46924375984E+01 -0.24730337609E+01  0.11544043722E+02  0.00000000000E+00 0. -1.
</event>
<event>
 7    1  0.1246400E-009  0.4778727E+02  0.7816164E-02  0.1312668E+00
        -11   -1    0    0    0    0  0.00000000000E+00  0.00000000000E+00  0.45593999997E+02  0.45594000000E+02  0.51100000000E-03 0.  1.
         11   -1    0    0    0    0 -0.00000000000E+00 -0.00000000000E+00 -0.45593999997E+02  0.45594000000E+02  0.51100000000E-03 0. -1.
    9900012    2    1    2    0    0  0.20048741402E+02  0.38375147475E+02  0.30032508186E+01  0.47787268543E+02  0.19999988595E+02 0.  0.
         12    1    1    2    0    0 -0.20048741402E+02 -0.38375147475E+02 -0.30032508186E+01  0.43400731457E+02  0.00000000000E+00 0. -1.
         11    1    3    3    0    0  0.81135810944E+01  0.26699253247E+02  0.31239083180E+01  0.28079158206E+02  0.51100000000E-03 0. -1.
        -11    1    3    3    0    0  0.88299592645E+00  0.80786838855E+00  0.35776822553E+01  0.37725513543E+01  0.51100000000E-03 0.  1.
         12    1    3    3    0    0  0.11052164381E+02  0.10868025839E+02 -0.36983397547E+01  0.15935558982E+02  0.00000000000E+00 0. -1.
</event>
<event>
 7    1  0.1246400E-009  0.4778727E+02  0.7816164E-02  0.1312668E+00
        -11   -1    0    0    0    0  0.00000000000E+00  0.00000000000E+00  0.45593999997E+02  0.45594000000E+02  0.51100000000E-03 0.  1.
         11   -1    0    0    0    0 -0.00000000000E+00 -0.00000000000E+00 -0.45593999997E+02  0.45594000000E+02  0.51100000000E-03 0. -1.
    9900012    2    1    2    0    0 -0.98390973428E+01 -0.25642496174E+02  0.33604736866E+02  0.47787265140E+02  0.19999973081E+02 0.  0.
         12    1    1    2    0    0  0.98390973428E+01  0.25642496174E+02 -0.33604736866E+02  0.43400734860E+02  0.00000000000E+00 0. -1.
         11    1    3    3    0    0  0.14063006358E+01 -0.25759941574E-02 -0.50787684560E+00  0.14952014130E+01  0.51100000000E-03 0. -1.
        -11    1    3    3    0    0  0.23455419705E+01 -0.68833165130E+01  0.39939921918E+01  0.82966009451E+01  0.51100000000E-03 0.  1.
        -12    1    3    3    0    0 -0.13590939949E+02 -0.18756603666E+02  0.30118621520E+02  0.37995462782E+02  0.00000000000E+00 0.  1.
</event>
<event>
 7    1  0.1246400E-009  0.4778727E+02  0.7816164E-02  0.1312668E+00
        -11   -1    0    0    0    0  0.00000000000E+00  0.00000000000E+00  0.45593999997E+02  0.45594000000E+02  0.51100000000E-03 0.  1.
         11   -1    0    0    0    0 -0.00000000000E+00 -0.00000000000E+00 -0.45593999997E+02  0.45594000000E+02  0.51100000000E-03 0. -1.
    9900012    2    1    2    0    0 -0.27012297088E+02 -0.14594043476E+02  0.30675281473E+02  0.47787271983E+02  0.20000004280E+02 0.  0.
         12    1    1    2    0    0  0.27012297088E+02  0.14594043476E+02 -0.30675281473E+02  0.43400728017E+02  0.00000000000E+00 0. -1.
         11    1    3    3    0    0 -0.10094345330E+02 -0.15289767936E+02  0.16941679806E+02  0.24953823877E+02  0.51100000000E-03 0.  1.
        -11    1    3    3    0    0 -0.15952744322E+01  0.17683238130E+01  0.24991793718E+00  0.23946458732E+01  0.51100000000E-03 0. -1.
        -12    1    3    3    0    0 -0.15322677326E+02 -0.10725993529E+01  0.13483683729E+02  0.20438802233E+02  0.00000000000E+00 0.  1.
</event>
<event>
 7    1  0.1246400E-009  0.4778727E+02  0.7816164E-02  0.1312668E+00
        -11   -1    0    0    0    0  0.00000000000E+00  0.00000000000E+00  0.45593999997E+02  0.45594000000E+02  0.51100000000E-03 0. -1.
         11   -1    0    0    0    0 -0.00000000000E+00 -0.00000000000E+00 -0.45593999997E+02  0.45594000000E+02  0.51100000000E-03 0.  1.
    9900012    2    1    2    0    0 -0.42525717657E+02  0.65862460884E+01 -0.56398585436E+01  0.47787270695E+02  0.19999998407E+02 0.  0.
         12    1    1    2    0    0  0.42525717657E+02 -0.65862460884E+01  0.56398585436E+01  0.43400729305E+02  0.00000000000E+00 0. -1.
         11    1    3    3    0    0 -0.15346834279E+01 -0.16878599482E+01 -0.20713030960E+01  0.30813018686E+01  0.51100000000E-03 0. -1.
        -11    1    3    3    0    0 -0.27989459932E+02  0.11187613867E+02 -0.70052752582E+01  0.30945863262E+02  0.51100000000E-03 0.  1.
        -12    1    3    3    0    0 -0.13001574297E+02 -0.29135078304E+01  0.34367198106E+01  0.13760105564E+02  0.00000000000E+00 0.  1.
</event>
<event>
 7    1  0.1246400E-009  0.4778727E+02  0.7816164E-02  0.1312668E+00
        -11   -1    0    0    0    0  0.00000000000E+00  0.00000000000E+00  0.45593999997E+02  0.45594000000E+02  0.51100000000E-03 0. -1.
         11   -1    0    0    0    0 -0.00000000000E+00 -0.00000000000E+00 -0.45593999997E+02  0.45594000000E+02  0.51100000000E-03 0.  1.
    9900012    2    1    2    0    0  0.11154457316E+02 -0.10332818517E+02 -0.40650148019E+02  0.47787267397E+02  0.19999983369E+02 0.  0.
         12    1    1    2    0    0 -0.11154457316E+02  0.10332818517E+02  0.40650148019E+02  0.43400732603E+02  0.00000000000E+00 0. -1.
         11    1    3    3    0    0 -0.28702750688E+00  0.18550813722E+01  0.12864055232E+01  0.22756430120E+01  0.51100000000E-03 0. -1.
        -11    1    3    3    0    0  0.13602156523E+01 -0.21456968467E+01 -0.13232130543E+02  0.13473807203E+02  0.51100000000E-03 0.  1.
        -12    1    3    3    0    0  0.10081269170E+02 -0.10042203043E+02 -0.28704423000E+02  0.32037817182E+02  0.00000000000E+00 0.  1.
</event>
<event>
 7    1  0.1246400E-009  0.4778727E+02  0.7816164E-02  0.1312668E+00
        -11   -1    0    0    0    0  0.00000000000E+00  0.00000000000E+00  0.45593999997E+02  0.45594000000E+02  0.51100000000E-03 0. -1.
         11   -1    0    0    0    0 -0.00000000000E+00 -0.00000000000E+00 -0.45593999997E+02  0.45594000000E+02  0.51100000000E-03 0.  1.
    9900012    2    1    2    0    0 -0.38794948886E+02 -0.18520814547E+02  0.59627721196E+01  0.47787270952E+02  0.19999999580E+02 0.  0.
         12    1    1    2    0    0  0.38794948886E+02  0.18520814547E+02 -0.59627721196E+01  0.43400729048E+02  0.00000000000E+00 0. -1.
         11    1    3    3    0    0 -0.34004405171E+00  0.19383096346E+01 -0.21723411493E+00  0.19798649243E+01  0.51100000000E-03 0. -1.
        -11    1    3    3    0    0 -0.19373259561E+02 -0.69708002821E+01  0.86035337797E+01  0.22314480418E+02  0.51100000000E-03 0.  1.
         12    1    3    3    0    0 -0.19081645273E+02 -0.13488323899E+02 -0.24235275451E+01  0.23492925610E+02  0.00000000000E+00 0. -1.
</event>
<event>
 7    1  0.1246400E-009  0.4778726E+02  0.7816164E-02  0.1312668E+00
        -11   -1    0    0    0    0  0.00000000000E+00  0.00000000000E+00  0.45593999997E+02  0.45594000000E+02  0.51100000000E-03 0. -1.
         11   -1    0    0    0    0 -0.00000000000E+00 -0.00000000000E+00 -0.45593999997E+02  0.45594000000E+02  0.51100000000E-03 0.  1.
    9900012    2    1    2    0    0  0.61056808592E+01 -0.79596206918E+01 -0.42225454759E+02  0.47787263486E+02  0.19999965539E+02 0.  0.
         12    1    1    2    0    0 -0.61056808592E+01  0.79596206918E+01  0.42225454759E+02  0.43400736514E+02  0.00000000000E+00 0. -1.
         11    1    3    3    0    0  0.11400160523E+01 -0.63186316989E+01 -0.59831280993E+01  0.87762500682E+01  0.51100000000E-03 0. -1.
        -11    1    3    3    0    0  0.56392058452E+01 -0.55547128723E+01 -0.32843483251E+02  0.33783869967E+02  0.51100000000E-03 0.  1.
        -12    1    3    3    0    0 -0.67354103829E+00  0.39137238795E+01 -0.33988434093E+01  0.52271434509E+01  0.00000000000E+00 0.  1.
</event>
<event>
 7    1  0.1246400E-009  0.4778727E+02  0.7816164E-02  0.1312668E+00
        -11   -1    0    0    0    0  0.00000000000E+00  0.00000000000E+00  0.45593999997E+02  0.45594000000E+02  0.51100000000E-03 0.  1.
         11   -1    0    0    0    0 -0.00000000000E+00 -0.00000000000E+00 -0.45593999997E+02  0.45594000000E+02  0.51100000000E-03 0. -1.
    9900012    2    1    2    0    0 -0.22389651093E+02 -0.19599896115E+02  0.31593837123E+02  0.47787274799E+02  0.20000017118E+02 0.  0.
         12    1    1    2    0    0  0.22389651093E+02  0.19599896115E+02 -0.31593837123E+02  0.43400725201E+02  0.00000000000E+00 0. -1.
         11    1    3    3    0    0 -0.85857278241E+01 -0.64627769147E+01  0.79722569582E+01  0.13380548905E+02  0.51100000000E-03 0. -1.
        -11    1    3    3    0    0 -0.16593418487E+02 -0.78927849515E+01  0.14005526727E+02  0.23103947077E+02  0.51100000000E-03 0.  1.
        -12    1    3    3    0    0  0.27894952172E+01 -0.52443342490E+01  0.96160534377E+01  0.11302778818E+02  0.00000000000E+00 0.  1.
</event>
<event>
 7    1  0.1246400E-009  0.4778726E+02  0.7816164E-02  0.1312668E+00
        -11   -1    0    0    0    0  0.00000000000E+00  0.00000000000E+00  0.45593999997E+02  0.45594000000E+02  0.51100000000E-03 0.  1.
         11   -1    0    0    0    0 -0.00000000000E+00 -0.00000000000E+00 -0.45593999997E+02  0.45594000000E+02  0.51100000000E-03 0. -1.
    9900012    2    1    2    0    0  0.21849206749E+02  0.24136994694E+02  0.28699161959E+02  0.47787259850E+02  0.19999948959E+02 0.  0.
         12    1    1    2    0    0 -0.21849206749E+02 -0.24136994694E+02 -0.28699161959E+02  0.43400740150E+02  0.00000000000E+00 0. -1.
         11    1    3    3    0    0  0.59002714513E+01  0.22698028313E+01  0.17716978152E+01  0.65653729141E+01  0.51100000000E-03 0. -1.
        -11    1    3    3    0    0  0.14002983683E+02  0.17060009254E+02  0.28269532365E+02  0.35864940097E+02  0.51100000000E-03 0.  1.
        -12    1    3    3    0    0  0.19459516154E+01  0.48071826086E+01 -0.13420682210E+01  0.53569468386E+01  0.00000000000E+00 0.  1.
</event>
<event>
 7    1  0.1246400E-009  0.4778727E+02  0.7816164E-02  0.1312668E+00
        -11   -1    0    0    0    0  0.00000000000E+00  0.00000000000E+00  0.45593999997E+02  0.45594000000E+02  0.51100000000E-03 0.  1.
         11   -1    0    0    0    0 -0.00000000000E+00 -0.00000000000E+00 -0.45593999997E+02  0.45594000000E+02  0.51100000000E-03 0. -1.
    9900012    2    1    2    0    0 -0.26785434719E+02 -0.28217164426E+02  0.19234220269E+02  0.47787272924E+02  0.20000008572E+02 0.  0.
         12    1    1    2    0    0  0.26785434719E+02  0.28217164426E+02 -0.19234220269E+02  0.43400727076E+02  0.00000000000E+00 0. -1.
         11    1    3    3    0    0 -0.13270075399E+02 -0.46059089650E+01  0.48931104192E+01  0.14874536239E+02  0.51100000000E-03 0. -1.
        -11    1    3    3    0    0 -0.16827091266E+01 -0.70125122516E+01 -0.11594633476E+01  0.73041901399E+01  0.51100000000E-03 0.  1.
        -12    1    3    3    0    0 -0.11832650193E+02 -0.16598743210E+02  0.15500573197E+02  0.25608546546E+02  0.00000000000E+00 0.  1.
</event>
<event>
 7    1  0.1246400E-009  0.4778727E+02  0.7816164E-02  0.1312668E+00
        -11   -1    0    0    0    0  0.00000000000E+00  0.00000000000E+00  0.45593999997E+02  0.45594000000E+02  0.51100000000E-03 0.  1.
         11   -1    0    0    0    0 -0.00000000000E+00 -0.00000000000E+00 -0.45593999997E+02  0.45594000000E+02  0.51100000000E-03 0. -1.
    9900012    2    1    2    0    0  0.10814076748E+01  0.40590368130E+02  0.15325666278E+02  0.47787268735E+02  0.19999989470E+02 0.  0.
         12    1    1    2    0    0 -0.10814076748E+01 -0.40590368130E+02 -0.15325666278E+02  0.43400731265E+02  0.00000000000E+00 0. -1.
         11    1    3    3    0    0 -0.24729531099E+01  0.60561514875E+01 -0.24717644154E+01  0.69930027535E+01  0.51100000000E-03 0. -1.
        -11    1    3    3    0    0 -0.24848453951E+01  0.26391102030E+02  0.11805980887E+02  0.29018027293E+02  0.51100000000E-03 0.  1.
        -12    1    3    3    0    0  0.60392061798E+01  0.81431146116E+01  0.59914498067E+01  0.11776238688E+02  0.00000000000E+00 0.  1.
</event>
<event>
 7    1  0.1246400E-009  0.4778727E+02  0.7816164E-02  0.1312668E+00
        -11   -1    0    0    0    0  0.00000000000E+00  0.00000000000E+00  0.45593999997E+02  0.45594000000E+02  0.51100000000E-03 0. -1.
         11   -1    0    0    0    0 -0.00000000000E+00 -0.00000000000E+00 -0.45593999997E+02  0.45594000000E+02  0.51100000000E-03 0.  1.
    9900012    2    1    2    0    0 -0.18626878816E+02 -0.19018193142E+02 -0.34277847875E+02  0.47787272590E+02  0.20000007045E+02 0.  0.
         12    1    1    2    0    0  0.18626878816E+02  0.19018193142E+02  0.34277847875E+02  0.43400727410E+02  0.00000000000E+00 0. -1.
         11    1    3    3    0    0 -0.15131348436E+02 -0.16034457985E+02 -0.22920118138E+02  0.31802411293E+02  0.51100000000E-03 0.  1.
        -11    1    3    3    0    0  0.11800582504E+01 -0.56331678330E+01 -0.47129562761E+01  0.74388893277E+01  0.51100000000E-03 0. -1.
        -12    1    3    3    0    0 -0.46755886302E+01  0.26494326754E+01 -0.66447734607E+01  0.85459719684E+01  0.00000000000E+00 0.  1.
</event>
<event>
 7    1  0.1246400E-009  0.4778727E+02  0.7816164E-02  0.1312668E+00
        -11   -1    0    0    0    0  0.00000000000E+00  0.00000000000E+00  0.45593999997E+02  0.45594000000E+02  0.51100000000E-03 0. -1.
         11   -1    0    0    0    0 -0.00000000000E+00 -0.00000000000E+00 -0.45593999997E+02  0.45594000000E+02  0.51100000000E-03 0.  1.
    9900012    2    1    2    0    0 -0.16167100506E+02  0.36448632986E+02  0.17138998841E+02  0.47787271129E+02  0.20000000385E+02 0.  0.
         12    1    1    2    0    0  0.16167100506E+02 -0.36448632986E+02 -0.17138998841E+02  0.43400728871E+02  0.00000000000E+00 0. -1.
         11    1    3    3    0    0  0.95230557605E+00  0.65417465768E+01 -0.39346368406E+00  0.66223974599E+01  0.51100000000E-03 0. -1.
        -11    1    3    3    0    0 -0.16253616461E+02  0.16330354347E+02  0.14511203369E+02  0.27229314068E+02  0.51100000000E-03 0.  1.
        -12    1    3    3    0    0 -0.86578962104E+00  0.13576532062E+02  0.30212591561E+01  0.13935559601E+02  0.00000000000E+00 0.  1.
</event>
<event>
 7    1  0.1246400E-009  0.4778727E+02  0.7816164E-02  0.1312668E+00
        -11   -1    0    0    0    0  0.00000000000E+00  0.00000000000E+00  0.45593999997E+02  0.45594000000E+02  0.51100000000E-03 0.  1.
         11   -1    0    0    0    0 -0.00000000000E+00 -0.00000000000E+00 -0.45593999997E+02  0.45594000000E+02  0.51100000000E-03 0. -1.
    9900012    2    1    2    0    0  0.12723425595E+02 -0.14666789203E+02  0.38815241520E+02  0.47787271451E+02  0.20000001852E+02 0.  0.
         12    1    1    2    0    0 -0.12723425595E+02  0.14666789203E+02 -0.38815241520E+02  0.43400728549E+02  0.00000000000E+00 0. -1.
         11    1    3    3    0    0  0.71667754182E+01 -0.44439579155E+01  0.11741176984E+02  0.14455679475E+02  0.51100000000E-03 0. -1.
        -11    1    3    3    0    0 -0.30115832538E+01 -0.10444252397E+02  0.14961765649E+02  0.18493417029E+02  0.51100000000E-03 0.  1.
        -12    1    3    3    0    0  0.85682334303E+01  0.22142110928E+00  0.12112298887E+02  0.14838174947E+02  0.00000000000E+00 0.  1.
</event>
<event>
 7    1  0.1246400E-009  0.4778727E+02  0.7816164E-02  0.1312668E+00
        -11   -1    0    0    0    0  0.00000000000E+00  0.00000000000E+00  0.45593999997E+02  0.45594000000E+02  0.51100000000E-03 0.  1.
         11   -1    0    0    0    0 -0.00000000000E+00 -0.00000000000E+00 -0.45593999997E+02  0.45594000000E+02  0.51100000000E-03 0. -1.
    9900012    2    1    2    0    0  0.13887784046E+02  0.29201222348E+02  0.28948940373E+02  0.47787273266E+02  0.20000010129E+02 0.  0.
         12    1    1    2    0    0 -0.13887784046E+02 -0.29201222348E+02 -0.28948940373E+02  0.43400726734E+02  0.00000000000E+00 0. -1.
         11    1    3    3    0    0  0.49483012917E+01  0.13951527298E+02  0.56772160907E+01  0.15854386851E+02  0.51100000000E-03 0. -1.
        -11    1    3    3    0    0  0.85197177030E+01  0.15798914401E+02  0.24589999855E+02  0.30444365310E+02  0.51100000000E-03 0.  1.
         12    1    3    3    0    0  0.41976505111E+00 -0.54921935155E+00 -0.13182755726E+01  0.14885211049E+01  0.00000000000E+00 0. -1.
</event>
<event>
 7    1  0.1246400E-009  0.4778727E+02  0.7816164E-02  0.1312668E+00
        -11   -1    0    0    0    0  0.00000000000E+00  0.00000000000E+00  0.45593999997E+02  0.45594000000E+02  0.51100000000E-03 0.  1.
         11   -1    0    0    0    0 -0.00000000000E+00 -0.00000000000E+00 -0.45593999997E+02  0.45594000000E+02  0.51100000000E-03 0. -1.
    9900012    2    1    2    0    0  0.26048318589E+02 -0.29422436414E+02  0.18423591151E+02  0.47787269859E+02  0.19999994595E+02 0.  0.
         12    1    1    2    0    0 -0.26048318589E+02  0.29422436414E+02 -0.18423591151E+02  0.43400730141E+02  0.00000000000E+00 0. -1.
         11    1    3    3    0    0  0.78347114557E+00 -0.16906136261E+01 -0.21057964485E+01  0.28118286599E+01  0.51100000000E-03 0. -1.
        -11    1    3    3    0    0  0.11205606747E+02 -0.22238743703E+02  0.13469884721E+02  0.28311925733E+02  0.51100000000E-03 0.  1.
         12    1    3    3    0    0  0.14059240696E+02 -0.54930790850E+01  0.70595028785E+01  0.16663515466E+02  0.00000000000E+00 0. -1.
</event>
<event>
 7    1  0.1246400E-009  0.4778727E+02  0.7816164E-02  0.1312668E+00
        -11   -1    0    0    0    0  0.00000000000E+00  0.00000000000E+00  0.45593999997E+02  0.45594000000E+02  0.51100000000E-03 0. -1.
         11   -1    0    0    0    0 -0.00000000000E+00 -0.00000000000E+00 -0.45593999997E+02  0.45594000000E+02  0.51100000000E-03 0.  1.
    9900012    2    1    2    0    0 -0.91176495530E+01  0.37575791615E+02 -0.19711710274E+02  0.47787272232E+02  0.20000005415E+02 0.  0.
         12    1    1    2    0    0  0.91176495530E+01 -0.37575791615E+02  0.19711710274E+02  0.43400727768E+02  0.00000000000E+00 0. -1.
         11    1    3    3    0    0 -0.19566571251E-03  0.15448118787E+02 -0.73936651387E+01  0.17126314798E+02  0.51100000000E-03 0. -1.
        -11    1    3    3    0    0 -0.12918251775E+02  0.19489828488E+02 -0.94643137602E+01  0.25225143778E+02  0.51100000000E-03 0.  1.
        -12    1    3    3    0    0  0.38007978878E+01  0.26378443395E+01 -0.28537313749E+01  0.54358136561E+01  0.00000000000E+00 0.  1.
</event>
<event>
 7    1  0.1246400E-009  0.4778727E+02  0.7816164E-02  0.1312668E+00
        -11   -1    0    0    0    0  0.00000000000E+00  0.00000000000E+00  0.45593999997E+02  0.45594000000E+02  0.51100000000E-03 0.  1.
         11   -1    0    0    0    0 -0.00000000000E+00 -0.00000000000E+00 -0.45593999997E+02  0.45594000000E+02  0.51100000000E-03 0. -1.
    9900012    2    1    2    0    0  0.35401170264E+02 -0.16221638992E+02  0.19163475014E+02  0.47787271869E+02  0.20000003759E+02 0.  0.
         12    1    1    2    0    0 -0.35401170264E+02  0.16221638992E+02 -0.19163475014E+02  0.43400728131E+02  0.00000000000E+00 0. -1.
         11    1    3    3    0    0  0.86092163315E+00 -0.28898437046E+01  0.16121760618E+01  0.34192827627E+01  0.51100000000E-03 0. -1.
        -11    1    3    3    0    0  0.15975730997E+02 -0.20714738955E+01 -0.52162868277E+00  0.16117911829E+02  0.51100000000E-03 0.  1.
        -12    1    3    3    0    0  0.18564517634E+02 -0.11260321392E+02  0.18072927635E+02  0.28250077277E+02  0.00000000000E+00 0.  1.
</event>
<event>
 7    1  0.1246400E-009  0.4778728E+02  0.7816164E-02  0.1312668E+00
        -11   -1    0    0    0    0  0.00000000000E+00  0.00000000000E+00  0.45593999997E+02  0.45594000000E+02  0.51100000000E-03 0. -1.
         11   -1    0    0    0    0 -0.00000000000E+00 -0.00000000000E+00 -0.45593999997E+02  0.45594000000E+02  0.51100000000E-03 0.  1.
    9900012    2    1    2    0    0 -0.31017843603E+02 -0.19143234420E+02 -0.23559558463E+02  0.47787276033E+02  0.20000022746E+02 0.  0.
         12    1    1    2    0    0  0.31017843603E+02  0.19143234420E+02  0.23559558463E+02  0.43400723967E+02  0.00000000000E+00 0. -1.
         11    1    3    3    0    0  0.21372604525E+01 -0.45161464988E+00 -0.91197543167E+00  0.23671792249E+01  0.51100000000E-03 0. -1.
        -11    1    3    3    0    0 -0.13139078202E+01  0.10820753927E+00 -0.35828403294E+01  0.38176966510E+01  0.51100000000E-03 0.  1.
        -12    1    3    3    0    0 -0.31841196236E+02 -0.18799827309E+02 -0.19064742702E+02  0.41602400157E+02  0.00000000000E+00 0.  1.
</event>
<event>
 7    1  0.1246400E-009  0.4778727E+02  0.7816164E-02  0.1312668E+00
        -11   -1    0    0    0    0  0.00000000000E+00  0.00000000000E+00  0.45593999997E+02  0.45594000000E+02  0.51100000000E-03 0.  1.
         11   -1    0    0    0    0 -0.00000000000E+00 -0.00000000000E+00 -0.45593999997E+02  0.45594000000E+02  0.51100000000E-03 0. -1.
    9900012    2    1    2    0    0 -0.42510911581E+02 -0.62065155469E+01  0.61583474887E+01  0.47787266337E+02  0.19999978538E+02 0.  0.
         12    1    1    2    0    0  0.42510911581E+02  0.62065155469E+01 -0.61583474887E+01  0.43400733663E+02  0.00000000000E+00 0. -1.
         11    1    3    3    0    0  0.89553362752E+00 -0.18605792651E+01 -0.13923677388E+01  0.24904665950E+01  0.51100000000E-03 0. -1.
        -11    1    3    3    0    0 -0.23581459221E+02 -0.69264920150E+01  0.27079641381E+01  0.24726394413E+02  0.51100000000E-03 0.  1.
        -12    1    3    3    0    0 -0.19824985987E+02  0.25805557332E+01  0.48427510893E+01  0.20570405329E+02  0.00000000000E+00 0.  1.
</event>
<event>
 7    1  0.1246400E-009  0.4778727E+02  0.7816164E-02  0.1312668E+00
        -11   -1    0    0    0    0  0.00000000000E+00  0.00000000000E+00  0.45593999997E+02  0.45594000000E+02  0.51100000000E-03 0. -1.
         11   -1    0    0    0    0 -0.00000000000E+00 -0.00000000000E+00 -0.45593999997E+02  0.45594000000E+02  0.51100000000E-03 0.  1.
    9900012    2    1    2    0    0 -0.33936401916E+02 -0.18319146324E+02 -0.19908608149E+02  0.47787272178E+02  0.20000005167E+02 0.  0.
         12    1    1    2    0    0  0.33936401916E+02  0.18319146324E+02  0.19908608149E+02  0.43400727822E+02  0.00000000000E+00 0. -1.
         11    1    3    3    0    0 -0.10590662850E+02 -0.41458734131E+01 -0.32113020975E+01  0.11817904526E+02  0.51100000000E-03 0. -1.
        -11    1    3    3    0    0 -0.18588894201E+01 -0.26386799715E+01 -0.10247427363E+02  0.10743736300E+02  0.51100000000E-03 0.  1.
        -12    1    3    3    0    0 -0.21486849646E+02 -0.11534592939E+02 -0.64498786889E+01  0.25225631352E+02  0.00000000000E+00 0.  1.
</event>
<event>
 7    1  0.1246400E-009  0.4778727E+02  0.7816164E-02  0.1312668E+00
        -11   -1    0    0    0    0  0.00000000000E+00  0.00000000000E+00  0.45593999997E+02  0.45594000000E+02  0.51100000000E-03 0.  1.
         11   -1    0    0    0    0 -0.00000000000E+00 -0.00000000000E+00 -0.45593999997E+02  0.45594000000E+02  0.51100000000E-03 0. -1.
    9900012    2    1    2    0    0  0.29080229143E+01 -0.15248496266E+02  0.40529618806E+02  0.47787271478E+02  0.20000001978E+02 0.  0.
         12    1    1    2    0    0 -0.29080229143E+01  0.15248496266E+02 -0.40529618806E+02  0.43400728522E+02  0.00000000000E+00 0. -1.
         11    1    3    3    0    0  0.21102862488E+01  0.34675654475E-01  0.23448796143E+02  0.23543588326E+02  0.51100000000E-03 0. -1.
        -11    1    3    3    0    0 -0.33675289835E+00 -0.97667384726E+01  0.15620426036E+02  0.18425533716E+02  0.51100000000E-03 0.  1.
        -12    1    3    3    0    0  0.11344895639E+01 -0.55164334476E+01  0.14603966272E+01  0.58181494361E+01  0.00000000000E+00 0.  1.
</event>
<event>
 7    1  0.1246400E-009  0.4778727E+02  0.7816164E-02  0.1312668E+00
        -11   -1    0    0    0    0  0.00000000000E+00  0.00000000000E+00  0.45593999997E+02  0.45594000000E+02  0.51100000000E-03 0.  1.
         11   -1    0    0    0    0 -0.00000000000E+00 -0.00000000000E+00 -0.45593999997E+02  0.45594000000E+02  0.51100000000E-03 0. -1.
    9900012    2    1    2    0    0  0.27243556408E+02 -0.12958915295E+01  0.33759933144E+02  0.47787265139E+02  0.19999973073E+02 0.  0.
         12    1    1    2    0    0 -0.27243556408E+02  0.12958915295E+01 -0.33759933144E+02  0.43400734861E+02  0.00000000000E+00 0. -1.
         11    1    3    3    0    0  0.16030903732E+02 -0.28538675393E+01  0.10762071907E+02  0.19518110216E+02  0.51100000000E-03 0. -1.
        -11    1    3    3    0    0  0.31706044534E+01 -0.28095991319E+01  0.16526257141E+02  0.17060590706E+02  0.51100000000E-03 0.  1.
         12    1    3    3    0    0  0.80420482225E+01  0.43675751418E+01  0.64716040955E+01  0.11208564217E+02  0.00000000000E+00 0. -1.
</event>
<event>
 7    1  0.1246400E-009  0.4778727E+02  0.7816164E-02  0.1312668E+00
        -11   -1    0    0    0    0  0.00000000000E+00  0.00000000000E+00  0.45593999997E+02  0.45594000000E+02  0.51100000000E-03 0. -1.
         11   -1    0    0    0    0 -0.00000000000E+00 -0.00000000000E+00 -0.45593999997E+02  0.45594000000E+02  0.51100000000E-03 0.  1.
    9900012    2    1    2    0    0  0.38159558582E+02  0.12999418395E+02 -0.16077516931E+02  0.47787270278E+02  0.19999996505E+02 0.  0.
         12    1    1    2    0    0 -0.38159558582E+02 -0.12999418395E+02  0.16077516931E+02  0.43400729722E+02  0.00000000000E+00 0. -1.
         11    1    3    3    0    0  0.29055842672E+01  0.35725923271E+01 -0.71319302612E+01  0.84894207919E+01  0.51100000000E-03 0. -1.
        -11    1    3    3    0    0  0.22605339070E+02  0.47838762553E+01 -0.11131952729E+02  0.25647752305E+02  0.51100000000E-03 0.  1.
         12    1    3    3    0    0  0.12648635244E+02  0.46429498123E+01  0.21863660589E+01  0.13650097181E+02  0.00000000000E+00 0. -1.
</event>
<event>
 7    1  0.1246400E-009  0.4778727E+02  0.7816164E-02  0.1312668E+00
        -11   -1    0    0    0    0  0.00000000000E+00  0.00000000000E+00  0.45593999997E+02  0.45594000000E+02  0.51100000000E-03 0. -1.
         11   -1    0    0    0    0 -0.00000000000E+00 -0.00000000000E+00 -0.45593999997E+02  0.45594000000E+02  0.51100000000E-03 0.  1.
    9900012    2    1    2    0    0 -0.35647911391E+02  0.11668361087E+02 -0.21833446096E+02  0.47787267225E+02  0.19999982585E+02 0.  0.
         12    1    1    2    0    0  0.35647911391E+02 -0.11668361087E+02  0.21833446096E+02  0.43400732775E+02  0.00000000000E+00 0. -1.
         11    1    3    3    0    0 -0.11759095366E+02  0.51742418754E+01 -0.54290952761E+01  0.13947192498E+02  0.51100000000E-03 0. -1.
        -11    1    3    3    0    0 -0.25051045556E+02  0.22229000571E+01 -0.13473733452E+02  0.28531345246E+02  0.51100000000E-03 0.  1.
         12    1    3    3    0    0  0.11622295309E+01  0.42712191544E+01 -0.29306173678E+01  0.53087294811E+01  0.00000000000E+00 0. -1.
</event>
<event>
 7    1  0.1246400E-009  0.4778726E+02  0.7816164E-02  0.1312668E+00
        -11   -1    0    0    0    0  0.00000000000E+00  0.00000000000E+00  0.45593999997E+02  0.45594000000E+02  0.51100000000E-03 0.  1.
         11   -1    0    0    0    0 -0.00000000000E+00 -0.00000000000E+00 -0.45593999997E+02  0.45594000000E+02  0.51100000000E-03 0. -1.
    9900012    2    1    2    0    0  0.25248622650E+02  0.18943940951E+02  0.29786884503E+02  0.47787258844E+02  0.19999944375E+02 0.  0.
         12    1    1    2    0    0 -0.25248622650E+02 -0.18943940951E+02 -0.29786884503E+02  0.43400741156E+02  0.00000000000E+00 0. -1.
         11    1    3    3    0    0  0.43448551480E+00 -0.22426149956E+01  0.15771348723E+00  0.22897540231E+01  0.51100000000E-03 0. -1.
        -11    1    3    3    0    0  0.17709250356E+02  0.79802659514E+01  0.18482272872E+02  0.26812247269E+02  0.51100000000E-03 0.  1.
         12    1    3    3    0    0  0.71048867789E+01  0.13206289995E+02  0.11146898143E+02  0.18685257552E+02  0.00000000000E+00 0. -1.
</event>
<event>
 7    1  0.1246400E-009  0.4778727E+02  0.7816164E-02  0.1312668E+00
        -11   -1    0    0    0    0  0.00000000000E+00  0.00000000000E+00  0.45593999997E+02  0.45594000000E+02  0.51100000000E-03 0.  1.
         11   -1    0    0    0    0 -0.00000000000E+00 -0.00000000000E+00 -0.45593999997E+02  0.45594000000E+02  0.51100000000E-03 0. -1.
    9900012    2    1    2    0    0 -0.92147409123E+01 -0.15985181778E+02  0.39283403558E+02  0.47787270954E+02  0.19999999589E+02 0.  0.
         12    1    1    2    0    0  0.92147409123E+01  0.15985181778E+02 -0.39283403558E+02  0.43400729046E+02  0.00000000000E+00 0. -1.
         11    1    3    3    0    0 -0.25840607810E+01 -0.52073739184E+01  0.53042202766E+01  0.78694895800E+01  0.51100000000E-03 0. -1.
        -11    1    3    3    0    0 -0.40820140470E+00  0.35977556383E+01  0.14374744735E+02  0.14823756625E+02  0.51100000000E-03 0.  1.
        -12    1    3    3    0    0 -0.62224787267E+01 -0.14375563498E+02  0.19604438547E+02  0.25094024749E+02  0.00000000000E+00 0.  1.
</event>
<event>
 7    1  0.1246400E-009  0.4778727E+02  0.7816164E-02  0.1312668E+00
        -11   -1    0    0    0    0  0.00000000000E+00  0.00000000000E+00  0.45593999997E+02  0.45594000000E+02  0.51100000000E-03 0.  1.
         11   -1    0    0    0    0 -0.00000000000E+00 -0.00000000000E+00 -0.45593999997E+02  0.45594000000E+02  0.51100000000E-03 0. -1.
    9900012    2    1    2    0    0  0.34780397828E+02 -0.26151020941E+01  0.25828443001E+02  0.47787270745E+02  0.19999998634E+02 0.  0.
         12    1    1    2    0    0 -0.34780397828E+02  0.26151020941E+01 -0.25828443001E+02  0.43400729255E+02  0.00000000000E+00 0. -1.
         11    1    3    3    0    0  0.23377224313E+01 -0.36853648700E+01  0.94544109334E+01  0.10413104568E+02  0.51100000000E-03 0. -1.
        -11    1    3    3    0    0  0.19958144813E+02 -0.30376786280E+01  0.12182416223E+02  0.23578937659E+02  0.51100000000E-03 0.  1.
        -12    1    3    3    0    0  0.12484530583E+02  0.41079414039E+01  0.41916158450E+01  0.13795228518E+02  0.00000000000E+00 0.  1.
</event>
<event>
 7    1  0.1246400E-009  0.4778727E+02  0.7816164E-02  0.1312668E+00
        -11   -1    0    0    0    0  0.00000000000E+00  0.00000000000E+00  0.45593999997E+02  0.45594000000E+02  0.51100000000E-03 0.  1.
         11   -1    0    0    0    0 -0.00000000000E+00 -0.00000000000E+00 -0.45593999997E+02  0.45594000000E+02  0.51100000000E-03 0. -1.
    9900012    2    1    2    0    0 -0.16653588955E+02  0.60678100663E+01  0.39616449190E+02  0.47787269701E+02  0.19999993875E+02 0.  0.
         12    1    1    2    0    0  0.16653588955E+02 -0.60678100663E+01 -0.39616449190E+02  0.43400730299E+02  0.00000000000E+00 0. -1.
         11    1    3    3    0    0  0.34372868696E+01  0.91080810894E+00  0.63391325911E+01  0.72683639633E+01  0.51100000000E-03 0. -1.
        -11    1    3    3    0    0 -0.11205614792E+02  0.49807186806E+01  0.26952558570E+02  0.29611041440E+02  0.51100000000E-03 0.  1.
        -12    1    3    3    0    0 -0.88852610330E+01  0.17628327680E+00  0.63247580289E+01  0.10907864298E+02  0.00000000000E+00 0.  1.
</event>
<event>
 7    1  0.1246400E-009  0.4778726E+02  0.7816164E-02  0.1312668E+00
        -11   -1    0    0    0    0  0.00000000000E+00  0.00000000000E+00  0.45593999997E+02  0.45594000000E+02  0.51100000000E-03 0.  1.
         11   -1    0    0    0    0 -0.00000000000E+00 -0.00000000000E+00 -0.45593999997E+02  0.45594000000E+02  0.51100000000E-03 0. -1.
    9900012    2    1    2    0    0  0.41972742603E+02 -0.12885919791E+00  0.11040673882E+02  0.47787260305E+02  0.19999951033E+02 0.  0.
         12    1    1    2    0    0 -0.41972742603E+02  0.12885919791E+00 -0.11040673882E+02  0.43400739695E+02  0.00000000000E+00 0. -1.
         11    1    3    3    0    0  0.13475836271E+02 -0.73255132505E+00 -0.54730445433E+01  0.14563276125E+02  0.51100000000E-03 0. -1.
        -11    1    3    3    0    0  0.47583134961E+01 -0.37255773141E-01  0.47470560792E+01  0.67214192698E+01  0.51100000000E-03 0.  1.
         12    1    3    3    0    0  0.23738592836E+02  0.64094790028E+00  0.11766662346E+02  0.26502564910E+02  0.00000000000E+00 0. -1.
</event>
<event>
 7    1  0.1246400E-009  0.4778727E+02  0.7816164E-02  0.1312668E+00
        -11   -1    0    0    0    0  0.00000000000E+00  0.00000000000E+00  0.45593999997E+02  0.45594000000E+02  0.51100000000E-03 0.  1.
         11   -1    0    0    0    0 -0.00000000000E+00 -0.00000000000E+00 -0.45593999997E+02  0.45594000000E+02  0.51100000000E-03 0. -1.
    9900012    2    1    2    0    0 -0.62230478927E+01  0.12861459673E+02  0.40981454061E+02  0.47787273659E+02  0.20000011921E+02 0.  0.
         12    1    1    2    0    0  0.62230478927E+01 -0.12861459673E+02 -0.40981454061E+02  0.43400726341E+02  0.00000000000E+00 0. -1.
         11    1    3    3    0    0  0.45651476152E+01  0.36232002119E+01  0.62895519603E+01  0.85747662736E+01  0.51100000000E-03 0.  1.
        -11    1    3    3    0    0 -0.57975342021E+01  0.11129792818E+02  0.20333170226E+02  0.23893963729E+02  0.51100000000E-03 0. -1.
        -12    1    3    3    0    0 -0.49906613058E+01 -0.18915333565E+01  0.14358731874E+02  0.15318543656E+02  0.00000000000E+00 0.  1.
</event>
<event>
 7    1  0.1246400E-009  0.4778728E+02  0.7816164E-02  0.1312668E+00
        -11   -1    0    0    0    0  0.00000000000E+00  0.00000000000E+00  0.45593999997E+02  0.45594000000E+02  0.51100000000E-03 0.  1.
         11   -1    0    0    0    0 -0.00000000000E+00 -0.00000000000E+00 -0.45593999997E+02  0.45594000000E+02  0.51100000000E-03 0. -1.
    9900012    2    1    2    0    0  0.98886019397E+01  0.39708069591E+02 -0.14460542459E+02  0.47787279647E+02  0.20000039222E+02 0.  0.
         12    1    1    2    0    0 -0.98886019397E+01 -0.39708069591E+02  0.14460542459E+02  0.43400720353E+02  0.00000000000E+00 0. -1.
         11    1    3    3    0    0 -0.26188918579E+01  0.14130432774E+02 -0.64180699110E+01  0.15739102471E+02  0.51100000000E-03 0. -1.
        -11    1    3    3    0    0 -0.14291540088E+01  0.85967741479E+01 -0.44619038992E+01  0.97905869895E+01  0.51100000000E-03 0.  1.
         12    1    3    3    0    0  0.13936647806E+02  0.16980862669E+02 -0.35805686484E+01  0.22257590187E+02  0.00000000000E+00 0. -1.
</event>
<event>
 7    1  0.1246400E-009  0.4778727E+02  0.7816164E-02  0.1312668E+00
        -11   -1    0    0    0    0  0.00000000000E+00  0.00000000000E+00  0.45593999997E+02  0.45594000000E+02  0.51100000000E-03 0. -1.
         11   -1    0    0    0    0 -0.00000000000E+00 -0.00000000000E+00 -0.45593999997E+02  0.45594000000E+02  0.51100000000E-03 0.  1.
    9900012    2    1    2    0    0  0.23574209466E+02  0.34690466665E+02 -0.11155795109E+02  0.47787267358E+02  0.19999983191E+02 0.  0.
         12    1    1    2    0    0 -0.23574209466E+02 -0.34690466665E+02  0.11155795109E+02  0.43400732642E+02  0.00000000000E+00 0. -1.
         11    1    3    3    0    0 -0.81960518637E+00  0.17850229207E+00  0.14448465629E+01  0.16706877569E+01  0.51100000000E-03 0. -1.
        -11    1    3    3    0    0  0.39115727935E+01 -0.30578904357E+00 -0.54972216447E+00  0.39618308113E+01  0.51100000000E-03 0.  1.
        -12    1    3    3    0    0  0.20482241859E+02  0.34817753416E+02 -0.12050919507E+02  0.42154748789E+02  0.00000000000E+00 0.  1.
</event>
<event>
 7    1  0.1574104E-009  0.4778727E+02  0.7816164E-02  0.1312668E+00
        -11   -1    0    0    0    0  0.00000000000E+00  0.00000000000E+00  0.45593999997E+02  0.45594000000E+02  0.51100000000E-03 0. -1.
         11   -1    0    0    0    0 -0.00000000000E+00 -0.00000000000E+00 -0.45593999997E+02  0.45594000000E+02  0.51100000000E-03 0.  1.
    9900012    2    1    2    0    0  0.14262740842E+02  0.39246368272E+02 -0.11828770212E+02  0.47787274159E+02  0.20000014199E+02 0.  0.
         12    1    1    2    0    0 -0.14262740842E+02 -0.39246368272E+02  0.11828770212E+02  0.43400725841E+02  0.00000000000E+00 0. -1.
         11    1    3    3    0    0  0.25232498562E+01  0.52821266681E+01  0.31883571502E+01  0.66658287971E+01  0.51100000000E-03 0. -1.
        -11    1    3    3    0    0 -0.14886761582E+01  0.12448568189E+02 -0.81295407889E+01  0.14942303717E+02  0.51100000000E-03 0.  1.
        -12    1    3    3    0    0  0.13228167144E+02  0.21515673415E+02 -0.68875865729E+01  0.26179141645E+02  0.00000000000E+00 0.  1.
</event>
<event>
 7    1  0.1246400E-009  0.4778727E+02  0.7816164E-02  0.1312668E+00
        -11   -1    0    0    0    0  0.00000000000E+00  0.00000000000E+00  0.45593999997E+02  0.45594000000E+02  0.51100000000E-03 0.  1.
         11   -1    0    0    0    0 -0.00000000000E+00 -0.00000000000E+00 -0.45593999997E+02  0.45594000000E+02  0.51100000000E-03 0. -1.
    9900012    2    1    2    0    0  0.30104250308E+02  0.30919709817E+02 -0.46183057604E+01  0.47787273164E+02  0.20000009663E+02 0.  0.
         12    1    1    2    0    0 -0.30104250308E+02 -0.30919709817E+02  0.46183057604E+01  0.43400726836E+02  0.00000000000E+00 0. -1.
         11    1    3    3    0    0  0.11877172870E+02  0.19130394508E+02  0.14759654502E+01  0.22565852603E+02  0.51100000000E-03 0. -1.
        -11    1    3    3    0    0  0.19697430442E+02  0.11607627818E+02 -0.50652133969E+01  0.23417561286E+02  0.51100000000E-03 0.  1.
         12    1    3    3    0    0 -0.14703530037E+01  0.18168749159E+00 -0.10290578137E+01  0.18038592750E+01  0.00000000000E+00 0. -1.
</event>
<event>
 7    1  0.1246400E-009  0.4778727E+02  0.7816164E-02  0.1312668E+00
        -11   -1    0    0    0    0  0.00000000000E+00  0.00000000000E+00  0.45593999997E+02  0.45594000000E+02  0.51100000000E-03 0.  1.
         11   -1    0    0    0    0 -0.00000000000E+00 -0.00000000000E+00 -0.45593999997E+02  0.45594000000E+02  0.51100000000E-03 0. -1.
    9900012    2    1    2    0    0 -0.31230565804E+02 -0.30088887855E+02 -0.17129347989E+01  0.47787267766E+02  0.19999985054E+02 0.  0.
         12    1    1    2    0    0  0.31230565804E+02  0.30088887855E+02  0.17129347989E+01  0.43400732234E+02  0.00000000000E+00 0. -1.
         11    1    3    3    0    0 -0.77078587524E+01 -0.15514867240E+02  0.27100359394E+01  0.17534722327E+02  0.51100000000E-03 0. -1.
        -11    1    3    3    0    0 -0.10120123948E+02 -0.11910142241E+02  0.73589571817E+00  0.15646403411E+02  0.51100000000E-03 0.  1.
         12    1    3    3    0    0 -0.13402583103E+02 -0.26638783734E+01 -0.51588664565E+01  0.14606142028E+02  0.00000000000E+00 0. -1.
</event>
<event>
 7    1  0.1246400E-009  0.4778727E+02  0.7816164E-02  0.1312668E+00
        -11   -1    0    0    0    0  0.00000000000E+00  0.00000000000E+00  0.45593999997E+02  0.45594000000E+02  0.51100000000E-03 0.  1.
         11   -1    0    0    0    0 -0.00000000000E+00 -0.00000000000E+00 -0.45593999997E+02  0.45594000000E+02  0.51100000000E-03 0. -1.
    9900012    2    1    2    0    0  0.88425245160E+01  0.41155447593E+02  0.10567021057E+02  0.47787273734E+02  0.20000012261E+02 0.  0.
         12    1    1    2    0    0 -0.88425245160E+01 -0.41155447593E+02 -0.10567021057E+02  0.43400726266E+02  0.00000000000E+00 0. -1.
         11    1    3    3    0    0  0.25288602506E+01  0.53915247135E+01  0.76797972090E+01  0.97181766981E+01  0.51100000000E-03 0. -1.
        -11    1    3    3    0    0  0.14614421934E+01  0.16555406204E+02  0.66539638619E+01  0.17902304969E+02  0.51100000000E-03 0.  1.
         12    1    3    3    0    0  0.48522220720E+01  0.19208516676E+02 -0.37667400136E+01  0.20166792066E+02  0.00000000000E+00 0. -1.
</event>
<event>
 7    1  0.1246400E-009  0.4778727E+02  0.7816164E-02  0.1312668E+00
        -11   -1    0    0    0    0  0.00000000000E+00  0.00000000000E+00  0.45593999997E+02  0.45594000000E+02  0.51100000000E-03 0.  1.
         11   -1    0    0    0    0 -0.00000000000E+00 -0.00000000000E+00 -0.45593999997E+02  0.45594000000E+02  0.51100000000E-03 0. -1.
    9900012    2    1    2    0    0 -0.37677988505E+02 -0.20812972484E+02  0.55509061603E+01  0.47787271889E+02  0.20000003850E+02 0.  0.
         12    1    1    2    0    0  0.37677988505E+02  0.20812972484E+02 -0.55509061603E+01  0.43400728111E+02  0.00000000000E+00 0. -1.
         11    1    3    3    0    0  0.22291746173E+00 -0.33042823358E+01 -0.20276666972E+01  0.38832211430E+01  0.51100000000E-03 0. -1.
        -11    1    3    3    0    0 -0.24584883196E+02 -0.10223228662E+02 -0.65933119964E+00  0.26633918298E+02  0.51100000000E-03 0.  1.
        -12    1    3    3    0    0 -0.13316022771E+02 -0.72854614861E+01  0.82379040572E+01  0.17270132448E+02  0.00000000000E+00 0.  1.
</event>
<event>
 7    1  0.1246400E-009  0.4778727E+02  0.7816164E-02  0.1312668E+00
        -11   -1    0    0    0    0  0.00000000000E+00  0.00000000000E+00  0.45593999997E+02  0.45594000000E+02  0.51100000000E-03 0. -1.
         11   -1    0    0    0    0 -0.00000000000E+00 -0.00000000000E+00 -0.45593999997E+02  0.45594000000E+02  0.51100000000E-03 0.  1.
    9900012    2    1    2    0    0 -0.13449960320E+02  0.28649091813E+02 -0.29697669099E+02  0.47787269082E+02  0.19999991053E+02 0.  0.
         12    1    1    2    0    0  0.13449960320E+02 -0.28649091813E+02  0.29697669099E+02  0.43400730918E+02  0.00000000000E+00 0. -1.
         11    1    3    3    0    0  0.44549513418E+00  0.53885631294E+01 -0.14784853042E+02  0.15742520708E+02  0.51100000000E-03 0. -1.
        -11    1    3    3    0    0 -0.32678383231E+01  0.31577301292E+01  0.50399370746E+00  0.45720932616E+01  0.51100000000E-03 0.  1.
        -12    1    3    3    0    0 -0.10627617131E+02  0.20102798554E+02 -0.15416809764E+02  0.27472655112E+02  0.00000000000E+00 0.  1.
</event>
<event>
 7    1  0.1246400E-009  0.4778727E+02  0.7816164E-02  0.1312668E+00
        -11   -1    0    0    0    0  0.00000000000E+00  0.00000000000E+00  0.45593999997E+02  0.45594000000E+02  0.51100000000E-03 0.  1.
         11   -1    0    0    0    0 -0.00000000000E+00 -0.00000000000E+00 -0.45593999997E+02  0.45594000000E+02  0.51100000000E-03 0. -1.
    9900012    2    1    2    0    0 -0.18105285537E+02 -0.18155068989E+02  0.35017354158E+02  0.47787274354E+02  0.20000015092E+02 0.  0.
         12    1    1    2    0    0  0.18105285537E+02  0.18155068989E+02 -0.35017354158E+02  0.43400725646E+02  0.00000000000E+00 0. -1.
         11    1    3    3    0    0 -0.78159001215E-01 -0.22266036529E+01 -0.14948832597E+01  0.26830111587E+01  0.51100000000E-03 0. -1.
        -11    1    3    3    0    0 -0.42023713521E+01 -0.94934176671E+01  0.20580352575E+02  0.23050722686E+02  0.51100000000E-03 0.  1.
        -12    1    3    3    0    0 -0.13824755183E+02 -0.64350476690E+01  0.15931884842E+02  0.22053540509E+02  0.00000000000E+00 0.  1.
</event>
<event>
 7    1  0.1246400E-009  0.4778727E+02  0.7816164E-02  0.1312668E+00
        -11   -1    0    0    0    0  0.00000000000E+00  0.00000000000E+00  0.45593999997E+02  0.45594000000E+02  0.51100000000E-03 0.  1.
         11   -1    0    0    0    0 -0.00000000000E+00 -0.00000000000E+00 -0.45593999997E+02  0.45594000000E+02  0.51100000000E-03 0. -1.
    9900012    2    1    2    0    0  0.33111264469E+02  0.73543723308E+01  0.27077314130E+02  0.47787267660E+02  0.19999984569E+02 0.  0.
         12    1    1    2    0    0 -0.33111264469E+02 -0.73543723308E+01 -0.27077314130E+02  0.43400732340E+02  0.00000000000E+00 0. -1.
         11    1    3    3    0    0  0.12920517289E+02  0.66237472952E+01  0.61707316075E+01  0.15776302611E+02  0.51100000000E-03 0. -1.
        -11    1    3    3    0    0  0.17803645307E+02 -0.39818463373E+01  0.12617381531E+02  0.22181596052E+02  0.51100000000E-03 0.  1.
         12    1    3    3    0    0  0.23871018740E+01  0.47124713730E+01  0.82892009912E+01  0.98293689965E+01  0.00000000000E+00 0. -1.
</event>
<event>
 7    1  0.1246400E-009  0.4778727E+02  0.7816164E-02  0.1312668E+00
        -11   -1    0    0    0    0  0.00000000000E+00  0.00000000000E+00  0.45593999997E+02  0.45594000000E+02  0.51100000000E-03 0.  1.
         11   -1    0    0    0    0 -0.00000000000E+00 -0.00000000000E+00 -0.45593999997E+02  0.45594000000E+02  0.51100000000E-03 0. -1.
    9900012    2    1    2    0    0  0.51160882493E+01  0.11117298902E+02  0.41639577624E+02  0.47787272834E+02  0.20000008159E+02 0.  0.
         12    1    1    2    0    0 -0.51160882493E+01 -0.11117298902E+02 -0.41639577624E+02  0.43400727166E+02  0.00000000000E+00 0. -1.
         11    1    3    3    0    0  0.64484740673E+01  0.84058569129E+00  0.39778445812E+01  0.76231653448E+01  0.51100000000E-03 0. -1.
        -11    1    3    3    0    0  0.32055556153E+01  0.32726933721E+01  0.21411948211E+02  0.21896521074E+02  0.51100000000E-03 0.  1.
        -12    1    3    3    0    0 -0.45379414333E+01  0.70040198384E+01  0.16249784832E+02  0.18267586415E+02  0.00000000000E+00 0.  1.
</event>
<event>
 7    1  0.1246400E-009  0.4778727E+02  0.7816164E-02  0.1312668E+00
        -11   -1    0    0    0    0  0.00000000000E+00  0.00000000000E+00  0.45593999997E+02  0.45594000000E+02  0.51100000000E-03 0. -1.
         11   -1    0    0    0    0 -0.00000000000E+00 -0.00000000000E+00 -0.45593999997E+02  0.45594000000E+02  0.51100000000E-03 0.  1.
    9900012    2    1    2    0    0 -0.12005829661E+02  0.22141707310E+02 -0.35344418767E+02  0.47787273204E+02  0.20000009845E+02 0.  0.
         12    1    1    2    0    0  0.12005829661E+02 -0.22141707310E+02  0.35344418767E+02  0.43400726796E+02  0.00000000000E+00 0. -1.
         11    1    3    3    0    0 -0.56364346047E+01  0.28323504641E+01 -0.26293333723E-01  0.63081134902E+01  0.51100000000E-03 0. -1.
        -11    1    3    3    0    0 -0.14424555708E+01  0.32042531338E+01 -0.13311044537E+02  0.13767055718E+02  0.51100000000E-03 0.  1.
        -12    1    3    3    0    0 -0.49269394851E+01  0.16105103712E+02 -0.22007080897E+02  0.27712103996E+02  0.00000000000E+00 0.  1.
</event>
<event>
 7    1  0.1246400E-009  0.4778727E+02  0.7816164E-02  0.1312668E+00
        -11   -1    0    0    0    0  0.00000000000E+00  0.00000000000E+00  0.45593999997E+02  0.45594000000E+02  0.51100000000E-03 0.  1.
         11   -1    0    0    0    0 -0.00000000000E+00 -0.00000000000E+00 -0.45593999997E+02  0.45594000000E+02  0.51100000000E-03 0. -1.
    9900012    2    1    2    0    0  0.16845540617E+02 -0.34557311972E+02  0.20140586455E+02  0.47787271064E+02  0.20000000091E+02 0.  0.
         12    1    1    2    0    0 -0.16845540617E+02  0.34557311972E+02 -0.20140586455E+02  0.43400728936E+02  0.00000000000E+00 0. -1.
         11    1    3    3    0    0  0.48822560366E+01 -0.11254368336E+02  0.13992190969E+02  0.18608563593E+02  0.51100000000E-03 0. -1.
        -11    1    3    3    0    0  0.12022118556E+02 -0.24517773986E+02  0.59267632520E+01  0.27942424711E+02  0.51100000000E-03 0.  1.
         12    1    3    3    0    0 -0.58833975824E-01  0.12148303499E+01  0.22163223415E+00  0.12362827601E+01  0.00000000000E+00 0. -1.
</event>
<event>
 7    1  0.1246400E-009  0.4778727E+02  0.7816164E-02  0.1312668E+00
        -11   -1    0    0    0    0  0.00000000000E+00  0.00000000000E+00  0.45593999997E+02  0.45594000000E+02  0.51100000000E-03 0. -1.
         11   -1    0    0    0    0 -0.00000000000E+00 -0.00000000000E+00 -0.45593999997E+02  0.45594000000E+02  0.51100000000E-03 0.  1.
    9900012    2    1    2    0    0  0.27580764887E+02 -0.32321857343E+02 -0.88443155473E+01  0.47787274530E+02  0.20000015891E+02 0.  0.
         12    1    1    2    0    0 -0.27580764887E+02  0.32321857343E+02  0.88443155473E+01  0.43400725470E+02  0.00000000000E+00 0. -1.
         11    1    3    3    0    0  0.27736800697E+01  0.22991634364E+01 -0.21836453414E+01  0.42128091429E+01  0.51100000000E-03 0. -1.
        -11    1    3    3    0    0  0.83617152864E+01 -0.12789667050E+02 -0.54223597833E+01  0.16214063391E+02  0.51100000000E-03 0.  1.
         12    1    3    3    0    0  0.16445369531E+02 -0.21831353729E+02 -0.12383104226E+01  0.27360401995E+02  0.00000000000E+00 0. -1.
</event>
<event>
 7    1  0.1246400E-009  0.4778727E+02  0.7816164E-02  0.1312668E+00
        -11   -1    0    0    0    0  0.00000000000E+00  0.00000000000E+00  0.45593999997E+02  0.45594000000E+02  0.51100000000E-03 0. -1.
         11   -1    0    0    0    0 -0.00000000000E+00 -0.00000000000E+00 -0.45593999997E+02  0.45594000000E+02  0.51100000000E-03 0.  1.
    9900012    2    1    2    0    0 -0.34478785210E+01 -0.42947684312E+02 -0.52184174797E+01  0.47787270340E+02  0.19999996787E+02 0.  0.
         12    1    1    2    0    0  0.34478785210E+01  0.42947684312E+02  0.52184174797E+01  0.43400729660E+02  0.00000000000E+00 0. -1.
         11    1    3    3    0    0  0.38269964874E+01 -0.23591779677E+02  0.18275689045E-01  0.23900173738E+02  0.51100000000E-03 0.  1.
        -11    1    3    3    0    0 -0.16385417332E+01  0.70918515163E+00  0.11077219022E+01  0.21011450841E+01  0.51100000000E-03 0. -1.
        -12    1    3    3    0    0 -0.56363332753E+01 -0.20065089787E+02 -0.63444150710E+01  0.21785951518E+02  0.00000000000E+00 0.  1.
</event>
<event>
 7    1  0.1246400E-009  0.4778727E+02  0.7816164E-02  0.1312668E+00
        -11   -1    0    0    0    0  0.00000000000E+00  0.00000000000E+00  0.45593999997E+02  0.45594000000E+02  0.51100000000E-03 0.  1.
         11   -1    0    0    0    0 -0.00000000000E+00 -0.00000000000E+00 -0.45593999997E+02  0.45594000000E+02  0.51100000000E-03 0. -1.
    9900012    2    1    2    0    0  0.15921702556E+02 -0.20891205397E+02  0.34549678139E+02  0.47787270344E+02  0.19999996806E+02 0.  0.
         12    1    1    2    0    0 -0.15921702556E+02  0.20891205397E+02 -0.34549678139E+02  0.43400729656E+02  0.00000000000E+00 0. -1.
         11    1    3    3    0    0 -0.20063686637E+01  0.14618740132E+01  0.10230031340E+01  0.26849816607E+01  0.51100000000E-03 0.  1.
        -11    1    3    3    0    0  0.49850793471E+00 -0.25694767900E+01  0.22559903762E+00  0.26270927510E+01  0.51100000000E-03 0. -1.
        -12    1    3    3    0    0  0.17429563285E+02 -0.19783602620E+02  0.33301075967E+02  0.42475195932E+02  0.00000000000E+00 0.  1.
</event>
<event>
 7    1  0.1246400E-009  0.4778728E+02  0.7816164E-02  0.1312668E+00
        -11   -1    0    0    0    0  0.00000000000E+00  0.00000000000E+00  0.45593999997E+02  0.45594000000E+02  0.51100000000E-03 0.  1.
         11   -1    0    0    0    0 -0.00000000000E+00 -0.00000000000E+00 -0.45593999997E+02  0.45594000000E+02  0.51100000000E-03 0. -1.
    9900012    2    1    2    0    0 -0.22678422787E+02  0.15790204592E+02  0.33466119101E+02  0.47787279397E+02  0.20000038083E+02 0.  0.
         12    1    1    2    0    0  0.22678422787E+02 -0.15790204592E+02 -0.33466119101E+02  0.43400720603E+02  0.00000000000E+00 0. -1.
         11    1    3    3    0    0 -0.64709088292E+01 -0.60677418165E+00  0.19219479297E+01  0.67775157757E+01  0.51100000000E-03 0. -1.
        -11    1    3    3    0    0 -0.84271097803E-01  0.55721722642E+01  0.25881176241E+01  0.61444738145E+01  0.51100000000E-03 0.  1.
        -12    1    3    3    0    0 -0.16123242860E+02  0.10824806509E+02  0.28956053547E+02  0.34865289807E+02  0.00000000000E+00 0.  1.
</event>
<event>
 7    1  0.1246400E-009  0.4778726E+02  0.7816164E-02  0.1312668E+00
        -11   -1    0    0    0    0  0.00000000000E+00  0.00000000000E+00  0.45593999997E+02  0.45594000000E+02  0.51100000000E-03 0.  1.
         11   -1    0    0    0    0 -0.00000000000E+00 -0.00000000000E+00 -0.45593999997E+02  0.45594000000E+02  0.51100000000E-03 0. -1.
    9900012    2    1    2    0    0 -0.27111572804E+02  0.21037864947E+02  0.26570564788E+02  0.47787262050E+02  0.19999958991E+02 0.  0.
         12    1    1    2    0    0  0.27111572804E+02 -0.21037864947E+02 -0.26570564788E+02  0.43400737950E+02  0.00000000000E+00 0. -1.
         11    1    3    3    0    0 -0.25489672268E+01  0.36767641815E+01  0.12544816233E+02  0.13318717782E+02  0.51100000000E-03 0. -1.
        -11    1    3    3    0    0 -0.41442264937E+01  0.71694575969E+01  0.14331763003E+01  0.84041495723E+01  0.51100000000E-03 0.  1.
        -12    1    3    3    0    0 -0.20418379084E+02  0.10191643169E+02  0.12592572254E+02  0.26064394696E+02  0.00000000000E+00 0.  1.
</event>
<event>
 7    1  0.1246400E-009  0.4778726E+02  0.7816164E-02  0.1312668E+00
        -11   -1    0    0    0    0  0.00000000000E+00  0.00000000000E+00  0.45593999997E+02  0.45594000000E+02  0.51100000000E-03 0. -1.
         11   -1    0    0    0    0 -0.00000000000E+00 -0.00000000000E+00 -0.45593999997E+02  0.45594000000E+02  0.51100000000E-03 0.  1.
    9900012    2    1    2    0    0  0.30643213340E+02  0.19269755685E+02 -0.23943565716E+02  0.47787258680E+02  0.19999943626E+02 0.  0.
         12    1    1    2    0    0 -0.30643213340E+02 -0.19269755685E+02  0.23943565716E+02  0.43400741320E+02  0.00000000000E+00 0. -1.
         11    1    3    3    0    0  0.12433033469E+02  0.15900890696E+02 -0.69748956890E+01  0.21355744339E+02  0.51100000000E-03 0. -1.
        -11    1    3    3    0    0  0.10813992085E+02  0.51716350052E+01 -0.69751245444E+01  0.13868691218E+02  0.51100000000E-03 0.  1.
        -12    1    3    3    0    0  0.73961877863E+01 -0.18027700163E+01 -0.99935454826E+01  0.12562823123E+02  0.00000000000E+00 0.  1.
</event>
<event>
 7    1  0.1246400E-009  0.4778730E+02  0.7816164E-02  0.1312668E+00
        -11   -1    0    0    0    0  0.00000000000E+00  0.00000000000E+00  0.45593999997E+02  0.45594000000E+02  0.51100000000E-03 0. -1.
         11   -1    0    0    0    0 -0.00000000000E+00 -0.00000000000E+00 -0.45593999997E+02  0.45594000000E+02  0.51100000000E-03 0.  1.
    9900012    2    1    2    0    0 -0.10830944535E+02 -0.27092150483E+02 -0.32129843808E+02  0.47787299079E+02  0.20000127819E+02 0.  0.
         12    1    1    2    0    0  0.10830944535E+02  0.27092150483E+02  0.32129843808E+02  0.43400700921E+02  0.00000000000E+00 0. -1.
         11    1    3    3    0    0 -0.38886264110E+01 -0.21498150781E+02 -0.31547454485E+02  0.38373607951E+02  0.51100000000E-03 0.  1.
        -11    1    3    3    0    0 -0.53225925530E+01 -0.47083642579E+01 -0.16304497992E+01  0.72908883052E+01  0.51100000000E-03 0. -1.
        -12    1    3    3    0    0 -0.16197255708E+01 -0.88563544368E+00  0.10480604761E+01  0.21228028231E+01  0.00000000000E+00 0.  1.
</event>
<event>
 7    1  0.1246400E-009  0.4778727E+02  0.7816164E-02  0.1312668E+00
        -11   -1    0    0    0    0  0.00000000000E+00  0.00000000000E+00  0.45593999997E+02  0.45594000000E+02  0.51100000000E-03 0.  1.
         11   -1    0    0    0    0 -0.00000000000E+00 -0.00000000000E+00 -0.45593999997E+02  0.45594000000E+02  0.51100000000E-03 0. -1.
    9900012    2    1    2    0    0 -0.18929555001E+02  0.35908489256E+02  0.15358248658E+02  0.47787268957E+02  0.19999990483E+02 0.  0.
         12    1    1    2    0    0  0.18929555001E+02 -0.35908489256E+02 -0.15358248658E+02  0.43400731043E+02  0.00000000000E+00 0. -1.
         11    1    3    3    0    0 -0.17363244705E+01  0.88648222348E+01  0.10462031139E+02  0.13822228176E+02  0.51100000000E-03 0. -1.
        -11    1    3    3    0    0 -0.13499105027E+02  0.16132157967E+02  0.71689708339E+01  0.22223107349E+02  0.51100000000E-03 0.  1.
         12    1    3    3    0    0 -0.36941255039E+01  0.10911509055E+02 -0.22727533152E+01  0.11741933432E+02  0.00000000000E+00 0. -1.
</event>
<event>
 7    1  0.1246400E-009  0.4778727E+02  0.7816164E-02  0.1312668E+00
        -11   -1    0    0    0    0  0.00000000000E+00  0.00000000000E+00  0.45593999997E+02  0.45594000000E+02  0.51100000000E-03 0. -1.
         11   -1    0    0    0    0 -0.00000000000E+00 -0.00000000000E+00 -0.45593999997E+02  0.45594000000E+02  0.51100000000E-03 0.  1.
    9900012    2    1    2    0    0 -0.37973748180E+02  0.17558848883E+02 -0.11545772078E+02  0.47787267543E+02  0.19999984035E+02 0.  0.
         12    1    1    2    0    0  0.37973748180E+02 -0.17558848883E+02  0.11545772078E+02  0.43400732457E+02  0.00000000000E+00 0. -1.
         11    1    3    3    0    0 -0.26788970715E+02  0.42657217619E+01 -0.38051441044E+01  0.27392050964E+02  0.51100000000E-03 0. -1.
        -11    1    3    3    0    0 -0.27253871130E+01  0.47536024955E+00  0.72353560763E+00  0.28595814937E+01  0.51100000000E-03 0.  1.
        -12    1    3    3    0    0 -0.84593903526E+01  0.12817766871E+02 -0.84641635816E+01  0.17535635085E+02  0.00000000000E+00 0.  1.
</event>
<event>
 7    1  0.1246400E-009  0.4778727E+02  0.7816164E-02  0.1312668E+00
        -11   -1    0    0    0    0  0.00000000000E+00  0.00000000000E+00  0.45593999997E+02  0.45594000000E+02  0.51100000000E-03 0.  1.
         11   -1    0    0    0    0 -0.00000000000E+00 -0.00000000000E+00 -0.45593999997E+02  0.45594000000E+02  0.51100000000E-03 0. -1.
    9900012    2    1    2    0    0  0.60352630808E+01 -0.35913302580E+01  0.42828748353E+02  0.47787265686E+02  0.19999975570E+02 0.  0.
         12    1    1    2    0    0 -0.60352630808E+01  0.35913302580E+01 -0.42828748353E+02  0.43400734314E+02  0.00000000000E+00 0. -1.
         11    1    3    3    0    0  0.66099279178E+01 -0.53867984674E+01  0.17773272699E+02  0.19712888360E+02  0.51100000000E-03 0. -1.
        -11    1    3    3    0    0 -0.45320406274E+01 -0.40767539529E+00  0.22328627595E+02  0.22787566830E+02  0.51100000000E-03 0.  1.
         12    1    3    3    0    0  0.39573757904E+01  0.22031436046E+01  0.27268480590E+01  0.52868104965E+01  0.00000000000E+00 0. -1.
</event>
<event>
 7    1  0.1246400E-009  0.4778731E+02  0.7816164E-02  0.1312668E+00
        -11   -1    0    0    0    0  0.00000000000E+00  0.00000000000E+00  0.45593999997E+02  0.45594000000E+02  0.51100000000E-03 0.  1.
         11   -1    0    0    0    0 -0.00000000000E+00 -0.00000000000E+00 -0.45593999997E+02  0.45594000000E+02  0.51100000000E-03 0. -1.
    9900012    2    1    2    0    0 -0.15669921232E+02  0.77125577726E+01  0.39731473767E+02  0.47787308917E+02  0.20000172674E+02 0.  0.
         12    1    1    2    0    0  0.15669921232E+02 -0.77125577726E+01 -0.39731473767E+02  0.43400691083E+02  0.00000000000E+00 0. -1.
         11    1    3    3    0    0 -0.73072808172E+01  0.80719653392E+01  0.14645637419E+02  0.18249593778E+02  0.51100000000E-03 0. -1.
        -11    1    3    3    0    0 -0.50893761215E+01  0.57039267644E+00  0.25590345525E+02  0.26097756253E+02  0.51100000000E-03 0.  1.
        -12    1    3    3    0    0 -0.32732642933E+01 -0.92980024306E+00 -0.50450917708E+00  0.34399588857E+01  0.00000000000E+00 0.  1.
</event>
<event>
 7    1  0.1246400E-009  0.4778728E+02  0.7816164E-02  0.1312668E+00
        -11   -1    0    0    0    0  0.00000000000E+00  0.00000000000E+00  0.45593999997E+02  0.45594000000E+02  0.51100000000E-03 0.  1.
         11   -1    0    0    0    0 -0.00000000000E+00 -0.00000000000E+00 -0.45593999997E+02  0.45594000000E+02  0.51100000000E-03 0. -1.
    9900012    2    1    2    0    0  0.46045448905E+01 -0.42133619060E+02 -0.93369613881E+01  0.47787279537E+02  0.20000038722E+02 0.  0.
         12    1    1    2    0    0 -0.46045448905E+01  0.42133619060E+02  0.93369613881E+01  0.43400720463E+02  0.00000000000E+00 0. -1.
         11    1    3    3    0    0  0.20986580380E+01  0.18804141380E+00  0.18744638775E+01  0.28201667013E+01  0.51100000000E-03 0. -1.
        -11    1    3    3    0    0  0.13541988648E+01 -0.14592405486E+01 -0.24557224937E+01  0.31612989057E+01  0.51100000000E-03 0.  1.
        -12    1    3    3    0    0  0.11516879876E+01 -0.40862419925E+02 -0.87557027719E+01  0.41805813930E+02  0.00000000000E+00 0.  1.
</event>
<event>
 7    1  0.1246400E-009  0.4778727E+02  0.7816164E-02  0.1312668E+00
        -11   -1    0    0    0    0  0.00000000000E+00  0.00000000000E+00  0.45593999997E+02  0.45594000000E+02  0.51100000000E-03 0.  1.
         11   -1    0    0    0    0 -0.00000000000E+00 -0.00000000000E+00 -0.45593999997E+02  0.45594000000E+02  0.51100000000E-03 0. -1.
    9900012    2    1    2    0    0  0.10285359141E+02 -0.29652263996E+02  0.29976291326E+02  0.47787269426E+02  0.19999992619E+02 0.  0.
         12    1    1    2    0    0 -0.10285359141E+02  0.29652263996E+02 -0.29976291326E+02  0.43400730574E+02  0.00000000000E+00 0. -1.
         11    1    3    3    0    0  0.28714048747E+01 -0.11846249903E+01  0.20911822927E+01  0.37445087748E+01  0.51100000000E-03 0. -1.
        -11    1    3    3    0    0  0.80878982240E+00 -0.24931895605E+02  0.26554698115E+02  0.36433577255E+02  0.51100000000E-03 0.  1.
        -12    1    3    3    0    0  0.66051644441E+01 -0.35357434009E+01  0.13304109186E+01  0.76091833953E+01  0.00000000000E+00 0.  1.
</event>
<event>
 7    1  0.1568578E-009  0.4778730E+02  0.7816164E-02  0.1312668E+00
        -11   -1    0    0    0    0  0.00000000000E+00  0.00000000000E+00  0.45593999997E+02  0.45594000000E+02  0.51100000000E-03 0. -1.
         11   -1    0    0    0    0 -0.00000000000E+00 -0.00000000000E+00 -0.45593999997E+02  0.45594000000E+02  0.51100000000E-03 0.  1.
    9900012    2    1    2    0    0 -0.69123474334E+01  0.36074769393E+02 -0.23118210091E+02  0.47787295264E+02  0.20000110424E+02 0.  0.
         12    1    1    2    0    0  0.69123474334E+01 -0.36074769393E+02  0.23118210091E+02  0.43400704736E+02  0.00000000000E+00 0. -1.
         11    1    3    3    0    0 -0.31615178332E+00  0.13304113243E+02 -0.17180361895E+00  0.13308978093E+02  0.51100000000E-03 0. -1.
        -11    1    3    3    0    0 -0.30234941313E+01  0.20454294438E+02 -0.15283683711E+02  0.25712072374E+02  0.51100000000E-03 0.  1.
         12    1    3    3    0    0 -0.35727015188E+01  0.23163617117E+01 -0.76627227604E+01  0.87662447960E+01  0.00000000000E+00 0. -1.
</event>
<event>
 7    1  0.1246400E-009  0.4778727E+02  0.7816164E-02  0.1312668E+00
        -11   -1    0    0    0    0  0.00000000000E+00  0.00000000000E+00  0.45593999997E+02  0.45594000000E+02  0.51100000000E-03 0.  1.
         11   -1    0    0    0    0 -0.00000000000E+00 -0.00000000000E+00 -0.45593999997E+02  0.45594000000E+02  0.51100000000E-03 0. -1.
    9900012    2    1    2    0    0 -0.34598757486E+01  0.27108952747E+02  0.33715834633E+02  0.47787267699E+02  0.19999984749E+02 0.  0.
         12    1    1    2    0    0  0.34598757486E+01 -0.27108952747E+02 -0.33715834633E+02  0.43400732301E+02  0.00000000000E+00 0. -1.
         11    1    3    3    0    0 -0.69469285067E+01  0.11465235020E+02  0.77220618197E+01  0.15470671245E+02  0.51100000000E-03 0. -1.
        -11    1    3    3    0    0 -0.11702469926E+01  0.45196412568E+00  0.88623281422E+01  0.89506765083E+01  0.51100000000E-03 0.  1.
        -12    1    3    3    0    0  0.46572997507E+01  0.15191753601E+02  0.17131444671E+02  0.23365919947E+02  0.00000000000E+00 0.  1.
</event>
<event>
 7    1  0.1246400E-009  0.4778728E+02  0.7816164E-02  0.1312668E+00
        -11   -1    0    0    0    0  0.00000000000E+00  0.00000000000E+00  0.45593999997E+02  0.45594000000E+02  0.51100000000E-03 0. -1.
         11   -1    0    0    0    0 -0.00000000000E+00 -0.00000000000E+00 -0.45593999997E+02  0.45594000000E+02  0.51100000000E-03 0.  1.
    9900012    2    1    2    0    0  0.34835879282E+02  0.21671965814E+02 -0.14156623444E+02  0.47787279097E+02  0.20000036713E+02 0.  0.
         12    1    1    2    0    0 -0.34835879282E+02 -0.21671965814E+02  0.14156623444E+02  0.43400720903E+02  0.00000000000E+00 0. -1.
         11    1    3    3    0    0  0.19007628187E+02  0.88825237086E+01 -0.83954995560E+01  0.22598087746E+02  0.51100000000E-03 0. -1.
        -11    1    3    3    0    0  0.12559905492E+02  0.11476682700E+02 -0.99553119890E+01  0.19712273051E+02  0.51100000000E-03 0.  1.
         12    1    3    3    0    0  0.32683456028E+01  0.13127594053E+01  0.41941881006E+01  0.54769182995E+01  0.00000000000E+00 0. -1.
</event>
<event>
 7    1  0.1246400E-009  0.4778727E+02  0.7816164E-02  0.1312668E+00
        -11   -1    0    0    0    0  0.00000000000E+00  0.00000000000E+00  0.45593999997E+02  0.45594000000E+02  0.51100000000E-03 0.  1.
         11   -1    0    0    0    0 -0.00000000000E+00 -0.00000000000E+00 -0.45593999997E+02  0.45594000000E+02  0.51100000000E-03 0. -1.
    9900012    2    1    2    0    0 -0.29308829388E+01 -0.33417584349E+02  0.27537216431E+02  0.47787270659E+02  0.19999998243E+02 0.  0.
         12    1    1    2    0    0  0.29308829388E+01  0.33417584349E+02 -0.27537216431E+02  0.43400729341E+02  0.00000000000E+00 0. -1.
         11    1    3    3    0    0  0.33171248914E+01 -0.51194942935E+01  0.28327842018E+00  0.61067819914E+01  0.51100000000E-03 0. -1.
        -11    1    3    3    0    0  0.36548744790E+00 -0.99450730281E+01  0.16855079381E+02  0.19573751808E+02  0.51100000000E-03 0.  1.
        -12    1    3    3    0    0 -0.66134952781E+01 -0.18353017027E+02  0.10398858630E+02  0.22106736860E+02  0.00000000000E+00 0.  1.
</event>
<event>
 7    1  0.1246400E-009  0.4778727E+02  0.7816164E-02  0.1312668E+00
        -11   -1    0    0    0    0  0.00000000000E+00  0.00000000000E+00  0.45593999997E+02  0.45594000000E+02  0.51100000000E-03 0.  1.
         11   -1    0    0    0    0 -0.00000000000E+00 -0.00000000000E+00 -0.45593999997E+02  0.45594000000E+02  0.51100000000E-03 0. -1.
    9900012    2    1    2    0    0  0.27836880993E+02 -0.26846906149E+02  0.19697077064E+02  0.47787272379E+02  0.20000006085E+02 0.  0.
         12    1    1    2    0    0 -0.27836880993E+02  0.26846906149E+02 -0.19697077064E+02  0.43400727621E+02  0.00000000000E+00 0. -1.
         11    1    3    3    0    0  0.19040643636E+02 -0.15395829039E+02  0.57986532805E+01  0.25163506155E+02  0.51100000000E-03 0. -1.
        -11    1    3    3    0    0  0.27204681647E+01 -0.10131613077E+02  0.46385853363E+01  0.11470266116E+02  0.51100000000E-03 0.  1.
        -12    1    3    3    0    0  0.60757691921E+01 -0.13194640324E+01  0.92598384469E+01  0.11153500108E+02  0.00000000000E+00 0.  1.
</event>
<event>
 7    1  0.1341827E-009  0.4778727E+02  0.7816164E-02  0.1312668E+00
        -11   -1    0    0    0    0  0.00000000000E+00  0.00000000000E+00  0.45593999997E+02  0.45594000000E+02  0.51100000000E-03 0. -1.
         11   -1    0    0    0    0 -0.00000000000E+00 -0.00000000000E+00 -0.45593999997E+02  0.45594000000E+02  0.51100000000E-03 0.  1.
    9900012    2    1    2    0    0  0.23588226470E+02  0.26202187758E+02 -0.25311348295E+02  0.47787269317E+02  0.19999992124E+02 0.  0.
         12    1    1    2    0    0 -0.23588226470E+02 -0.26202187758E+02  0.25311348295E+02  0.43400730683E+02  0.00000000000E+00 0. -1.
         11    1    3    3    0    0  0.97230614001E+01  0.11798264088E+01 -0.21643523594E+01  0.10030669706E+02  0.51100000000E-03 0. -1.
        -11    1    3    3    0    0  0.23520060405E+01  0.81552847153E+01 -0.11348869428E+02  0.14171712626E+02  0.51100000000E-03 0.  1.
        -12    1    3    3    0    0  0.11513159029E+02  0.16867076634E+02 -0.11798126507E+02  0.23584886985E+02  0.00000000000E+00 0.  1.
</event>
<event>
 7    1  0.1246400E-009  0.4778727E+02  0.7816164E-02  0.1312668E+00
        -11   -1    0    0    0    0  0.00000000000E+00  0.00000000000E+00  0.45593999997E+02  0.45594000000E+02  0.51100000000E-03 0.  1.
         11   -1    0    0    0    0 -0.00000000000E+00 -0.00000000000E+00 -0.45593999997E+02  0.45594000000E+02  0.51100000000E-03 0. -1.
    9900012    2    1    2    0    0 -0.25062930068E+02  0.33052826516E+02 -0.12766496040E+02  0.47787271603E+02  0.20000002546E+02 0.  0.
         12    1    1    2    0    0  0.25062930068E+02 -0.33052826516E+02  0.12766496040E+02  0.43400728397E+02  0.00000000000E+00 0. -1.
         11    1    3    3    0    0 -0.20864868175E+01  0.10731322378E+02 -0.96243586799E+00  0.10974561052E+02  0.51100000000E-03 0. -1.
        -11    1    3    3    0    0 -0.12397571501E+02  0.52830682945E+01  0.12655689507E+00  0.13476891579E+02  0.51100000000E-03 0.  1.
         12    1    3    3    0    0 -0.10578871749E+02  0.17038435843E+02 -0.11930617067E+02  0.23335818972E+02  0.00000000000E+00 0. -1.
</event>
<event>
 7    1  0.1246400E-009  0.4778727E+02  0.7816164E-02  0.1312668E+00
        -11   -1    0    0    0    0  0.00000000000E+00  0.00000000000E+00  0.45593999997E+02  0.45594000000E+02  0.51100000000E-03 0.  1.
         11   -1    0    0    0    0 -0.00000000000E+00 -0.00000000000E+00 -0.45593999997E+02  0.45594000000E+02  0.51100000000E-03 0. -1.
    9900012    2    1    2    0    0  0.65368450276E+01 -0.23087309824E+02  0.36164473497E+02  0.47787270039E+02  0.19999995416E+02 0.  0.
         12    1    1    2    0    0 -0.65368450276E+01  0.23087309824E+02 -0.36164473497E+02  0.43400729961E+02  0.00000000000E+00 0. -1.
         11    1    3    3    0    0  0.48113069375E+01 -0.86314058008E+01  0.68644894493E+01  0.12032084450E+02  0.51100000000E-03 0.  1.
        -11    1    3    3    0    0  0.35687295134E-01 -0.15577300551E+02  0.29835796676E+02  0.33657515202E+02  0.51100000000E-03 0. -1.
         12    1    3    3    0    0  0.16898507950E+01  0.11213965279E+01 -0.53581262764E+00  0.20976703873E+01  0.00000000000E+00 0. -1.
</event>
<event>
 7    1  0.1246400E-009  0.4778727E+02  0.7816164E-02  0.1312668E+00
        -11   -1    0    0    0    0  0.00000000000E+00  0.00000000000E+00  0.45593999997E+02  0.45594000000E+02  0.51100000000E-03 0.  1.
         11   -1    0    0    0    0 -0.00000000000E+00 -0.00000000000E+00 -0.45593999997E+02  0.45594000000E+02  0.51100000000E-03 0. -1.
    9900012    2    1    2    0    0  0.18448276765E+02  0.18423296414E+02  0.34696777957E+02  0.47787272276E+02  0.20000005615E+02 0.  0.
         12    1    1    2    0    0 -0.18448276765E+02 -0.18423296414E+02 -0.34696777957E+02  0.43400727724E+02  0.00000000000E+00 0. -1.
         11    1    3    3    0    0  0.10327004640E+02  0.14595585518E+02  0.25510374940E+02  0.31152164793E+02  0.51100000000E-03 0. -1.
        -11    1    3    3    0    0 -0.14263979367E+01  0.38356192253E+01  0.41989568418E+01  0.58632605891E+01  0.51100000000E-03 0.  1.
         12    1    3    3    0    0  0.95476700616E+01 -0.79083296144E-02  0.49874461750E+01  0.10771846893E+02  0.00000000000E+00 0. -1.
</event>
<event>
 7    1  0.1246400E-009  0.4778727E+02  0.7816164E-02  0.1312668E+00
        -11   -1    0    0    0    0  0.00000000000E+00  0.00000000000E+00  0.45593999997E+02  0.45594000000E+02  0.51100000000E-03 0.  1.
         11   -1    0    0    0    0 -0.00000000000E+00 -0.00000000000E+00 -0.45593999997E+02  0.45594000000E+02  0.51100000000E-03 0. -1.
    9900012    2    1    2    0    0  0.19980888650E+01 -0.39074195490E+02  0.18783985629E+02  0.47787271568E+02  0.20000002389E+02 0.  0.
         12    1    1    2    0    0 -0.19980888650E+01  0.39074195490E+02 -0.18783985629E+02  0.43400728432E+02  0.00000000000E+00 0. -1.
         11    1    3    3    0    0 -0.73664123079E+01 -0.81975018087E+01  0.28382059771E+01  0.11380618596E+02  0.51100000000E-03 0. -1.
        -11    1    3    3    0    0  0.26459410865E+01 -0.14379739519E+02  0.96297460366E+01  0.17507424763E+02  0.51100000000E-03 0.  1.
        -12    1    3    3    0    0  0.67185600865E+01 -0.16496954162E+02  0.63160336155E+01  0.18899228209E+02  0.00000000000E+00 0.  1.
</event>
<event>
 7    1  0.1246400E-009  0.4778728E+02  0.7816164E-02  0.1312668E+00
        -11   -1    0    0    0    0  0.00000000000E+00  0.00000000000E+00  0.45593999997E+02  0.45594000000E+02  0.51100000000E-03 0. -1.
         11   -1    0    0    0    0 -0.00000000000E+00 -0.00000000000E+00 -0.45593999997E+02  0.45594000000E+02  0.51100000000E-03 0.  1.
    9900012    2    1    2    0    0  0.27907038147E+02  0.23615265742E+02 -0.23391009637E+02  0.47787275512E+02  0.20000020369E+02 0.  0.
         12    1    1    2    0    0 -0.27907038147E+02 -0.23615265742E+02  0.23391009637E+02  0.43400724488E+02  0.00000000000E+00 0. -1.
         11    1    3    3    0    0  0.16938218782E+02  0.28095529752E+01 -0.92801509640E+01  0.19517121857E+02  0.51100000000E-03 0. -1.
        -11    1    3    3    0    0  0.98941330323E+01  0.11876118467E+02 -0.97400905479E+01  0.18270342702E+02  0.51100000000E-03 0.  1.
         12    1    3    3    0    0  0.10746863330E+01  0.89295943005E+01 -0.43707681254E+01  0.99998109528E+01  0.00000000000E+00 0. -1.
</event>
<event>
 7    1  0.1246400E-009  0.4778727E+02  0.7816164E-02  0.1312668E+00
        -11   -1    0    0    0    0  0.00000000000E+00  0.00000000000E+00  0.45593999997E+02  0.45594000000E+02  0.51100000000E-03 0.  1.
         11   -1    0    0    0    0 -0.00000000000E+00 -0.00000000000E+00 -0.45593999997E+02  0.45594000000E+02  0.51100000000E-03 0. -1.
    9900012    2    1    2    0    0  0.39347879345E+02 -0.13722621437E+02 -0.12126728070E+02  0.47787268649E+02  0.19999989080E+02 0.  0.
         12    1    1    2    0    0 -0.39347879345E+02  0.13722621437E+02  0.12126728070E+02  0.43400731351E+02  0.00000000000E+00 0. -1.
         11    1    3    3    0    0  0.88716675291E+01  0.16015969584E+01  0.11312761676E+01  0.90857791956E+01  0.51100000000E-03 0.  1.
        -11    1    3    3    0    0  0.13088938639E+02 -0.12499059261E+02 -0.10347139853E+02  0.20847304394E+02  0.51100000000E-03 0. -1.
         12    1    3    3    0    0  0.17387273177E+02 -0.28251591345E+01 -0.29108643846E+01  0.17854185059E+02  0.00000000000E+00 0. -1.
</event>
<event>
 7    1  0.1246400E-009  0.4778727E+02  0.7816164E-02  0.1312668E+00
        -11   -1    0    0    0    0  0.00000000000E+00  0.00000000000E+00  0.45593999997E+02  0.45594000000E+02  0.51100000000E-03 0. -1.
         11   -1    0    0    0    0 -0.00000000000E+00 -0.00000000000E+00 -0.45593999997E+02  0.45594000000E+02  0.51100000000E-03 0.  1.
    9900012    2    1    2    0    0  0.35783647326E+02  0.19164698419E+02 -0.15358008210E+02  0.47787268467E+02  0.19999988250E+02 0.  0.
         12    1    1    2    0    0 -0.35783647326E+02 -0.19164698419E+02  0.15358008210E+02  0.43400731533E+02  0.00000000000E+00 0. -1.
         11    1    3    3    0    0  0.19158196064E+02 -0.14452291136E+00 -0.95895096654E+01  0.21424660072E+02  0.51100000000E-03 0. -1.
        -11    1    3    3    0    0  0.91844906632E+01  0.12201272352E+02 -0.48869335956E+01  0.16034588737E+02  0.51100000000E-03 0.  1.
         12    1    3    3    0    0  0.74409605982E+01  0.71079489780E+01 -0.88156494884E+00  0.10328019658E+02  0.00000000000E+00 0. -1.
</event>
<event>
 7    1  0.1246400E-009  0.4778727E+02  0.7816164E-02  0.1312668E+00
        -11   -1    0    0    0    0  0.00000000000E+00  0.00000000000E+00  0.45593999997E+02  0.45594000000E+02  0.51100000000E-03 0.  1.
         11   -1    0    0    0    0 -0.00000000000E+00 -0.00000000000E+00 -0.45593999997E+02  0.45594000000E+02  0.51100000000E-03 0. -1.
    9900012    2    1    2    0    0  0.29800796652E+02  0.11273569009E+02  0.29469344585E+02  0.47787272937E+02  0.20000008628E+02 0.  0.
         12    1    1    2    0    0 -0.29800796652E+02 -0.11273569009E+02 -0.29469344585E+02  0.43400727063E+02  0.00000000000E+00 0. -1.
         11    1    3    3    0    0  0.11884121542E+02  0.93700403058E+01  0.20081804723E+02  0.25145752749E+02  0.51100000000E-03 0. -1.
        -11    1    3    3    0    0  0.12421934557E+02  0.59426997840E+01  0.58857488475E+01  0.14975385758E+02  0.51100000000E-03 0.  1.
         12    1    3    3    0    0  0.54947405542E+01 -0.40391710803E+01  0.35017910149E+01  0.76661344292E+01  0.00000000000E+00 0. -1.
</event>
<event>
 7    1  0.1246400E-009  0.4778729E+02  0.7816164E-02  0.1312668E+00
        -11   -1    0    0    0    0  0.00000000000E+00  0.00000000000E+00  0.45593999997E+02  0.45594000000E+02  0.51100000000E-03 0.  1.
         11   -1    0    0    0    0 -0.00000000000E+00 -0.00000000000E+00 -0.45593999997E+02  0.45594000000E+02  0.51100000000E-03 0. -1.
    9900012    2    1    2    0    0  0.31320240073E+02 -0.29529528108E+02  0.55381502077E+01  0.47787290602E+02  0.20000089170E+02 0.  0.
         12    1    1    2    0    0 -0.31320240073E+02  0.29529528108E+02 -0.55381502077E+01  0.43400709398E+02  0.00000000000E+00 0. -1.
         11    1    3    3    0    0  0.96833975630E+00  0.14735846098E+01  0.37975756302E+01  0.41869695979E+01  0.51100000000E-03 0. -1.
        -11    1    3    3    0    0  0.88543394169E+01 -0.11704974222E+02  0.55585076452E+00  0.14687229772E+02  0.51100000000E-03 0.  1.
         12    1    3    3    0    0  0.21497560900E+02 -0.19298138496E+02  0.11847238130E+01  0.28913091232E+02  0.00000000000E+00 0. -1.
</event>
<event>
 7    1  0.1246400E-009  0.4778729E+02  0.7816164E-02  0.1312668E+00
        -11   -1    0    0    0    0  0.00000000000E+00  0.00000000000E+00  0.45593999997E+02  0.45594000000E+02  0.51100000000E-03 0.  1.
         11   -1    0    0    0    0 -0.00000000000E+00 -0.00000000000E+00 -0.45593999997E+02  0.45594000000E+02  0.51100000000E-03 0. -1.
    9900012    2    1    2    0    0  0.25032485132E+02  0.11948954085E+02  0.33379922288E+02  0.47787285403E+02  0.20000065464E+02 0.  0.
         12    1    1    2    0    0 -0.25032485132E+02 -0.11948954085E+02 -0.33379922288E+02  0.43400714597E+02  0.00000000000E+00 0. -1.
         11    1    3    3    0    0 -0.14148564583E+01 -0.10213669196E+01  0.63237733291E-01  0.17461410178E+01  0.51100000000E-03 0. -1.
        -11    1    3    3    0    0  0.54815366976E+00  0.38955537161E+01  0.20391957035E+01  0.44310417036E+01  0.51100000000E-03 0.  1.
        -12    1    3    3    0    0  0.25899187921E+02  0.90747672880E+01  0.31277488851E+02  0.41610102681E+02  0.00000000000E+00 0.  1.
</event>
<event>
 7    1  0.1663307E-009  0.4778727E+02  0.7816164E-02  0.1312668E+00
        -11   -1    0    0    0    0  0.00000000000E+00  0.00000000000E+00  0.45593999997E+02  0.45594000000E+02  0.51100000000E-03 0.  1.
         11   -1    0    0    0    0 -0.00000000000E+00 -0.00000000000E+00 -0.45593999997E+02  0.45594000000E+02  0.51100000000E-03 0. -1.
    9900012    2    1    2    0    0  0.30942360793E+02 -0.22689570907E+02  0.20282429407E+02  0.47787271181E+02  0.20000000622E+02 0.  0.
         12    1    1    2    0    0 -0.30942360793E+02  0.22689570907E+02 -0.20282429407E+02  0.43400728819E+02  0.00000000000E+00 0. -1.
         11    1    3    3    0    0 -0.29178653116E+00  0.15463356894E+01  0.33908774305E+01  0.37382273143E+01  0.51100000000E-03 0. -1.
        -11    1    3    3    0    0  0.14795103692E+02 -0.60756719212E+01  0.45993026704E+01  0.16642189396E+02  0.51100000000E-03 0.  1.
        -12    1    3    3    0    0  0.16439043632E+02 -0.18160234675E+02  0.12292249306E+02  0.27406854471E+02  0.00000000000E+00 0.  1.
</event>
<event>
 7    1  0.1246400E-009  0.4778727E+02  0.7816164E-02  0.1312668E+00
        -11   -1    0    0    0    0  0.00000000000E+00  0.00000000000E+00  0.45593999997E+02  0.45594000000E+02  0.51100000000E-03 0.  1.
         11   -1    0    0    0    0 -0.00000000000E+00 -0.00000000000E+00 -0.45593999997E+02  0.45594000000E+02  0.51100000000E-03 0. -1.
    9900012    2    1    2    0    0  0.30966578737E+01 -0.20706921757E+02  0.38016542301E+02  0.47787269740E+02  0.19999994051E+02 0.  0.
         12    1    1    2    0    0 -0.30966578737E+01  0.20706921757E+02 -0.38016542301E+02  0.43400730260E+02  0.00000000000E+00 0. -1.
         11    1    3    3    0    0 -0.62212411290E+01 -0.25510682451E+01  0.49397861359E+01  0.83434571795E+01  0.51100000000E-03 0. -1.
        -11    1    3    3    0    0  0.23197953580E+01 -0.33126202725E+01  0.12421422541E+02  0.13063178854E+02  0.51100000000E-03 0.  1.
         12    1    3    3    0    0  0.69981036446E+01 -0.14843233239E+02  0.20655333624E+02  0.26380633706E+02  0.00000000000E+00 0. -1.
</event>
<event>
 7    1  0.1246400E-009  0.4778727E+02  0.7816164E-02  0.1312668E+00
        -11   -1    0    0    0    0  0.00000000000E+00  0.00000000000E+00  0.45593999997E+02  0.45594000000E+02  0.51100000000E-03 0. -1.
         11   -1    0    0    0    0 -0.00000000000E+00 -0.00000000000E+00 -0.45593999997E+02  0.45594000000E+02  0.51100000000E-03 0.  1.
    9900012    2    1    2    0    0  0.71866444663E+01 -0.10398422393E+02 -0.41519250300E+02  0.47787271982E+02  0.20000004277E+02 0.  0.
         12    1    1    2    0    0 -0.71866444663E+01  0.10398422393E+02  0.41519250300E+02  0.43400728018E+02  0.00000000000E+00 0. -1.
         11    1    3    3    0    0 -0.71248888219E+00 -0.38773533889E+01 -0.19898351454E+01  0.44159884371E+01  0.51100000000E-03 0. -1.
        -11    1    3    3    0    0 -0.78981614294E+00 -0.67329280421E+01 -0.71801444588E+01  0.98747457825E+01  0.51100000000E-03 0.  1.
        -12    1    3    3    0    0  0.86889494915E+01  0.21185903830E+00 -0.32349270696E+02  0.33496537763E+02  0.00000000000E+00 0.  1.
</event>
<event>
 7    1  0.1246400E-009  0.4778727E+02  0.7816164E-02  0.1312668E+00
        -11   -1    0    0    0    0  0.00000000000E+00  0.00000000000E+00  0.45593999997E+02  0.45594000000E+02  0.51100000000E-03 0. -1.
         11   -1    0    0    0    0 -0.00000000000E+00 -0.00000000000E+00 -0.45593999997E+02  0.45594000000E+02  0.51100000000E-03 0.  1.
    9900012    2    1    2    0    0 -0.19956235932E+02 -0.38423136138E+02  0.30057557510E+01  0.47787270618E+02  0.19999998057E+02 0.  0.
         12    1    1    2    0    0  0.19956235932E+02  0.38423136138E+02 -0.30057557510E+01  0.43400729382E+02  0.00000000000E+00 0. -1.
         11    1    3    3    0    0  0.19420928607E+01 -0.10688353045E+02  0.19169978475E+01  0.11031205578E+02  0.51100000000E-03 0.  1.
        -11    1    3    3    0    0 -0.14842785791E+01 -0.83382774523E+01  0.14591024634E+01  0.85941220629E+01  0.51100000000E-03 0. -1.
        -12    1    3    3    0    0 -0.20414050213E+02 -0.19396505641E+02 -0.37034455984E+00  0.28161942978E+02  0.00000000000E+00 0.  1.
</event>
<event>
 7    1  0.1246400E-009  0.4778727E+02  0.7816164E-02  0.1312668E+00
        -11   -1    0    0    0    0  0.00000000000E+00  0.00000000000E+00  0.45593999997E+02  0.45594000000E+02  0.51100000000E-03 0.  1.
         11   -1    0    0    0    0 -0.00000000000E+00 -0.00000000000E+00 -0.45593999997E+02  0.45594000000E+02  0.51100000000E-03 0. -1.
    9900012    2    1    2    0    0  0.50616045279E+01 -0.12483999685E+02  0.41257159675E+02  0.47787270594E+02  0.19999997945E+02 0.  0.
         12    1    1    2    0    0 -0.50616045279E+01  0.12483999685E+02 -0.41257159675E+02  0.43400729406E+02  0.00000000000E+00 0. -1.
         11    1    3    3    0    0  0.78972770879E+00 -0.13711675627E+01  0.69103139434E+01  0.70891614029E+01  0.51100000000E-03 0. -1.
        -11    1    3    3    0    0  0.24120990696E+00 -0.13858277260E+02  0.32756948569E+02  0.35568633804E+02  0.51100000000E-03 0.  1.
         12    1    3    3    0    0  0.40306669122E+01  0.27454451376E+01  0.15898971625E+01  0.51294753871E+01  0.00000000000E+00 0. -1.
</event>
<event>
 7    1  0.1246400E-009  0.4778727E+02  0.7816164E-02  0.1312668E+00
        -11   -1    0    0    0    0  0.00000000000E+00  0.00000000000E+00  0.45593999997E+02  0.45594000000E+02  0.51100000000E-03 0. -1.
         11   -1    0    0    0    0 -0.00000000000E+00 -0.00000000000E+00 -0.45593999997E+02  0.45594000000E+02  0.51100000000E-03 0.  1.
    9900012    2    1    2    0    0  0.35474647969E+02 -0.24957535912E+02  0.15146761085E+01  0.47787268542E+02  0.19999988592E+02 0.  0.
         12    1    1    2    0    0 -0.35474647969E+02  0.24957535912E+02 -0.15146761085E+01  0.43400731458E+02  0.00000000000E+00 0. -1.
         11    1    3    3    0    0  0.69166936683E+00 -0.30345239358E+00 -0.15393816139E+01  0.17146970236E+01  0.51100000000E-03 0. -1.
        -11    1    3    3    0    0  0.31423343117E+02 -0.24618983276E+02  0.73797575963E+01  0.40595340282E+02  0.51100000000E-03 0.  1.
        -12    1    3    3    0    0  0.33596354854E+01 -0.35100242727E-01 -0.43256998739E+01  0.54772312368E+01  0.00000000000E+00 0.  1.
</event>
<event>
 7    1  0.1246400E-009  0.4778727E+02  0.7816164E-02  0.1312668E+00
        -11   -1    0    0    0    0  0.00000000000E+00  0.00000000000E+00  0.45593999997E+02  0.45594000000E+02  0.51100000000E-03 0.  1.
         11   -1    0    0    0    0 -0.00000000000E+00 -0.00000000000E+00 -0.45593999997E+02  0.45594000000E+02  0.51100000000E-03 0. -1.
    9900012    2    1    2    0    0 -0.87059197922E+01  0.17605250444E+02  0.38702524773E+02  0.47787270669E+02  0.19999998289E+02 0.  0.
         12    1    1    2    0    0  0.87059197922E+01 -0.17605250444E+02 -0.38702524773E+02  0.43400729331E+02  0.00000000000E+00 0. -1.
         11    1    3    3    0    0  0.42013762845E+01  0.68841955797E+01  0.14401510704E+02  0.16505975350E+02  0.51100000000E-03 0. -1.
        -11    1    3    3    0    0 -0.53547324054E+01  0.85850769966E+01  0.70598931133E+01  0.12337698213E+02  0.51100000000E-03 0.  1.
         12    1    3    3    0    0 -0.75525636712E+01  0.21359778678E+01  0.17241120956E+02  0.18943597105E+02  0.00000000000E+00 0. -1.
</event>
<event>
 7    1  0.1246400E-009  0.4778727E+02  0.7816164E-02  0.1312668E+00
        -11   -1    0    0    0    0  0.00000000000E+00  0.00000000000E+00  0.45593999997E+02  0.45594000000E+02  0.51100000000E-03 0.  1.
         11   -1    0    0    0    0 -0.00000000000E+00 -0.00000000000E+00 -0.45593999997E+02  0.45594000000E+02  0.51100000000E-03 0. -1.
    9900012    2    1    2    0    0  0.42200129885E+02  0.10134161594E+02 -0.26655448919E+00  0.47787271379E+02  0.20000001525E+02 0.  0.
         12    1    1    2    0    0 -0.42200129885E+02 -0.10134161594E+02  0.26655448919E+00  0.43400728621E+02  0.00000000000E+00 0. -1.
         11    1    3    3    0    0  0.16712365213E+02 -0.92456913150E+00 -0.79739453653E+01  0.18540274649E+02  0.51100000000E-03 0. -1.
        -11    1    3    3    0    0  0.11022092300E+02  0.65313553312E+01  0.16249566337E+01  0.12914550145E+02  0.51100000000E-03 0.  1.
        -12    1    3    3    0    0  0.14465672372E+02  0.45273753942E+01  0.60824342424E+01  0.16332446585E+02  0.00000000000E+00 0.  1.
</event>
<event>
 7    1  0.1246400E-009  0.4778728E+02  0.7816164E-02  0.1312668E+00
        -11   -1    0    0    0    0  0.00000000000E+00  0.00000000000E+00  0.45593999997E+02  0.45594000000E+02  0.51100000000E-03 0. -1.
         11   -1    0    0    0    0 -0.00000000000E+00 -0.00000000000E+00 -0.45593999997E+02  0.45594000000E+02  0.51100000000E-03 0.  1.
    9900012    2    1    2    0    0  0.25597168734E+02 -0.35044589674E+02  0.53341318857E+00  0.47787276018E+02  0.20000022675E+02 0.  0.
         12    1    1    2    0    0 -0.25597168734E+02  0.35044589674E+02 -0.53341318857E+00  0.43400723982E+02  0.00000000000E+00 0. -1.
         11    1    3    3    0    0 -0.20462355680E+01  0.64065568442E+00 -0.40550741680E+00  0.21821906956E+01  0.51100000000E-03 0. -1.
        -11    1    3    3    0    0  0.78702802792E+01 -0.15131513391E+02  0.98476083729E+00  0.17084313370E+02  0.51100000000E-03 0.  1.
        -12    1    3    3    0    0  0.19773124022E+02 -0.20553731967E+02 -0.45840231919E-01  0.28520771951E+02  0.00000000000E+00 0.  1.
</event>
<event>
 7    1  0.1246400E-009  0.4778727E+02  0.7816164E-02  0.1312668E+00
        -11   -1    0    0    0    0  0.00000000000E+00  0.00000000000E+00  0.45593999997E+02  0.45594000000E+02  0.51100000000E-03 0.  1.
         11   -1    0    0    0    0 -0.00000000000E+00 -0.00000000000E+00 -0.45593999997E+02  0.45594000000E+02  0.51100000000E-03 0. -1.
    9900012    2    1    2    0    0  0.91838317514E+01  0.39537547269E+02  0.15364352599E+02  0.47787265669E+02  0.19999975491E+02 0.  0.
         12    1    1    2    0    0 -0.91838317514E+01 -0.39537547269E+02 -0.15364352599E+02  0.43400734331E+02  0.00000000000E+00 0. -1.
         11    1    3    3    0    0  0.33199628525E+01  0.12568701127E+02  0.29725713819E+01  0.13335313353E+02  0.51100000000E-03 0. -1.
        -11    1    3    3    0    0 -0.30532346006E+01 -0.61843344148E+00  0.71501790730E+00  0.31962403408E+01  0.51100000000E-03 0.  1.
        -12    1    3    3    0    0  0.89171034994E+01  0.27587279584E+02  0.11676763310E+02  0.31255711975E+02  0.00000000000E+00 0.  1.
</event>
<event>
 7    1  0.1246400E-009  0.4778727E+02  0.7816164E-02  0.1312668E+00
        -11   -1    0    0    0    0  0.00000000000E+00  0.00000000000E+00  0.45593999997E+02  0.45594000000E+02  0.51100000000E-03 0.  1.
         11   -1    0    0    0    0 -0.00000000000E+00 -0.00000000000E+00 -0.45593999997E+02  0.45594000000E+02  0.51100000000E-03 0. -1.
    9900012    2    1    2    0    0 -0.11987820756E+02 -0.35410401719E+02  0.22045838447E+02  0.47787269716E+02  0.19999993942E+02 0.  0.
         12    1    1    2    0    0  0.11987820756E+02  0.35410401719E+02 -0.22045838447E+02  0.43400730284E+02  0.00000000000E+00 0. -1.
         11    1    3    3    0    0 -0.96520929857E+00 -0.11623631074E+02  0.14717767818E+01  0.11756128423E+02  0.51100000000E-03 0. -1.
        -11    1    3    3    0    0 -0.12427094943E+02 -0.23419770749E+02  0.21645922793E+02  0.34226661018E+02  0.51100000000E-03 0.  1.
         12    1    3    3    0    0  0.14044834861E+01 -0.36699989610E+00 -0.10718611270E+01  0.18044802748E+01  0.00000000000E+00 0. -1.
</event>
<event>
 7    1  0.1246400E-009  0.4778727E+02  0.7816164E-02  0.1312668E+00
        -11   -1    0    0    0    0  0.00000000000E+00  0.00000000000E+00  0.45593999997E+02  0.45594000000E+02  0.51100000000E-03 0.  1.
         11   -1    0    0    0    0 -0.00000000000E+00 -0.00000000000E+00 -0.45593999997E+02  0.45594000000E+02  0.51100000000E-03 0. -1.
    9900012    2    1    2    0    0 -0.14337531675E+02  0.12606183186E+02  0.38976182554E+02  0.47787268721E+02  0.19999989408E+02 0.  0.
         12    1    1    2    0    0  0.14337531675E+02 -0.12606183186E+02 -0.38976182554E+02  0.43400731279E+02  0.00000000000E+00 0. -1.
         11    1    3    3    0    0 -0.11870619910E+01 -0.10394947925E+00  0.18646361348E+01  0.22128691423E+01  0.51100000000E-03 0.  1.
        -11    1    3    3    0    0 -0.12182877203E+02  0.55994305571E+01  0.35866770159E+02  0.38291008363E+02  0.51100000000E-03 0. -1.
         12    1    3    3    0    0 -0.96759248071E+00  0.71107021079E+01  0.12447762600E+01  0.72833912165E+01  0.00000000000E+00 0. -1.
</event>
<event>
 7    1  0.1246400E-009  0.4778727E+02  0.7816164E-02  0.1312668E+00
        -11   -1    0    0    0    0  0.00000000000E+00  0.00000000000E+00  0.45593999997E+02  0.45594000000E+02  0.51100000000E-03 0.  1.
         11   -1    0    0    0    0 -0.00000000000E+00 -0.00000000000E+00 -0.45593999997E+02  0.45594000000E+02  0.51100000000E-03 0. -1.
    9900012    2    1    2    0    0 -0.24020516456E+02 -0.27803654592E+02  0.23099669223E+02  0.47787272613E+02  0.20000007152E+02 0.  0.
         12    1    1    2    0    0  0.24020516456E+02  0.27803654592E+02 -0.23099669223E+02  0.43400727387E+02  0.00000000000E+00 0. -1.
         11    1    3    3    0    0 -0.35366673167E+01  0.29100579686E+01  0.89855977998E+00  0.46673186123E+01  0.51100000000E-03 0. -1.
        -11    1    3    3    0    0 -0.51424344944E+01 -0.90965369184E+01  0.58712032669E+01  0.11985935278E+02  0.51100000000E-03 0.  1.
         12    1    3    3    0    0 -0.15341414645E+02 -0.21617175643E+02  0.16329906176E+02  0.31134018722E+02  0.00000000000E+00 0. -1.
</event>
<event>
 7    1  0.1246400E-009  0.4778727E+02  0.7816164E-02  0.1312668E+00
        -11   -1    0    0    0    0  0.00000000000E+00  0.00000000000E+00  0.45593999997E+02  0.45594000000E+02  0.51100000000E-03 0.  1.
         11   -1    0    0    0    0 -0.00000000000E+00 -0.00000000000E+00 -0.45593999997E+02  0.45594000000E+02  0.51100000000E-03 0. -1.
    9900012    2    1    2    0    0 -0.33538842230E+02 -0.71400305022E+01 -0.26604305859E+02  0.47787273462E+02  0.20000011025E+02 0.  0.
         12    1    1    2    0    0  0.33538842230E+02  0.71400305022E+01  0.26604305859E+02  0.43400726538E+02  0.00000000000E+00 0. -1.
         11    1    3    3    0    0  0.18433007548E+01 -0.35026847929E+01 -0.40377700920E+01  0.56542148887E+01  0.51100000000E-03 0. -1.
        -11    1    3    3    0    0 -0.13153789592E+02 -0.93784131367E+00 -0.85372150018E+01  0.15709416514E+02  0.51100000000E-03 0.  1.
         12    1    3    3    0    0 -0.22228353393E+02 -0.26995043957E+01 -0.14029320766E+02  0.26423642059E+02  0.00000000000E+00 0. -1.
</event>
<event>
 7    1  0.1246400E-009  0.4778727E+02  0.7816164E-02  0.1312668E+00
        -11   -1    0    0    0    0  0.00000000000E+00  0.00000000000E+00  0.45593999997E+02  0.45594000000E+02  0.51100000000E-03 0.  1.
         11   -1    0    0    0    0 -0.00000000000E+00 -0.00000000000E+00 -0.45593999997E+02  0.45594000000E+02  0.51100000000E-03 0. -1.
    9900012    2    1    2    0    0  0.20944045805E+02  0.22605651757E+02  0.30560670776E+02  0.47787272537E+02  0.20000006806E+02 0.  0.
         12    1    1    2    0    0 -0.20944045805E+02 -0.22605651757E+02 -0.30560670776E+02  0.43400727463E+02  0.00000000000E+00 0. -1.
         11    1    3    3    0    0  0.94681523201E+01  0.13597802332E+02  0.18877092871E+02  0.25117539134E+02  0.51100000000E-03 0. -1.
        -11    1    3    3    0    0  0.14192250244E+02  0.62348503715E+01  0.87176277763E+01  0.17784553985E+02  0.51100000000E-03 0.  1.
         12    1    3    3    0    0 -0.27163567583E+01  0.27729990529E+01  0.29659501289E+01  0.48851794187E+01  0.00000000000E+00 0. -1.
</event>
<event>
 7    1  0.1246400E-009  0.4778727E+02  0.7816164E-02  0.1312668E+00
        -11   -1    0    0    0    0  0.00000000000E+00  0.00000000000E+00  0.45593999997E+02  0.45594000000E+02  0.51100000000E-03 0. -1.
         11   -1    0    0    0    0 -0.00000000000E+00 -0.00000000000E+00 -0.45593999997E+02  0.45594000000E+02  0.51100000000E-03 0.  1.
    9900012    2    1    2    0    0 -0.41902807811E+02  0.81411156531E+01 -0.78421932175E+01  0.47787273497E+02  0.20000011182E+02 0.  0.
         12    1    1    2    0    0  0.41902807811E+02 -0.81411156531E+01  0.78421932175E+01  0.43400726503E+02  0.00000000000E+00 0. -1.
         11    1    3    3    0    0 -0.26087900735E+02  0.41713869971E+01  0.43100173603E+01  0.26768550281E+02  0.51100000000E-03 0. -1.
        -11    1    3    3    0    0 -0.11834942905E+02  0.29590530230E+01 -0.59312074897E+01  0.13564700177E+02  0.51100000000E-03 0.  1.
         12    1    3    3    0    0 -0.39799641710E+01  0.10106756330E+01 -0.62210030880E+01  0.74540230385E+01  0.00000000000E+00 0. -1.
</event>
<event>
 7    1  0.1246400E-009  0.4778727E+02  0.7816164E-02  0.1312668E+00
        -11   -1    0    0    0    0  0.00000000000E+00  0.00000000000E+00  0.45593999997E+02  0.45594000000E+02  0.51100000000E-03 0.  1.
         11   -1    0    0    0    0 -0.00000000000E+00 -0.00000000000E+00 -0.45593999997E+02  0.45594000000E+02  0.51100000000E-03 0. -1.
    9900012    2    1    2    0    0  0.33040799536E+02 -0.25086177424E+02 -0.12751974724E+02  0.47787267390E+02  0.19999983339E+02 0.  0.
         12    1    1    2    0    0 -0.33040799536E+02  0.25086177424E+02  0.12751974724E+02  0.43400732610E+02  0.00000000000E+00 0. -1.
         11    1    3    3    0    0  0.13691143345E+02 -0.16083140525E+02 -0.40200947280E+01  0.21500604111E+02  0.51100000000E-03 0. -1.
        -11    1    3    3    0    0  0.77012158546E+01 -0.54515876893E+00  0.24049224626E+01  0.80863821351E+01  0.51100000000E-03 0.  1.
         12    1    3    3    0    0  0.11648440336E+02 -0.84578781297E+01 -0.11136802459E+02  0.18200281145E+02  0.00000000000E+00 0. -1.
</event>
<event>
 7    1  0.1246400E-009  0.4778726E+02  0.7816164E-02  0.1312668E+00
        -11   -1    0    0    0    0  0.00000000000E+00  0.00000000000E+00  0.45593999997E+02  0.45594000000E+02  0.51100000000E-03 0.  1.
         11   -1    0    0    0    0 -0.00000000000E+00 -0.00000000000E+00 -0.45593999997E+02  0.45594000000E+02  0.51100000000E-03 0. -1.
    9900012    2    1    2    0    0 -0.11867311785E+02 -0.32025535706E+02  0.26779777869E+02  0.47787256585E+02  0.19999934073E+02 0.  0.
         12    1    1    2    0    0  0.11867311785E+02  0.32025535706E+02 -0.26779777869E+02  0.43400743415E+02  0.00000000000E+00 0. -1.
         11    1    3    3    0    0 -0.12598208277E+02 -0.95136749285E+01  0.86285023470E+01  0.17990995399E+02  0.51100000000E-03 0. -1.
        -11    1    3    3    0    0  0.18969667346E+00 -0.90629417698E+01  0.30431670000E+01  0.95621003970E+01  0.51100000000E-03 0.  1.
         12    1    3    3    0    0  0.54119981810E+00 -0.13448919008E+02  0.15108108522E+02  0.20234160789E+02  0.00000000000E+00 0. -1.
</event>
<event>
 7    1  0.1246400E-009  0.4778732E+02  0.7816164E-02  0.1312668E+00
        -11   -1    0    0    0    0  0.00000000000E+00  0.00000000000E+00  0.45593999997E+02  0.45594000000E+02  0.51100000000E-03 0.  1.
         11   -1    0    0    0    0 -0.00000000000E+00 -0.00000000000E+00 -0.45593999997E+02  0.45594000000E+02  0.51100000000E-03 0. -1.
    9900012    2    1    2    0    0 -0.80331365374E+01  0.94022010682E+01  0.41601521625E+02  0.47787317182E+02  0.20000210357E+02 0.  0.
         12    1    1    2    0    0  0.80331365374E+01 -0.94022010682E+01 -0.41601521625E+02  0.43400682818E+02  0.00000000000E+00 0. -1.
         11    1    3    3    0    0  0.46593265055E+01  0.23153786676E+01  0.23804459366E+02  0.24366423369E+02  0.51100000000E-03 0. -1.
        -11    1    3    3    0    0 -0.20918127027E+01  0.32616278096E+01  0.56512790253E+01  0.68520691207E+01  0.51100000000E-03 0.  1.
        -12    1    3    3    0    0 -0.10600650340E+02  0.38251945909E+01  0.12145783234E+02  0.16568824692E+02  0.00000000000E+00 0.  1.
</event>
<event>
 7    1  0.1246400E-009  0.4778727E+02  0.7816164E-02  0.1312668E+00
        -11   -1    0    0    0    0  0.00000000000E+00  0.00000000000E+00  0.45593999997E+02  0.45594000000E+02  0.51100000000E-03 0.  1.
         11   -1    0    0    0    0 -0.00000000000E+00 -0.00000000000E+00 -0.45593999997E+02  0.45594000000E+02  0.51100000000E-03 0. -1.
    9900012    2    1    2    0    0 -0.18873132463E+02 -0.12938441994E+02  0.36878512308E+02  0.47787273275E+02  0.20000010171E+02 0.  0.
         12    1    1    2    0    0  0.18873132463E+02  0.12938441994E+02 -0.36878512308E+02  0.43400726725E+02  0.00000000000E+00 0. -1.
         11    1    3    3    0    0 -0.32230778798E+01 -0.31628420168E+01  0.37557362148E+01  0.58734449362E+01  0.51100000000E-03 0. -1.
        -11    1    3    3    0    0 -0.49853171469E+01  0.52598485423E+01  0.96341577200E+01  0.12055554279E+02  0.51100000000E-03 0.  1.
        -12    1    3    3    0    0 -0.10664737436E+02 -0.15035448519E+02  0.23488618373E+02  0.29858274060E+02  0.00000000000E+00 0.  1.
</event>
<event>
 7    1  0.1246400E-009  0.4778727E+02  0.7816164E-02  0.1312668E+00
        -11   -1    0    0    0    0  0.00000000000E+00  0.00000000000E+00  0.45593999997E+02  0.45594000000E+02  0.51100000000E-03 0.  1.
         11   -1    0    0    0    0 -0.00000000000E+00 -0.00000000000E+00 -0.45593999997E+02  0.45594000000E+02  0.51100000000E-03 0. -1.
    9900012    2    1    2    0    0  0.57517413803E+01  0.41256645717E+02  0.12183189562E+02  0.47787268985E+02  0.19999990610E+02 0.  0.
         12    1    1    2    0    0 -0.57517413803E+01 -0.41256645717E+02 -0.12183189562E+02  0.43400731015E+02  0.00000000000E+00 0. -1.
         11    1    3    3    0    0  0.64799613500E+01  0.36497978413E+02  0.29451061295E+01  0.37185561415E+02  0.51100000000E-03 0. -1.
        -11    1    3    3    0    0  0.40973321069E+00  0.57148577638E+00  0.24193513945E+01  0.25194719145E+01  0.51100000000E-03 0.  1.
         12    1    3    3    0    0 -0.11379531804E+01  0.41871815277E+01  0.68187320383E+01  0.80822356559E+01  0.00000000000E+00 0. -1.
</event>
<event>
 7    1  0.1246400E-009  0.4778727E+02  0.7816164E-02  0.1312668E+00
        -11   -1    0    0    0    0  0.00000000000E+00  0.00000000000E+00  0.45593999997E+02  0.45594000000E+02  0.51100000000E-03 0. -1.
         11   -1    0    0    0    0 -0.00000000000E+00 -0.00000000000E+00 -0.45593999997E+02  0.45594000000E+02  0.51100000000E-03 0.  1.
    9900012    2    1    2    0    0  0.23182231477E+02  0.23497240746E+02 -0.28179550759E+02  0.47787271205E+02  0.20000000734E+02 0.  0.
         12    1    1    2    0    0 -0.23182231477E+02 -0.23497240746E+02  0.28179550759E+02  0.43400728795E+02  0.00000000000E+00 0. -1.
         11    1    3    3    0    0  0.57133495697E+01  0.16406080764E+01 -0.72401098167E+01  0.93676650552E+01  0.51100000000E-03 0.  1.
        -11    1    3    3    0    0  0.16079354254E+02  0.23564299789E+02 -0.15312651716E+02  0.32377448333E+02  0.51100000000E-03 0. -1.
         12    1    3    3    0    0  0.13895276529E+01 -0.17076671189E+01 -0.56267892263E+01  0.60421578169E+01  0.00000000000E+00 0. -1.
</event>
<event>
 7    1  0.1246400E-009  0.4778727E+02  0.7816164E-02  0.1312668E+00
        -11   -1    0    0    0    0  0.00000000000E+00  0.00000000000E+00  0.45593999997E+02  0.45594000000E+02  0.51100000000E-03 0.  1.
         11   -1    0    0    0    0 -0.00000000000E+00 -0.00000000000E+00 -0.45593999997E+02  0.45594000000E+02  0.51100000000E-03 0. -1.
    9900012    2    1    2    0    0 -0.18239015781E+02  0.21387720544E+02  0.33068521949E+02  0.47787269239E+02  0.19999991767E+02 0.  0.
         12    1    1    2    0    0  0.18239015781E+02 -0.21387720544E+02 -0.33068521949E+02  0.43400730761E+02  0.00000000000E+00 0. -1.
         11    1    3    3    0    0 -0.62099671235E+01  0.13792828929E+02  0.97956028897E+01  0.18021089251E+02  0.51100000000E-03 0. -1.
        -11    1    3    3    0    0 -0.12669016590E+02  0.36531949358E+01  0.12080169640E+02  0.17882402339E+02  0.51100000000E-03 0.  1.
         12    1    3    3    0    0  0.63996793289E+00  0.39416966793E+01  0.11192749419E+02  0.11883777649E+02  0.00000000000E+00 0. -1.
</event>
<event>
 7    1  0.1246400E-009  0.4778727E+02  0.7816164E-02  0.1312668E+00
        -11   -1    0    0    0    0  0.00000000000E+00  0.00000000000E+00  0.45593999997E+02  0.45594000000E+02  0.51100000000E-03 0.  1.
         11   -1    0    0    0    0 -0.00000000000E+00 -0.00000000000E+00 -0.45593999997E+02  0.45594000000E+02  0.51100000000E-03 0. -1.
    9900012    2    1    2    0    0 -0.18174349752E+02  0.37755571540E+02  0.11306333143E+02  0.47787270279E+02  0.19999996509E+02 0.  0.
         12    1    1    2    0    0  0.18174349752E+02 -0.37755571540E+02 -0.11306333143E+02  0.43400729721E+02  0.00000000000E+00 0. -1.
         11    1    3    3    0    0 -0.51084172132E+01  0.99201588226E+01  0.32070757251E+01  0.11609944550E+02  0.51100000000E-03 0. -1.
        -11    1    3    3    0    0 -0.99869413262E+01  0.52288931420E+01  0.71359930397E+01  0.13341765905E+02  0.51100000000E-03 0.  1.
         12    1    3    3    0    0 -0.30789912125E+01  0.22606519575E+02  0.96326437790E+00  0.22835559823E+02  0.00000000000E+00 0. -1.
</event>
<event>
 7    1  0.1246400E-009  0.4778729E+02  0.7816164E-02  0.1312668E+00
        -11   -1    0    0    0    0  0.00000000000E+00  0.00000000000E+00  0.45593999997E+02  0.45594000000E+02  0.51100000000E-03 0. -1.
         11   -1    0    0    0    0 -0.00000000000E+00 -0.00000000000E+00 -0.45593999997E+02  0.45594000000E+02  0.51100000000E-03 0.  1.
    9900012    2    1    2    0    0 -0.43159927908E+02 -0.28353157237E+01  0.35781593408E+01  0.47787290138E+02  0.20000087053E+02 0.  0.
         12    1    1    2    0    0  0.43159927908E+02  0.28353157237E+01 -0.35781593408E+01  0.43400709862E+02  0.00000000000E+00 0. -1.
         11    1    3    3    0    0 -0.19668327780E+02 -0.45295795167E+01  0.12431145036E+01  0.20221412962E+02  0.51100000000E-03 0. -1.
        -11    1    3    3    0    0 -0.51900903956E+01 -0.14021071069E+00 -0.55088479293E+01  0.75699473662E+01  0.51100000000E-03 0.  1.
         12    1    3    3    0    0 -0.18301509733E+02  0.18344745037E+01  0.78438927665E+01  0.19995929809E+02  0.00000000000E+00 0. -1.
</event>
<event>
 7    1  0.1246400E-009  0.4778727E+02  0.7816164E-02  0.1312668E+00
        -11   -1    0    0    0    0  0.00000000000E+00  0.00000000000E+00  0.45593999997E+02  0.45594000000E+02  0.51100000000E-03 0.  1.
         11   -1    0    0    0    0 -0.00000000000E+00 -0.00000000000E+00 -0.45593999997E+02  0.45594000000E+02  0.51100000000E-03 0. -1.
    9900012    2    1    2    0    0 -0.33505560896E+02  0.70213707697E+01  0.26677723786E+02  0.47787271840E+02  0.20000003627E+02 0.  0.
         12    1    1    2    0    0  0.33505560896E+02 -0.70213707697E+01 -0.26677723786E+02  0.43400728160E+02  0.00000000000E+00 0. -1.
         11    1    3    3    0    0 -0.17514193475E+02  0.11481366263E+02  0.73486199676E+01  0.22193939714E+02  0.51100000000E-03 0. -1.
        -11    1    3    3    0    0 -0.79413498422E+01 -0.16803666118E+01  0.77782195883E+01  0.11242302677E+02  0.51100000000E-03 0.  1.
         12    1    3    3    0    0 -0.80500175779E+01 -0.27796288812E+01  0.11550884230E+02  0.14351029448E+02  0.00000000000E+00 0. -1.
</event>
<event>
 7    1  0.1246400E-009  0.4778727E+02  0.7816164E-02  0.1312668E+00
        -11   -1    0    0    0    0  0.00000000000E+00  0.00000000000E+00  0.45593999997E+02  0.45594000000E+02  0.51100000000E-03 0.  1.
         11   -1    0    0    0    0 -0.00000000000E+00 -0.00000000000E+00 -0.45593999997E+02  0.45594000000E+02  0.51100000000E-03 0. -1.
    9900012    2    1    2    0    0 -0.23768034053E+02 -0.24612683314E+02  0.26700560318E+02  0.47787267933E+02  0.19999985813E+02 0.  0.
         12    1    1    2    0    0  0.23768034053E+02  0.24612683314E+02 -0.26700560318E+02  0.43400732067E+02  0.00000000000E+00 0. -1.
         11    1    3    3    0    0 -0.10128828954E+02 -0.69705250326E+01  0.50106249258E+01  0.13277340005E+02  0.51100000000E-03 0. -1.
        -11    1    3    3    0    0 -0.93995337757E+01 -0.18883554067E+02  0.21452757483E+02  0.30085887943E+02  0.51100000000E-03 0.  1.
        -12    1    3    3    0    0 -0.42396713237E+01  0.12413957854E+01  0.23717790914E+00  0.44240399851E+01  0.00000000000E+00 0.  1.
</event>
<event>
 7    1  0.1246400E-009  0.4778727E+02  0.7816164E-02  0.1312668E+00
        -11   -1    0    0    0    0  0.00000000000E+00  0.00000000000E+00  0.45593999997E+02  0.45594000000E+02  0.51100000000E-03 0.  1.
         11   -1    0    0    0    0 -0.00000000000E+00 -0.00000000000E+00 -0.45593999997E+02  0.45594000000E+02  0.51100000000E-03 0. -1.
    9900012    2    1    2    0    0 -0.40665872549E+02  0.14705351937E+02  0.36963444233E+01  0.47787268118E+02  0.19999986658E+02 0.  0.
         12    1    1    2    0    0  0.40665872549E+02 -0.14705351937E+02 -0.36963444233E+01  0.43400731882E+02  0.00000000000E+00 0. -1.
         11    1    3    3    0    0 -0.74947545773E+01  0.68709353869E+00 -0.61929538907E+01  0.97465953983E+01  0.51100000000E-03 0. -1.
        -11    1    3    3    0    0 -0.17761176402E+02  0.35865127400E+01  0.45888434046E+01  0.18691707918E+02  0.51100000000E-03 0.  1.
        -12    1    3    3    0    0 -0.15409941570E+02  0.10431745658E+02  0.53004549094E+01  0.19348964802E+02  0.00000000000E+00 0.  1.
</event>
<event>
 7    1  0.1246400E-009  0.4778727E+02  0.7816164E-02  0.1312668E+00
        -11   -1    0    0    0    0  0.00000000000E+00  0.00000000000E+00  0.45593999997E+02  0.45594000000E+02  0.51100000000E-03 0. -1.
         11   -1    0    0    0    0 -0.00000000000E+00 -0.00000000000E+00 -0.45593999997E+02  0.45594000000E+02  0.51100000000E-03 0.  1.
    9900012    2    1    2    0    0  0.17456956673E+02  0.20116760354E+02 -0.34266509632E+02  0.47787273442E+02  0.20000010930E+02 0.  0.
         12    1    1    2    0    0 -0.17456956673E+02 -0.20116760354E+02  0.34266509632E+02  0.43400726558E+02  0.00000000000E+00 0. -1.
         11    1    3    3    0    0 -0.29740354745E+01  0.77603522611E+01 -0.58055602026E+01  0.10137676447E+02  0.51100000000E-03 0. -1.
        -11    1    3    3    0    0  0.80380881330E+01  0.74636182092E+01 -0.97251166706E+01  0.14659275293E+02  0.51100000000E-03 0.  1.
        -12    1    3    3    0    0  0.12392904015E+02  0.48927898843E+01 -0.18735832759E+02  0.22990321701E+02  0.00000000000E+00 0.  1.
</event>
<event>
 7    1  0.1246400E-009  0.4778727E+02  0.7816164E-02  0.1312668E+00
        -11   -1    0    0    0    0  0.00000000000E+00  0.00000000000E+00  0.45593999997E+02  0.45594000000E+02  0.51100000000E-03 0.  1.
         11   -1    0    0    0    0 -0.00000000000E+00 -0.00000000000E+00 -0.45593999997E+02  0.45594000000E+02  0.51100000000E-03 0. -1.
    9900012    2    1    2    0    0  0.32729904237E+02  0.46802117470E+01  0.28115342723E+02  0.47787268327E+02  0.19999987608E+02 0.  0.
         12    1    1    2    0    0 -0.32729904237E+02 -0.46802117470E+01 -0.28115342723E+02  0.43400731673E+02  0.00000000000E+00 0. -1.
         11    1    3    3    0    0 -0.23802949045E+00 -0.11508591430E+01 -0.66619387481E+00  0.13509068603E+01  0.51100000000E-03 0. -1.
        -11    1    3    3    0    0  0.14187417061E+02  0.37751677090E+01  0.38913458938E+01  0.15188063314E+02  0.51100000000E-03 0.  1.
        -12    1    3    3    0    0  0.18780516666E+02  0.20559031810E+01  0.24890190704E+02  0.31248298153E+02  0.00000000000E+00 0.  1.
</event>
<event>
 7    1  0.1246400E-009  0.4778728E+02  0.7816164E-02  0.1312668E+00
        -11   -1    0    0    0    0  0.00000000000E+00  0.00000000000E+00  0.45593999997E+02  0.45594000000E+02  0.51100000000E-03 0. -1.
         11   -1    0    0    0    0 -0.00000000000E+00 -0.00000000000E+00 -0.45593999997E+02  0.45594000000E+02  0.51100000000E-03 0.  1.
    9900012    2    1    2    0    0 -0.40820575742E+02  0.10523856551E+02 -0.10322395739E+02  0.47787276338E+02  0.20000024135E+02 0.  0.
         12    1    1    2    0    0  0.40820575742E+02 -0.10523856551E+02  0.10322395739E+02  0.43400723662E+02  0.00000000000E+00 0. -1.
         11    1    3    3    0    0 -0.53720339841E+01 -0.17639194049E+01 -0.32526540839E+00  0.56635641288E+01  0.51100000000E-03 0. -1.
        -11    1    3    3    0    0 -0.27332634767E+02  0.11449435362E+02 -0.14295392795E+02  0.32901683069E+02  0.51100000000E-03 0.  1.
        -12    1    3    3    0    0 -0.81159069911E+01  0.83834059422E+00  0.42982624646E+01  0.92220291397E+01  0.00000000000E+00 0.  1.
</event>
<event>
 7    1  0.1246400E-009  0.4778724E+02  0.7816164E-02  0.1312668E+00
        -11   -1    0    0    0    0  0.00000000000E+00  0.00000000000E+00  0.45593999997E+02  0.45594000000E+02  0.51100000000E-03 0. -1.
         11   -1    0    0    0    0 -0.00000000000E+00 -0.00000000000E+00 -0.45593999997E+02  0.45594000000E+02  0.51100000000E-03 0.  1.
    9900012    2    1    2    0    0 -0.32228582569E+01  0.23905645623E+01 -0.43214865380E+02  0.47787237287E+02  0.19999846086E+02 0.  0.
         12    1    1    2    0    0  0.32228582569E+01 -0.23905645623E+01  0.43214865380E+02  0.43400762713E+02  0.00000000000E+00 0. -1.
         11    1    3    3    0    0 -0.45827188750E+01 -0.17643870226E+00 -0.11365946646E+02  0.12256312101E+02  0.51100000000E-03 0. -1.
        -11    1    3    3    0    0 -0.36769550950E+01  0.45183624022E+01 -0.28685784084E+02  0.29271313710E+02  0.51100000000E-03 0.  1.
         12    1    3    3    0    0  0.50368157131E+01 -0.19513591377E+01 -0.31631346504E+01  0.62596114759E+01  0.00000000000E+00 0. -1.
</event>
<event>
 7    1  0.1246400E-009  0.4778727E+02  0.7816164E-02  0.1312668E+00
        -11   -1    0    0    0    0  0.00000000000E+00  0.00000000000E+00  0.45593999997E+02  0.45594000000E+02  0.51100000000E-03 0.  1.
         11   -1    0    0    0    0 -0.00000000000E+00 -0.00000000000E+00 -0.45593999997E+02  0.45594000000E+02  0.51100000000E-03 0. -1.
    9900012    2    1    2    0    0 -0.20555131600E+02  0.30235659293E+02  0.23386204670E+02  0.47787273084E+02  0.20000009299E+02 0.  0.
         12    1    1    2    0    0  0.20555131600E+02 -0.30235659293E+02 -0.23386204670E+02  0.43400726916E+02  0.00000000000E+00 0. -1.
         11    1    3    3    0    0 -0.46379273274E+01  0.14012299211E+02  0.30776839512E+01  0.15077368399E+02  0.51100000000E-03 0. -1.
        -11    1    3    3    0    0 -0.12908220483E+02  0.17795662365E+02  0.19048173136E+02  0.29088496955E+02  0.51100000000E-03 0.  1.
         12    1    3    3    0    0 -0.30089837900E+01 -0.15723022826E+01  0.12603475825E+01  0.36214077298E+01  0.00000000000E+00 0. -1.
</event>
<event>
 7    1  0.1246400E-009  0.4778727E+02  0.7816164E-02  0.1312668E+00
        -11   -1    0    0    0    0  0.00000000000E+00  0.00000000000E+00  0.45593999997E+02  0.45594000000E+02  0.51100000000E-03 0.  1.
         11   -1    0    0    0    0 -0.00000000000E+00 -0.00000000000E+00 -0.45593999997E+02  0.45594000000E+02  0.51100000000E-03 0. -1.
    9900012    2    1    2    0    0  0.26115696197E+02 -0.25735218313E+02 -0.23222670029E+02  0.47787268983E+02  0.19999990603E+02 0.  0.
         12    1    1    2    0    0 -0.26115696197E+02  0.25735218313E+02  0.23222670029E+02  0.43400731017E+02  0.00000000000E+00 0. -1.
         11    1    3    3    0    0 -0.16505050286E+01 -0.73742374192E+00 -0.36867757256E+01  0.41061266586E+01  0.51100000000E-03 0. -1.
        -11    1    3    3    0    0  0.21969234722E+02 -0.23764749626E+02 -0.13051384433E+02  0.34896263911E+02  0.51100000000E-03 0.  1.
        -12    1    3    3    0    0  0.57969665039E+01 -0.12330449450E+01 -0.64845098710E+01  0.87848784141E+01  0.00000000000E+00 0.  1.
</event>
<event>
 7    1  0.1246400E-009  0.4778728E+02  0.7816164E-02  0.1312668E+00
        -11   -1    0    0    0    0  0.00000000000E+00  0.00000000000E+00  0.45593999997E+02  0.45594000000E+02  0.51100000000E-03 0.  1.
         11   -1    0    0    0    0 -0.00000000000E+00 -0.00000000000E+00 -0.45593999997E+02  0.45594000000E+02  0.51100000000E-03 0. -1.
    9900012    2    1    2    0    0 -0.13871669013E+02 -0.33790471389E+02  0.23439358497E+02  0.47787277832E+02  0.20000030949E+02 0.  0.
         12    1    1    2    0    0  0.13871669013E+02  0.33790471389E+02 -0.23439358497E+02  0.43400722168E+02  0.00000000000E+00 0. -1.
         11    1    3    3    0    0  0.17027721519E+01 -0.10502267760E+02  0.12124266038E+02  0.16130557595E+02  0.51100000000E-03 0. -1.
        -11    1    3    3    0    0 -0.93257326325E+01 -0.19266864790E+02  0.11344978298E+02  0.24225810633E+02  0.51100000000E-03 0.  1.
         12    1    3    3    0    0 -0.62487085325E+01 -0.40213388389E+01 -0.29885839492E-01  0.74309096041E+01  0.00000000000E+00 0. -1.
</event>
<event>
 7    1  0.1246400E-009  0.4778730E+02  0.7816164E-02  0.1312668E+00
        -11   -1    0    0    0    0  0.00000000000E+00  0.00000000000E+00  0.45593999997E+02  0.45594000000E+02  0.51100000000E-03 0.  1.
         11   -1    0    0    0    0 -0.00000000000E+00 -0.00000000000E+00 -0.45593999997E+02  0.45594000000E+02  0.51100000000E-03 0. -1.
    9900012    2    1    2    0    0  0.17283401877E+02  0.35971257303E+02  0.17057931079E+02  0.47787304785E+02  0.20000153838E+02 0.  0.
         12    1    1    2    0    0 -0.17283401877E+02 -0.35971257303E+02 -0.17057931079E+02  0.43400695215E+02  0.00000000000E+00 0. -1.
         11    1    3    3    0    0  0.55951982228E+01  0.16477429286E+01  0.29293729533E+01  0.65270610593E+01  0.51100000000E-03 0. -1.
        -11    1    3    3    0    0  0.85101142127E+01  0.20995012926E+02  0.16279427102E+01  0.22712613443E+02  0.51100000000E-03 0.  1.
         12    1    3    3    0    0  0.31780894412E+01  0.13328501449E+02  0.12500615415E+02  0.18547630284E+02  0.00000000000E+00 0. -1.
</event>
<event>
 7    1  0.1246400E-009  0.4778727E+02  0.7816164E-02  0.1312668E+00
        -11   -1    0    0    0    0  0.00000000000E+00  0.00000000000E+00  0.45593999997E+02  0.45594000000E+02  0.51100000000E-03 0. -1.
         11   -1    0    0    0    0 -0.00000000000E+00 -0.00000000000E+00 -0.45593999997E+02  0.45594000000E+02  0.51100000000E-03 0.  1.
    9900012    2    1    2    0    0  0.28202881767E+02  0.32984423049E+02  0.49835942046E+00  0.47787273440E+02  0.20000010922E+02 0.  0.
         12    1    1    2    0    0 -0.28202881767E+02 -0.32984423049E+02 -0.49835942046E+00  0.43400726560E+02  0.00000000000E+00 0. -1.
         11    1    3    3    0    0  0.83016459489E+01  0.98571827296E+01  0.87618093493E+01  0.15583667096E+02  0.51100000000E-03 0. -1.
        -11    1    3    3    0    0  0.15425016123E+02  0.15792416902E+02 -0.34175136323E+01  0.22338553079E+02  0.51100000000E-03 0.  1.
        -12    1    3    3    0    0  0.44762196953E+01  0.73348234177E+01 -0.48459362965E+01  0.98650532649E+01  0.00000000000E+00 0.  1.
</event>
<event>
 7    1  0.1246400E-009  0.4778727E+02  0.7816164E-02  0.1312668E+00
        -11   -1    0    0    0    0  0.00000000000E+00  0.00000000000E+00  0.45593999997E+02  0.45594000000E+02  0.51100000000E-03 0.  1.
         11   -1    0    0    0    0 -0.00000000000E+00 -0.00000000000E+00 -0.45593999997E+02  0.45594000000E+02  0.51100000000E-03 0. -1.
    9900012    2    1    2    0    0 -0.22779059976E+02  0.30030289246E+02  0.21515555078E+02  0.47787274708E+02  0.20000016702E+02 0.  0.
         12    1    1    2    0    0  0.22779059976E+02 -0.30030289246E+02 -0.21515555078E+02  0.43400725292E+02  0.00000000000E+00 0. -1.
         11    1    3    3    0    0 -0.10774661829E+02  0.54897674618E+01  0.51331387582E+01  0.13136970659E+02  0.51100000000E-03 0.  1.
        -11    1    3    3    0    0  0.24137605639E+01  0.35360251320E+01  0.54406093053E+01  0.69231455039E+01  0.51100000000E-03 0. -1.
         12    1    3    3    0    0 -0.14418158710E+02  0.21004496653E+02  0.10941807014E+02  0.27727158545E+02  0.00000000000E+00 0. -1.
</event>
<event>
 7    1  0.1246400E-009  0.4778727E+02  0.7816164E-02  0.1312668E+00
        -11   -1    0    0    0    0  0.00000000000E+00  0.00000000000E+00  0.45593999997E+02  0.45594000000E+02  0.51100000000E-03 0.  1.
         11   -1    0    0    0    0 -0.00000000000E+00 -0.00000000000E+00 -0.45593999997E+02  0.45594000000E+02  0.51100000000E-03 0. -1.
    9900012    2    1    2    0    0  0.15510410632E+02 -0.39136095295E+02  0.10555399484E+02  0.47787271306E+02  0.20000001193E+02 0.  0.
         12    1    1    2    0    0 -0.15510410632E+02  0.39136095295E+02 -0.10555399484E+02  0.43400728694E+02  0.00000000000E+00 0. -1.
         11    1    3    3    0    0  0.45671306143E+01 -0.86950161514E+01 -0.38833450933E+01  0.10561361527E+02  0.51100000000E-03 0. -1.
        -11    1    3    3    0    0  0.57261039151E+00 -0.86662449339E+01 -0.75960568266E+00  0.87182959899E+01  0.51100000000E-03 0.  1.
        -12    1    3    3    0    0  0.10370669626E+02 -0.21774834209E+02  0.15198350260E+02  0.28507613790E+02  0.00000000000E+00 0.  1.
</event>
<event>
 7    1  0.1246400E-009  0.4778727E+02  0.7816164E-02  0.1312668E+00
        -11   -1    0    0    0    0  0.00000000000E+00  0.00000000000E+00  0.45593999997E+02  0.45594000000E+02  0.51100000000E-03 0.  1.
         11   -1    0    0    0    0 -0.00000000000E+00 -0.00000000000E+00 -0.45593999997E+02  0.45594000000E+02  0.51100000000E-03 0. -1.
    9900012    2    1    2    0    0 -0.26425279190E+02 -0.51447575496E+01  0.34042021569E+02  0.47787272552E+02  0.20000006874E+02 0.  0.
         12    1    1    2    0    0  0.26425279190E+02  0.51447575496E+01 -0.34042021569E+02  0.43400727448E+02  0.00000000000E+00 0. -1.
         11    1    3    3    0    0  0.34544630519E+00  0.18499234417E+01  0.34863424196E+01  0.39618346278E+01  0.51100000000E-03 0. -1.
        -11    1    3    3    0    0 -0.25996055413E+02 -0.16856611304E+01  0.25206722689E+02  0.36249347849E+02  0.51100000000E-03 0.  1.
        -12    1    3    3    0    0 -0.77467008270E+00 -0.53090198610E+01  0.53489564603E+01  0.75760900757E+01  0.00000000000E+00 0.  1.
</event>
<event>
 7    1  0.1246400E-009  0.4778727E+02  0.7816164E-02  0.1312668E+00
        -11   -1    0    0    0    0  0.00000000000E+00  0.00000000000E+00  0.45593999997E+02  0.45594000000E+02  0.51100000000E-03 0.  1.
         11   -1    0    0    0    0 -0.00000000000E+00 -0.00000000000E+00 -0.45593999997E+02  0.45594000000E+02  0.51100000000E-03 0. -1.
    9900012    2    1    2    0    0  0.18754153251E+02  0.38655715057E+02  0.61351932055E+01  0.47787272283E+02  0.20000005647E+02 0.  0.
         12    1    1    2    0    0 -0.18754153251E+02 -0.38655715057E+02 -0.61351932055E+01  0.43400727717E+02  0.00000000000E+00 0. -1.
         11    1    3    3    0    0  0.51989272484E+01  0.36874405616E+01  0.49377630929E+01  0.80627270233E+01  0.51100000000E-03 0. -1.
        -11    1    3    3    0    0  0.14896291565E+02  0.24392817114E+02 -0.18379962435E+01  0.28640657458E+02  0.51100000000E-03 0.  1.
        -12    1    3    3    0    0 -0.13410655619E+01  0.10575457380E+02  0.30354263561E+01  0.11083887802E+02  0.00000000000E+00 0.  1.
</event>
<event>
 7    1  0.1246400E-009  0.4778727E+02  0.7816164E-02  0.1312668E+00
        -11   -1    0    0    0    0  0.00000000000E+00  0.00000000000E+00  0.45593999997E+02  0.45594000000E+02  0.51100000000E-03 0. -1.
         11   -1    0    0    0    0 -0.00000000000E+00 -0.00000000000E+00 -0.45593999997E+02  0.45594000000E+02  0.51100000000E-03 0.  1.
    9900012    2    1    2    0    0  0.10003155719E+02 -0.37635550083E+02 -0.19160517043E+02  0.47787272267E+02  0.20000005574E+02 0.  0.
         12    1    1    2    0    0 -0.10003155719E+02  0.37635550083E+02  0.19160517043E+02  0.43400727733E+02  0.00000000000E+00 0. -1.
         11    1    3    3    0    0  0.18607993593E+01 -0.55593259957E+01  0.36671594304E+01  0.69149648105E+01  0.51100000000E-03 0. -1.
        -11    1    3    3    0    0  0.34967655713E+01 -0.22404465314E+02 -0.12110054028E+02  0.25706824858E+02  0.51100000000E-03 0.  1.
        -12    1    3    3    0    0  0.46455907887E+01 -0.96717587730E+01 -0.10717622446E+02  0.15165482598E+02  0.00000000000E+00 0.  1.
</event>
<event>
 7    1  0.1246400E-009  0.4778727E+02  0.7816164E-02  0.1312668E+00
        -11   -1    0    0    0    0  0.00000000000E+00  0.00000000000E+00  0.45593999997E+02  0.45594000000E+02  0.51100000000E-03 0. -1.
         11   -1    0    0    0    0 -0.00000000000E+00 -0.00000000000E+00 -0.45593999997E+02  0.45594000000E+02  0.51100000000E-03 0.  1.
    9900012    2    1    2    0    0 -0.32119882777E+02  0.67844521949E+01 -0.28388514851E+02  0.47787269169E+02  0.19999991449E+02 0.  0.
         12    1    1    2    0    0  0.32119882777E+02 -0.67844521949E+01  0.28388514851E+02  0.43400730831E+02  0.00000000000E+00 0. -1.
         11    1    3    3    0    0 -0.49384819606E+01  0.17730335561E+01 -0.10002615823E+02  0.11295334241E+02  0.51100000000E-03 0. -1.
        -11    1    3    3    0    0 -0.10184443651E+02  0.58834362847E+01 -0.15130160835E+02  0.19164015293E+02  0.51100000000E-03 0.  1.
         12    1    3    3    0    0 -0.16996957166E+02 -0.87201764587E+00 -0.32557381930E+01  0.17327919634E+02  0.00000000000E+00 0. -1.
</event>
<event>
 7    1  0.1246400E-009  0.4778727E+02  0.7816164E-02  0.1312668E+00
        -11   -1    0    0    0    0  0.00000000000E+00  0.00000000000E+00  0.45593999997E+02  0.45594000000E+02  0.51100000000E-03 0.  1.
         11   -1    0    0    0    0 -0.00000000000E+00 -0.00000000000E+00 -0.45593999997E+02  0.45594000000E+02  0.51100000000E-03 0. -1.
    9900012    2    1    2    0    0  0.27694822169E+02  0.92896900035E+01  0.32098626143E+02  0.47787270564E+02  0.19999997808E+02 0.  0.
         12    1    1    2    0    0 -0.27694822169E+02 -0.92896900035E+01 -0.32098626143E+02  0.43400729436E+02  0.00000000000E+00 0. -1.
         11    1    3    3    0    0  0.13852451744E+02  0.13583375612E+02  0.13821053019E+02  0.23820579740E+02  0.51100000000E-03 0. -1.
        -11    1    3    3    0    0  0.52826613475E+01 -0.11424878639E+01  0.11149707123E+02  0.12390631889E+02  0.51100000000E-03 0.  1.
        -12    1    3    3    0    0  0.85597090774E+01 -0.31511977449E+01  0.71278660015E+01  0.11576058934E+02  0.00000000000E+00 0.  1.
</event>
<event>
 7    1  0.1246400E-009  0.4778727E+02  0.7816164E-02  0.1312668E+00
        -11   -1    0    0    0    0  0.00000000000E+00  0.00000000000E+00  0.45593999997E+02  0.45594000000E+02  0.51100000000E-03 0.  1.
         11   -1    0    0    0    0 -0.00000000000E+00 -0.00000000000E+00 -0.45593999997E+02  0.45594000000E+02  0.51100000000E-03 0. -1.
    9900012    2    1    2    0    0  0.13673216888E+02 -0.31653283159E+02  0.26357849662E+02  0.47787269204E+02  0.19999991610E+02 0.  0.
         12    1    1    2    0    0 -0.13673216888E+02  0.31653283159E+02 -0.26357849662E+02  0.43400730796E+02  0.00000000000E+00 0. -1.
         11    1    3    3    0    0 -0.36146508570E+01 -0.38442107555E+01  0.86387177137E+01  0.10122801053E+02  0.51100000000E-03 0. -1.
        -11    1    3    3    0    0  0.54314669262E+01 -0.13234319864E+02  0.93954728629E+01  0.17114992428E+02  0.51100000000E-03 0.  1.
        -12    1    3    3    0    0  0.11856400819E+02 -0.14574752539E+02  0.83236590852E+01  0.20549475724E+02  0.00000000000E+00 0.  1.
</event>
<event>
 7    1  0.1246400E-009  0.4778727E+02  0.7816164E-02  0.1312668E+00
        -11   -1    0    0    0    0  0.00000000000E+00  0.00000000000E+00  0.45593999997E+02  0.45594000000E+02  0.51100000000E-03 0.  1.
         11   -1    0    0    0    0 -0.00000000000E+00 -0.00000000000E+00 -0.45593999997E+02  0.45594000000E+02  0.51100000000E-03 0. -1.
    9900012    2    1    2    0    0  0.29877288449E+02  0.25519391175E+02  0.18431806493E+02  0.47787272107E+02  0.20000004846E+02 0.  0.
         12    1    1    2    0    0 -0.29877288449E+02 -0.25519391175E+02 -0.18431806493E+02  0.43400727893E+02  0.00000000000E+00 0. -1.
         11    1    3    3    0    0  0.38269149074E+01  0.29297690826E+01 -0.31941184521E+01  0.57819734982E+01  0.51100000000E-03 0. -1.
        -11    1    3    3    0    0  0.23725256625E+02  0.23609328175E+02  0.20181529776E+02  0.39084297655E+02  0.51100000000E-03 0.  1.
        -12    1    3    3    0    0  0.23251169164E+01 -0.10197060828E+01  0.14443951697E+01  0.29210009545E+01  0.00000000000E+00 0.  1.
</event>
<event>
 7    1  0.1246400E-009  0.4778727E+02  0.7816164E-02  0.1312668E+00
        -11   -1    0    0    0    0  0.00000000000E+00  0.00000000000E+00  0.45593999997E+02  0.45594000000E+02  0.51100000000E-03 0.  1.
         11   -1    0    0    0    0 -0.00000000000E+00 -0.00000000000E+00 -0.45593999997E+02  0.45594000000E+02  0.51100000000E-03 0. -1.
    9900012    2    1    2    0    0  0.37566429473E+02  0.84860125714E+01  0.20009349771E+02  0.47787272921E+02  0.20000008557E+02 0.  0.
         12    1    1    2    0    0 -0.37566429473E+02 -0.84860125714E+01 -0.20009349771E+02  0.43400727079E+02  0.00000000000E+00 0. -1.
         11    1    3    3    0    0  0.64210174728E+01  0.86611625613E+01  0.28014442441E+01  0.11139716891E+02  0.51100000000E-03 0. -1.
        -11    1    3    3    0    0  0.53213598779E+01  0.25129613572E+01  0.58843897563E+01  0.83221324670E+01  0.51100000000E-03 0.  1.
        -12    1    3    3    0    0  0.25824052122E+02 -0.26881113471E+01  0.11323515771E+02  0.28325423563E+02  0.00000000000E+00 0.  1.
</event>
<event>
 7    1  0.1246400E-009  0.4778726E+02  0.7816164E-02  0.1312668E+00
        -11   -1    0    0    0    0  0.00000000000E+00  0.00000000000E+00  0.45593999997E+02  0.45594000000E+02  0.51100000000E-03 0. -1.
         11   -1    0    0    0    0 -0.00000000000E+00 -0.00000000000E+00 -0.45593999997E+02  0.45594000000E+02  0.51100000000E-03 0.  1.
    9900012    2    1    2    0    0  0.28529702636E+02  0.10204746940E+02 -0.31073194283E+02  0.47787260426E+02  0.19999951588E+02 0.  0.
         12    1    1    2    0    0 -0.28529702636E+02 -0.10204746940E+02  0.31073194283E+02  0.43400739574E+02  0.00000000000E+00 0. -1.
         11    1    3    3    0    0  0.10166020037E+02  0.14079536618E+01 -0.19136730281E+02  0.21715081004E+02  0.51100000000E-03 0.  1.
        -11    1    3    3    0    0  0.11673879444E+01  0.20331238199E+00  0.20023028487E+01  0.23266601592E+01  0.51100000000E-03 0. -1.
         12    1    3    3    0    0  0.17196294655E+02  0.85934808958E+01 -0.13938766851E+02  0.23745519263E+02  0.00000000000E+00 0. -1.
</event>
<event>
 7    1  0.1246400E-009  0.4778727E+02  0.7816164E-02  0.1312668E+00
        -11   -1    0    0    0    0  0.00000000000E+00  0.00000000000E+00  0.45593999997E+02  0.45594000000E+02  0.51100000000E-03 0.  1.
         11   -1    0    0    0    0 -0.00000000000E+00 -0.00000000000E+00 -0.45593999997E+02  0.45594000000E+02  0.51100000000E-03 0. -1.
    9900012    2    1    2    0    0  0.10942547250E+02 -0.40883986101E+02 -0.96116328564E+01  0.47787272518E+02  0.20000006718E+02 0.  0.
         12    1    1    2    0    0 -0.10942547250E+02  0.40883986101E+02  0.96116328564E+01  0.43400727482E+02  0.00000000000E+00 0. -1.
         11    1    3    3    0    0  0.79569233337E+01 -0.11334428536E+02  0.25121323739E+00  0.13850812522E+02  0.51100000000E-03 0. -1.
        -11    1    3    3    0    0  0.65764626543E+00 -0.29815452571E+02 -0.10303190015E+02  0.31552328525E+02  0.51100000000E-03 0.  1.
         12    1    3    3    0    0  0.23279776514E+01  0.26589500630E+00  0.44034392094E+00  0.23841314705E+01  0.00000000000E+00 0. -1.
</event>
<event>
 7    1  0.1246400E-009  0.4778727E+02  0.7816164E-02  0.1312668E+00
        -11   -1    0    0    0    0  0.00000000000E+00  0.00000000000E+00  0.45593999997E+02  0.45594000000E+02  0.51100000000E-03 0. -1.
         11   -1    0    0    0    0 -0.00000000000E+00 -0.00000000000E+00 -0.45593999997E+02  0.45594000000E+02  0.51100000000E-03 0.  1.
    9900012    2    1    2    0    0  0.32233170197E+02  0.28691167676E+02  0.46328362906E+01  0.47787268028E+02  0.19999986248E+02 0.  0.
         12    1    1    2    0    0 -0.32233170197E+02 -0.28691167676E+02 -0.46328362906E+01  0.43400731972E+02  0.00000000000E+00 0. -1.
         11    1    3    3    0    0  0.29365224881E+02  0.26096390470E+02  0.61915553070E+01  0.39770257545E+02  0.51100000000E-03 0. -1.
        -11    1    3    3    0    0  0.29839472974E+01  0.42616125224E+01 -0.28255211740E+01  0.59202071695E+01  0.51100000000E-03 0.  1.
         12    1    3    3    0    0 -0.11600198046E+00 -0.16668353160E+01  0.12668021575E+01  0.20968033137E+01  0.00000000000E+00 0. -1.
</event>
<event>
 7    1  0.1246400E-009  0.4778727E+02  0.7816164E-02  0.1312668E+00
        -11   -1    0    0    0    0  0.00000000000E+00  0.00000000000E+00  0.45593999997E+02  0.45594000000E+02  0.51100000000E-03 0.  1.
         11   -1    0    0    0    0 -0.00000000000E+00 -0.00000000000E+00 -0.45593999997E+02  0.45594000000E+02  0.51100000000E-03 0. -1.
    9900012    2    1    2    0    0 -0.41992450613E+02 -0.48664905905E+01 -0.98272390072E+01  0.47787271139E+02  0.20000000431E+02 0.  0.
         12    1    1    2    0    0  0.41992450613E+02  0.48664905905E+01  0.98272390072E+01  0.43400728861E+02  0.00000000000E+00 0. -1.
         11    1    3    3    0    0  0.99261523960E+00 -0.44483684137E+00 -0.38309347561E-01  0.10884083317E+01  0.51100000000E-03 0. -1.
        -11    1    3    3    0    0 -0.39756576210E+02 -0.24027676584E+01 -0.43590803562E+01  0.40066946804E+02  0.51100000000E-03 0.  1.
        -12    1    3    3    0    0 -0.32284896426E+01 -0.20188860907E+01 -0.54298493035E+01  0.66319160035E+01  0.00000000000E+00 0.  1.
</event>
<event>
 7    1  0.1246400E-009  0.4778727E+02  0.7816164E-02  0.1312668E+00
        -11   -1    0    0    0    0  0.00000000000E+00  0.00000000000E+00  0.45593999997E+02  0.45594000000E+02  0.51100000000E-03 0.  1.
         11   -1    0    0    0    0 -0.00000000000E+00 -0.00000000000E+00 -0.45593999997E+02  0.45594000000E+02  0.51100000000E-03 0. -1.
    9900012    2    1    2    0    0  0.26488008519E+02 -0.32432531090E+02  0.11407862074E+02  0.47787274369E+02  0.20000015157E+02 0.  0.
         12    1    1    2    0    0 -0.26488008519E+02  0.32432531090E+02 -0.11407862074E+02  0.43400725631E+02  0.00000000000E+00 0. -1.
         11    1    3    3    0    0  0.17617714986E+02 -0.24619276551E+02  0.13046883328E+02  0.32965342772E+02  0.51100000000E-03 0.  1.
        -11    1    3    3    0    0 -0.75687109911E+00 -0.43145825926E+01 -0.13151075122E+01  0.45736183530E+01  0.51100000000E-03 0. -1.
        -12    1    3    3    0    0  0.96271646316E+01 -0.34986719468E+01 -0.32391374194E+00  0.10248313244E+02  0.00000000000E+00 0.  1.
</event>
<event>
 7    1  0.1246400E-009  0.4778727E+02  0.7816164E-02  0.1312668E+00
        -11   -1    0    0    0    0  0.00000000000E+00  0.00000000000E+00  0.45593999997E+02  0.45594000000E+02  0.51100000000E-03 0. -1.
         11   -1    0    0    0    0 -0.00000000000E+00 -0.00000000000E+00 -0.45593999997E+02  0.45594000000E+02  0.51100000000E-03 0.  1.
    9900012    2    1    2    0    0 -0.27030123326E+01 -0.30858149193E+02 -0.30398871543E+02  0.47787273757E+02  0.20000012370E+02 0.  0.
         12    1    1    2    0    0  0.27030123326E+01  0.30858149193E+02  0.30398871543E+02  0.43400726243E+02  0.00000000000E+00 0. -1.
         11    1    3    3    0    0 -0.99955875048E+00  0.64736604755E+00 -0.44856199439E+01  0.46410114239E+01  0.51100000000E-03 0. -1.
        -11    1    3    3    0    0  0.42685978776E+01 -0.12269149334E+02 -0.16255479817E+02  0.20808497725E+02  0.51100000000E-03 0.  1.
        -12    1    3    3    0    0 -0.59720514597E+01 -0.19236365906E+02 -0.96577717828E+01  0.22337764609E+02  0.00000000000E+00 0.  1.
</event>
<event>
 7    1  0.1246400E-009  0.4778727E+02  0.7816164E-02  0.1312668E+00
        -11   -1    0    0    0    0  0.00000000000E+00  0.00000000000E+00  0.45593999997E+02  0.45594000000E+02  0.51100000000E-03 0.  1.
         11   -1    0    0    0    0 -0.00000000000E+00 -0.00000000000E+00 -0.45593999997E+02  0.45594000000E+02  0.51100000000E-03 0. -1.
    9900012    2    1    2    0    0 -0.41607260609E+02 -0.11646291988E+02  0.41015868065E+01  0.47787271126E+02  0.20000000373E+02 0.  0.
         12    1    1    2    0    0  0.41607260609E+02  0.11646291988E+02 -0.41015868065E+01  0.43400728874E+02  0.00000000000E+00 0. -1.
         11    1    3    3    0    0 -0.20188571057E+02 -0.70732487468E+01  0.33132611510E+01  0.21646869263E+02  0.51100000000E-03 0.  1.
        -11    1    3    3    0    0 -0.86285505133E+01 -0.90807876008E+01  0.11080447665E+01  0.12575386709E+02  0.51100000000E-03 0. -1.
         12    1    3    3    0    0 -0.12790139038E+02  0.45077443599E+01 -0.31971911101E+00  0.13565015154E+02  0.00000000000E+00 0. -1.
</event>
<event>
 7    1  0.1246400E-009  0.4778726E+02  0.7816164E-02  0.1312668E+00
        -11   -1    0    0    0    0  0.00000000000E+00  0.00000000000E+00  0.45593999997E+02  0.45594000000E+02  0.51100000000E-03 0. -1.
         11   -1    0    0    0    0 -0.00000000000E+00 -0.00000000000E+00 -0.45593999997E+02  0.45594000000E+02  0.51100000000E-03 0.  1.
    9900012    2    1    2    0    0  0.30215758883E+02 -0.28599847271E+02 -0.12356402912E+02  0.47787262199E+02  0.19999959668E+02 0.  0.
         12    1    1    2    0    0 -0.30215758883E+02  0.28599847271E+02  0.12356402912E+02  0.43400737801E+02  0.00000000000E+00 0. -1.
         11    1    3    3    0    0  0.64242949788E+01 -0.84955724519E+01 -0.56089653179E+01  0.12037724430E+02  0.51100000000E-03 0. -1.
        -11    1    3    3    0    0  0.15231669364E+02 -0.13040407235E+02 -0.12109178173E+02  0.23424093766E+02  0.51100000000E-03 0.  1.
         12    1    3    3    0    0  0.85597945393E+01 -0.70638675846E+01  0.53617405794E+01  0.12325444002E+02  0.00000000000E+00 0. -1.
</event>
<event>
 7    1  0.1246400E-009  0.4778727E+02  0.7816164E-02  0.1312668E+00
        -11   -1    0    0    0    0  0.00000000000E+00  0.00000000000E+00  0.45593999997E+02  0.45594000000E+02  0.51100000000E-03 0. -1.
         11   -1    0    0    0    0 -0.00000000000E+00 -0.00000000000E+00 -0.45593999997E+02  0.45594000000E+02  0.51100000000E-03 0.  1.
    9900012    2    1    2    0    0  0.42037504655E+02 -0.23870829882E+00  0.10789555501E+02  0.47787270891E+02  0.19999999301E+02 0.  0.
         12    1    1    2    0    0 -0.42037504655E+02  0.23870829882E+00 -0.10789555501E+02  0.43400729109E+02  0.00000000000E+00 0. -1.
         11    1    3    3    0    0  0.90826023394E+01  0.21214709237E+01 -0.21477937974E+01  0.95711714327E+01  0.51100000000E-03 0. -1.
        -11    1    3    3    0    0  0.32841046974E+02  0.72535612488E+00  0.12201991441E+02  0.35042104720E+02  0.51100000000E-03 0.  1.
        -12    1    3    3    0    0  0.11385534162E+00 -0.30855353475E+01  0.73535785757E+00  0.31739947382E+01  0.00000000000E+00 0.  1.
</event>
<event>
 7    1  0.1246400E-009  0.4778728E+02  0.7816164E-02  0.1312668E+00
        -11   -1    0    0    0    0  0.00000000000E+00  0.00000000000E+00  0.45593999997E+02  0.45594000000E+02  0.51100000000E-03 0.  1.
         11   -1    0    0    0    0 -0.00000000000E+00 -0.00000000000E+00 -0.45593999997E+02  0.45594000000E+02  0.51100000000E-03 0. -1.
    9900012    2    1    2    0    0 -0.27365929391E+02 -0.21111587271E+02  0.26249372682E+02  0.47787276794E+02  0.20000026217E+02 0.  0.
         12    1    1    2    0    0  0.27365929391E+02  0.21111587271E+02 -0.26249372682E+02  0.43400723206E+02  0.00000000000E+00 0. -1.
         11    1    3    3    0    0 -0.47159172039E+01 -0.15786670589E+02  0.96357506765E+01  0.19086815730E+02  0.51100000000E-03 0. -1.
        -11    1    3    3    0    0 -0.10288045069E+02 -0.36854407276E+01  0.74747210979E+01  0.13240007570E+02  0.51100000000E-03 0.  1.
         12    1    3    3    0    0 -0.12361967119E+02 -0.16394759541E+01  0.91389009080E+01  0.15460453495E+02  0.00000000000E+00 0. -1.
</event>
<event>
 7    1  0.1246400E-009  0.4778727E+02  0.7816164E-02  0.1312668E+00
        -11   -1    0    0    0    0  0.00000000000E+00  0.00000000000E+00  0.45593999997E+02  0.45594000000E+02  0.51100000000E-03 0. -1.
         11   -1    0    0    0    0 -0.00000000000E+00 -0.00000000000E+00 -0.45593999997E+02  0.45594000000E+02  0.51100000000E-03 0.  1.
    9900012    2    1    2    0    0 -0.25654794060E+02 -0.34816469334E+02 -0.36426092135E+01  0.47787267322E+02  0.19999983027E+02 0.  0.
         12    1    1    2    0    0  0.25654794060E+02  0.34816469334E+02  0.36426092135E+01  0.43400732678E+02  0.00000000000E+00 0. -1.
         11    1    3    3    0    0 -0.15001365009E+01  0.17728421484E+01 -0.22722694513E+01  0.32490902612E+01  0.51100000000E-03 0. -1.
        -11    1    3    3    0    0 -0.93681183112E+01 -0.21185060682E+02 -0.82502270262E+00  0.23178634548E+02  0.51100000000E-03 0.  1.
        -12    1    3    3    0    0 -0.14786539248E+02 -0.15404250800E+02 -0.54531705953E+00  0.21359542512E+02  0.00000000000E+00 0.  1.
</event>
<event>
 7    1  0.1246400E-009  0.4778727E+02  0.7816164E-02  0.1312668E+00
        -11   -1    0    0    0    0  0.00000000000E+00  0.00000000000E+00  0.45593999997E+02  0.45594000000E+02  0.51100000000E-03 0.  1.
         11   -1    0    0    0    0 -0.00000000000E+00 -0.00000000000E+00 -0.45593999997E+02  0.45594000000E+02  0.51100000000E-03 0. -1.
    9900012    2    1    2    0    0  0.60175250562E+01  0.17366434723E+01  0.42946438452E+02  0.47787272885E+02  0.20000008394E+02 0.  0.
         12    1    1    2    0    0 -0.60175250562E+01 -0.17366434723E+01 -0.42946438452E+02  0.43400727115E+02  0.00000000000E+00 0. -1.
         11    1    3    3    0    0  0.23794365327E+01  0.34251259964E+00 -0.52505459137E+00  0.24606331866E+01  0.51100000000E-03 0. -1.
        -11    1    3    3    0    0 -0.39139095684E+01 -0.17567959952E+01  0.20420312152E+02  0.20866100951E+02  0.51100000000E-03 0.  1.
         12    1    3    3    0    0  0.75519980918E+01  0.31509268679E+01  0.23051180892E+02  0.24460538747E+02  0.00000000000E+00 0. -1.
</event>
<event>
 7    1  0.1246400E-009  0.4778727E+02  0.7816164E-02  0.1312668E+00
        -11   -1    0    0    0    0  0.00000000000E+00  0.00000000000E+00  0.45593999997E+02  0.45594000000E+02  0.51100000000E-03 0. -1.
         11   -1    0    0    0    0 -0.00000000000E+00 -0.00000000000E+00 -0.45593999997E+02  0.45594000000E+02  0.51100000000E-03 0.  1.
    9900012    2    1    2    0    0 -0.13476235675E+02  0.28173230476E+02 -0.30137743944E+02  0.47787268976E+02  0.19999990568E+02 0.  0.
         12    1    1    2    0    0  0.13476235675E+02 -0.28173230476E+02  0.30137743944E+02  0.43400731024E+02  0.00000000000E+00 0. -1.
         11    1    3    3    0    0 -0.28617031600E+01  0.35787313822E+01 -0.10751138334E+02  0.11686900317E+02  0.51100000000E-03 0. -1.
        -11    1    3    3    0    0 -0.11614265922E+00  0.16512185172E+02 -0.69059819133E+01  0.17898556778E+02  0.51100000000E-03 0.  1.
        -12    1    3    3    0    0 -0.10498389856E+02  0.80823139213E+01 -0.12480623697E+02  0.18201811881E+02  0.00000000000E+00 0.  1.
</event>
<event>
 7    1  0.1246400E-009  0.4778728E+02  0.7816164E-02  0.1312668E+00
        -11   -1    0    0    0    0  0.00000000000E+00  0.00000000000E+00  0.45593999997E+02  0.45594000000E+02  0.51100000000E-03 0.  1.
         11   -1    0    0    0    0 -0.00000000000E+00 -0.00000000000E+00 -0.45593999997E+02  0.45594000000E+02  0.51100000000E-03 0. -1.
    9900012    2    1    2    0    0  0.11874150038E+02 -0.16611544045E+02  0.38297308893E+02  0.47787277620E+02  0.20000029978E+02 0.  0.
         12    1    1    2    0    0 -0.11874150038E+02  0.16611544045E+02 -0.38297308893E+02  0.43400722380E+02  0.00000000000E+00 0. -1.
         11    1    3    3    0    0  0.61992017749E+01  0.20227729394E+01  0.89740539472E+01  0.11093031935E+02  0.51100000000E-03 0. -1.
        -11    1    3    3    0    0 -0.12642810800E+01 -0.62368253656E+01  0.36081954045E+01  0.73154269614E+01  0.51100000000E-03 0.  1.
        -12    1    3    3    0    0  0.69392293431E+01 -0.12397491619E+02  0.25715059542E+02  0.29378818723E+02  0.00000000000E+00 0.  1.
</event>
<event>
 7    1  0.1246400E-009  0.4778727E+02  0.7816164E-02  0.1312668E+00
        -11   -1    0    0    0    0  0.00000000000E+00  0.00000000000E+00  0.45593999997E+02  0.45594000000E+02  0.51100000000E-03 0.  1.
         11   -1    0    0    0    0 -0.00000000000E+00 -0.00000000000E+00 -0.45593999997E+02  0.45594000000E+02  0.51100000000E-03 0. -1.
    9900012    2    1    2    0    0 -0.27061684171E+02 -0.33253080766E+02  0.67469325753E+01  0.47787271552E+02  0.20000002316E+02 0.  0.
         12    1    1    2    0    0  0.27061684171E+02  0.33253080766E+02 -0.67469325753E+01  0.43400728448E+02  0.00000000000E+00 0. -1.
         11    1    3    3    0    0 -0.10927928521E+02 -0.12682242973E+02 -0.45667340400E+01  0.17352635784E+02  0.51100000000E-03 0. -1.
        -11    1    3    3    0    0 -0.16245692806E+02 -0.15207957841E+02  0.63875109458E+01  0.23151777746E+02  0.51100000000E-03 0.  1.
        -12    1    3    3    0    0  0.11193715551E+00 -0.53628799513E+01  0.49261556696E+01  0.72828580228E+01  0.00000000000E+00 0.  1.
</event>
<event>
 7    1  0.1246400E-009  0.4778727E+02  0.7816164E-02  0.1312668E+00
        -11   -1    0    0    0    0  0.00000000000E+00  0.00000000000E+00  0.45593999997E+02  0.45594000000E+02  0.51100000000E-03 0. -1.
         11   -1    0    0    0    0 -0.00000000000E+00 -0.00000000000E+00 -0.45593999997E+02  0.45594000000E+02  0.51100000000E-03 0.  1.
    9900012    2    1    2    0    0  0.19013423787E+02 -0.26556962451E+02 -0.28580422612E+02  0.47787273101E+02  0.20000009375E+02 0.  0.
         12    1    1    2    0    0 -0.19013423787E+02  0.26556962451E+02  0.28580422612E+02  0.43400726899E+02  0.00000000000E+00 0. -1.
         11    1    3    3    0    0 -0.85171209829E+00  0.16538165541E+01 -0.61604373418E+01  0.64351776351E+01  0.51100000000E-03 0. -1.
        -11    1    3    3    0    0  0.95452138980E+01 -0.10081510148E+02 -0.87079090667E+01  0.16388277389E+02  0.51100000000E-03 0.  1.
         12    1    3    3    0    0  0.10319921987E+02 -0.18129268858E+02 -0.13712076203E+02  0.24963818076E+02  0.00000000000E+00 0. -1.
</event>
<event>
 7    1  0.1246400E-009  0.4778727E+02  0.7816164E-02  0.1312668E+00
        -11   -1    0    0    0    0  0.00000000000E+00  0.00000000000E+00  0.45593999997E+02  0.45594000000E+02  0.51100000000E-03 0. -1.
         11   -1    0    0    0    0 -0.00000000000E+00 -0.00000000000E+00 -0.45593999997E+02  0.45594000000E+02  0.51100000000E-03 0.  1.
    9900012    2    1    2    0    0  0.29567278737E+02 -0.29752211922E+02 -0.11144743749E+02  0.47787269598E+02  0.19999993407E+02 0.  0.
         12    1    1    2    0    0 -0.29567278737E+02  0.29752211922E+02  0.11144743749E+02  0.43400730402E+02  0.00000000000E+00 0. -1.
         11    1    3    3    0    0  0.12688471340E+02 -0.14083535354E+02  0.44046515788E+01  0.19461352183E+02  0.51100000000E-03 0. -1.
        -11    1    3    3    0    0  0.60373692923E+01 -0.87199832421E+01 -0.52374656656E+01  0.11828735460E+02  0.51100000000E-03 0.  1.
         12    1    3    3    0    0  0.10841438105E+02 -0.69486933258E+01 -0.10311929662E+02  0.16497181956E+02  0.00000000000E+00 0. -1.
</event>
<event>
 7    1  0.1246400E-009  0.4778727E+02  0.7816164E-02  0.1312668E+00
        -11   -1    0    0    0    0  0.00000000000E+00  0.00000000000E+00  0.45593999997E+02  0.45594000000E+02  0.51100000000E-03 0.  1.
         11   -1    0    0    0    0 -0.00000000000E+00 -0.00000000000E+00 -0.45593999997E+02  0.45594000000E+02  0.51100000000E-03 0. -1.
    9900012    2    1    2    0    0  0.17239021461E+02 -0.27971389655E+02  0.28355613512E+02  0.47787270539E+02  0.19999997694E+02 0.  0.
         12    1    1    2    0    0 -0.17239021461E+02  0.27971389655E+02 -0.28355613512E+02  0.43400729461E+02  0.00000000000E+00 0. -1.
         11    1    3    3    0    0  0.62565436604E+01 -0.88723433105E+01  0.77932837172E+00  0.10884400184E+02  0.51100000000E-03 0. -1.
        -11    1    3    3    0    0  0.85795827583E+01 -0.14050128969E+02  0.12052862390E+02  0.20403108989E+02  0.51100000000E-03 0.  1.
         12    1    3    3    0    0  0.24028950418E+01 -0.50489173749E+01  0.15523422750E+02  0.16499761366E+02  0.00000000000E+00 0. -1.
</event>
<event>
 7    1  0.1246400E-009  0.4778727E+02  0.7816164E-02  0.1312668E+00
        -11   -1    0    0    0    0  0.00000000000E+00  0.00000000000E+00  0.45593999997E+02  0.45594000000E+02  0.51100000000E-03 0. -1.
         11   -1    0    0    0    0 -0.00000000000E+00 -0.00000000000E+00 -0.45593999997E+02  0.45594000000E+02  0.51100000000E-03 0.  1.
    9900012    2    1    2    0    0  0.23141277491E+01 -0.19882651223E+02 -0.38509067622E+02  0.47787270790E+02  0.19999998838E+02 0.  0.
         12    1    1    2    0    0 -0.23141277491E+01  0.19882651223E+02  0.38509067622E+02  0.43400729210E+02  0.00000000000E+00 0. -1.
         11    1    3    3    0    0 -0.19302893879E+01 -0.34409131005E+01 -0.68023295598E+01  0.78636879254E+01  0.51100000000E-03 0. -1.
        -11    1    3    3    0    0 -0.97561236374E+00 -0.17812056675E+02 -0.28568562237E+02  0.33680616547E+02  0.51100000000E-03 0.  1.
         12    1    3    3    0    0  0.52200295008E+01  0.13703185524E+01 -0.31381758250E+01  0.62429663168E+01  0.00000000000E+00 0. -1.
</event>
<event>
 7    1  0.1246400E-009  0.4778727E+02  0.7816164E-02  0.1312668E+00
        -11   -1    0    0    0    0  0.00000000000E+00  0.00000000000E+00  0.45593999997E+02  0.45594000000E+02  0.51100000000E-03 0. -1.
         11   -1    0    0    0    0 -0.00000000000E+00 -0.00000000000E+00 -0.45593999997E+02  0.45594000000E+02  0.51100000000E-03 0.  1.
    9900012    2    1    2    0    0 -0.18872794992E+02 -0.29849158296E+02 -0.25228328429E+02  0.47787271929E+02  0.20000004031E+02 0.  0.
         12    1    1    2    0    0  0.18872794992E+02  0.29849158296E+02  0.25228328429E+02  0.43400728071E+02  0.00000000000E+00 0. -1.
         11    1    3    3    0    0 -0.18269904780E+02 -0.20442129754E+02 -0.18336434781E+02  0.32983252270E+02  0.51100000000E-03 0. -1.
        -11    1    3    3    0    0 -0.16096291253E+01  0.14683679923E+01 -0.10695490491E+01  0.24271270901E+01  0.51100000000E-03 0.  1.
        -12    1    3    3    0    0  0.10067389139E+01 -0.10875396535E+02 -0.58223445991E+01  0.12376892569E+02  0.00000000000E+00 0.  1.
</event>
<event>
 7    1  0.1246400E-009  0.4778726E+02  0.7816164E-02  0.1312668E+00
        -11   -1    0    0    0    0  0.00000000000E+00  0.00000000000E+00  0.45593999997E+02  0.45594000000E+02  0.51100000000E-03 0. -1.
         11   -1    0    0    0    0 -0.00000000000E+00 -0.00000000000E+00 -0.45593999997E+02  0.45594000000E+02  0.51100000000E-03 0.  1.
    9900012    2    1    2    0    0  0.29207453676E+02  0.16532749385E+02 -0.27517571756E+02  0.47787263741E+02  0.19999966700E+02 0.  0.
         12    1    1    2    0    0 -0.29207453676E+02 -0.16532749385E+02  0.27517571756E+02  0.43400736259E+02  0.00000000000E+00 0. -1.
         11    1    3    3    0    0  0.66870644663E+01 -0.26557860800E+01 -0.75081316669E+01  0.10399138054E+02  0.51100000000E-03 0. -1.
        -11    1    3    3    0    0  0.20294286474E+02  0.12209817458E+02 -0.18127085783E+02  0.29824971838E+02  0.51100000000E-03 0.  1.
        -12    1    3    3    0    0  0.22261027357E+01  0.69787180073E+01 -0.18823543058E+01  0.75631538493E+01  0.00000000000E+00 0.  1.
</event>
<event>
 7    1  0.1246400E-009  0.4778731E+02  0.7816164E-02  0.1312668E+00
        -11   -1    0    0    0    0  0.00000000000E+00  0.00000000000E+00  0.45593999997E+02  0.45594000000E+02  0.51100000000E-03 0.  1.
         11   -1    0    0    0    0 -0.00000000000E+00 -0.00000000000E+00 -0.45593999997E+02  0.45594000000E+02  0.51100000000E-03 0. -1.
    9900012    2    1    2    0    0 -0.37597601754E+02  0.49882392799E+01  0.21098762793E+02  0.47787308990E+02  0.20000173007E+02 0.  0.
         12    1    1    2    0    0  0.37597601754E+02 -0.49882392799E+01 -0.21098762793E+02  0.43400691010E+02  0.00000000000E+00 0. -1.
         11    1    3    3    0    0  0.16151838755E+00 -0.28091930889E+01  0.49750765242E+01  0.57156837459E+01  0.51100000000E-03 0.  1.
        -11    1    3    3    0    0 -0.13333337937E+02  0.45274954239E+01  0.41946259377E+01  0.14692549213E+02  0.51100000000E-03 0. -1.
        -12    1    3    3    0    0 -0.24425782204E+02  0.32699369448E+01  0.11929060331E+02  0.27379076031E+02  0.00000000000E+00 0.  1.
</event>
<event>
 7    1  0.1246400E-009  0.4778727E+02  0.7816164E-02  0.1312668E+00
        -11   -1    0    0    0    0  0.00000000000E+00  0.00000000000E+00  0.45593999997E+02  0.45594000000E+02  0.51100000000E-03 0. -1.
         11   -1    0    0    0    0 -0.00000000000E+00 -0.00000000000E+00 -0.45593999997E+02  0.45594000000E+02  0.51100000000E-03 0.  1.
    9900012    2    1    2    0    0  0.35648935952E+02 -0.10268191491E+02 -0.22524227421E+02  0.47787271758E+02  0.20000003253E+02 0.  0.
         12    1    1    2    0    0 -0.35648935952E+02  0.10268191491E+02  0.22524227421E+02  0.43400728242E+02  0.00000000000E+00 0. -1.
         11    1    3    3    0    0  0.11282141583E+02 -0.11658264193E+02 -0.59046787541E+01  0.17264619142E+02  0.51100000000E-03 0. -1.
        -11    1    3    3    0    0  0.10173219831E+02 -0.14650585675E+01 -0.10827890081E+02  0.14929300124E+02  0.51100000000E-03 0.  1.
        -12    1    3    3    0    0  0.14193574538E+02  0.28551312689E+01 -0.57916585862E+01  0.15593352491E+02  0.00000000000E+00 0.  1.
</event>
<event>
 7    1  0.1300773E-009  0.4778727E+02  0.7816164E-02  0.1312668E+00
        -11   -1    0    0    0    0  0.00000000000E+00  0.00000000000E+00  0.45593999997E+02  0.45594000000E+02  0.51100000000E-03 0. -1.
         11   -1    0    0    0    0 -0.00000000000E+00 -0.00000000000E+00 -0.45593999997E+02  0.45594000000E+02  0.51100000000E-03 0.  1.
    9900012    2    1    2    0    0  0.22635667377E+02 -0.31940462048E+02  0.18736504603E+02  0.47787272378E+02  0.20000006078E+02 0.  0.
         12    1    1    2    0    0 -0.22635667377E+02  0.31940462048E+02 -0.18736504603E+02  0.43400727622E+02  0.00000000000E+00 0. -1.
         11    1    3    3    0    0  0.35038025518E+01 -0.44411070251E+01 -0.99380618046E+00  0.57434932677E+01  0.51100000000E-03 0. -1.
        -11    1    3    3    0    0  0.76926948190E+01 -0.81765692812E+01  0.15588119544E+02  0.19209979437E+02  0.51100000000E-03 0.  1.
        -12    1    3    3    0    0  0.11439170006E+02 -0.19322785742E+02  0.41421912396E+01  0.22833799673E+02  0.00000000000E+00 0.  1.
</event>
<event>
 7    1  0.1246400E-009  0.4778727E+02  0.7816164E-02  0.1312668E+00
        -11   -1    0    0    0    0  0.00000000000E+00  0.00000000000E+00  0.45593999997E+02  0.45594000000E+02  0.51100000000E-03 0. -1.
         11   -1    0    0    0    0 -0.00000000000E+00 -0.00000000000E+00 -0.45593999997E+02  0.45594000000E+02  0.51100000000E-03 0.  1.
    9900012    2    1    2    0    0 -0.26269364046E+02  0.22647298011E+02 -0.26089154141E+02  0.47787267767E+02  0.19999985057E+02 0.  0.
         12    1    1    2    0    0  0.26269364046E+02 -0.22647298011E+02  0.26089154141E+02  0.43400732233E+02  0.00000000000E+00 0. -1.
         11    1    3    3    0    0 -0.15245836502E+02  0.51213867091E+01 -0.30059509218E+01  0.16361536409E+02  0.51100000000E-03 0. -1.
        -11    1    3    3    0    0 -0.71851472134E+01  0.67347850900E+01 -0.11404420155E+02  0.15067994891E+02  0.51100000000E-03 0.  1.
         12    1    3    3    0    0 -0.38383803310E+01  0.10791126212E+02 -0.11678783064E+02  0.16357736467E+02  0.00000000000E+00 0. -1.
</event>
<event>
 7    1  0.1246400E-009  0.4778727E+02  0.7816164E-02  0.1312668E+00
        -11   -1    0    0    0    0  0.00000000000E+00  0.00000000000E+00  0.45593999997E+02  0.45594000000E+02  0.51100000000E-03 0.  1.
         11   -1    0    0    0    0 -0.00000000000E+00 -0.00000000000E+00 -0.45593999997E+02  0.45594000000E+02  0.51100000000E-03 0. -1.
    9900012    2    1    2    0    0  0.26961123318E+02 -0.11837752306E+02  0.31883989642E+02  0.47787270217E+02  0.19999996225E+02 0.  0.
         12    1    1    2    0    0 -0.26961123318E+02  0.11837752306E+02 -0.31883989642E+02  0.43400729783E+02  0.00000000000E+00 0. -1.
         11    1    3    3    0    0  0.18663005277E+00 -0.48367541450E+01  0.48011524471E+01  0.68176305647E+01  0.51100000000E-03 0. -1.
        -11    1    3    3    0    0  0.24544591964E+02 -0.92282174614E+01  0.19258474322E+02  0.32534379135E+02  0.51100000000E-03 0.  1.
        -12    1    3    3    0    0  0.22299013010E+01  0.22272193002E+01  0.78243628730E+01  0.84352605171E+01  0.00000000000E+00 0.  1.
</event>
<event>
 7    1  0.1246400E-009  0.4778727E+02  0.7816164E-02  0.1312668E+00
        -11   -1    0    0    0    0  0.00000000000E+00  0.00000000000E+00  0.45593999997E+02  0.45594000000E+02  0.51100000000E-03 0. -1.
         11   -1    0    0    0    0 -0.00000000000E+00 -0.00000000000E+00 -0.45593999997E+02  0.45594000000E+02  0.51100000000E-03 0.  1.
    9900012    2    1    2    0    0 -0.12056152207E+02  0.34844196631E+01 -0.41546733603E+02  0.47787273514E+02  0.20000011259E+02 0.  0.
         12    1    1    2    0    0  0.12056152207E+02 -0.34844196631E+01  0.41546733603E+02  0.43400726486E+02  0.00000000000E+00 0. -1.
         11    1    3    3    0    0 -0.57856526419E+01  0.16251078145E+01 -0.21042572009E+02  0.21883888797E+02  0.51100000000E-03 0.  1.
        -11    1    3    3    0    0 -0.69766033167E+01  0.19364785443E+01 -0.22578394991E+02  0.23710901789E+02  0.51100000000E-03 0. -1.
         12    1    3    3    0    0  0.70610375169E+00 -0.77166695683E-01  0.20742333964E+01  0.21924829281E+01  0.00000000000E+00 0. -1.
</event>
<event>
 7    1  0.1246400E-009  0.4778727E+02  0.7816164E-02  0.1312668E+00
        -11   -1    0    0    0    0  0.00000000000E+00  0.00000000000E+00  0.45593999997E+02  0.45594000000E+02  0.51100000000E-03 0. -1.
         11   -1    0    0    0    0 -0.00000000000E+00 -0.00000000000E+00 -0.45593999997E+02  0.45594000000E+02  0.51100000000E-03 0.  1.
    9900012    2    1    2    0    0  0.41920292281E+02 -0.10275433491E+02 -0.45528327312E+01  0.47787265856E+02  0.19999976344E+02 0.  0.
         12    1    1    2    0    0 -0.41920292281E+02  0.10275433491E+02  0.45528327312E+01  0.43400734144E+02  0.00000000000E+00 0. -1.
         11    1    3    3    0    0  0.19215873928E+02 -0.78702413036E+01  0.14323515081E+01  0.20814469489E+02  0.51100000000E-03 0. -1.
        -11    1    3    3    0    0  0.93137019741E+01 -0.57705499905E+01 -0.72029182897E+01  0.13112067869E+02  0.51100000000E-03 0.  1.
        -12    1    3    3    0    0  0.13390716378E+02  0.33653578031E+01  0.12177340504E+01  0.13860728498E+02  0.00000000000E+00 0.  1.
</event>
<event>
 7    1  0.1246400E-009  0.4778726E+02  0.7816164E-02  0.1312668E+00
        -11   -1    0    0    0    0  0.00000000000E+00  0.00000000000E+00  0.45593999997E+02  0.45594000000E+02  0.51100000000E-03 0.  1.
         11   -1    0    0    0    0 -0.00000000000E+00 -0.00000000000E+00 -0.45593999997E+02  0.45594000000E+02  0.51100000000E-03 0. -1.
    9900012    2    1    2    0    0 -0.51091540267E+01  0.12585212844E+02  0.41220542435E+02  0.47787260884E+02  0.19999953675E+02 0.  0.
         12    1    1    2    0    0  0.51091540267E+01 -0.12585212844E+02 -0.41220542435E+02  0.43400739116E+02  0.00000000000E+00 0. -1.
         11    1    3    3    0    0 -0.11299369559E+01  0.96897789565E+01  0.70171633676E+01  0.12017036063E+02  0.51100000000E-03 0. -1.
        -11    1    3    3    0    0 -0.19548747458E+01  0.61900620605E+01  0.23874010649E+02  0.24740791991E+02  0.51100000000E-03 0.  1.
        -12    1    3    3    0    0 -0.20243423249E+01 -0.32946281731E+01  0.10329368418E+02  0.11029432830E+02  0.00000000000E+00 0.  1.
</event>
<event>
 7    1  0.1246400E-009  0.4778727E+02  0.7816164E-02  0.1312668E+00
        -11   -1    0    0    0    0  0.00000000000E+00  0.00000000000E+00  0.45593999997E+02  0.45594000000E+02  0.51100000000E-03 0.  1.
         11   -1    0    0    0    0 -0.00000000000E+00 -0.00000000000E+00 -0.45593999997E+02  0.45594000000E+02  0.51100000000E-03 0. -1.
    9900012    2    1    2    0    0  0.19514354737E+02 -0.33800719625E+02  0.18982215887E+02  0.47787271804E+02  0.20000003463E+02 0.  0.
         12    1    1    2    0    0 -0.19514354737E+02  0.33800719625E+02 -0.18982215887E+02  0.43400728196E+02  0.00000000000E+00 0. -1.
         11    1    3    3    0    0  0.27723548134E+01 -0.62551912030E+01  0.32685516081E+01  0.75826643123E+01  0.51100000000E-03 0.  1.
        -11    1    3    3    0    0  0.12289151585E+02 -0.21325285436E+02  0.19748268384E+02  0.31556063602E+02  0.51100000000E-03 0. -1.
         12    1    3    3    0    0  0.44528483386E+01 -0.62202429861E+01 -0.40346041051E+01  0.86485438901E+01  0.00000000000E+00 0. -1.
</event>
<event>
 7    1  0.1246400E-009  0.4778727E+02  0.7816164E-02  0.1312668E+00
        -11   -1    0    0    0    0  0.00000000000E+00  0.00000000000E+00  0.45593999997E+02  0.45594000000E+02  0.51100000000E-03 0.  1.
         11   -1    0    0    0    0 -0.00000000000E+00 -0.00000000000E+00 -0.45593999997E+02  0.45594000000E+02  0.51100000000E-03 0. -1.
    9900012    2    1    2    0    0 -0.21587501723E+02 -0.30824602458E+01  0.37524680374E+02  0.47787269257E+02  0.19999991850E+02 0.  0.
         12    1    1    2    0    0  0.21587501723E+02  0.30824602458E+01 -0.37524680374E+02  0.43400730743E+02  0.00000000000E+00 0. -1.
         11    1    3    3    0    0  0.14394309563E+01 -0.12660903911E+01  0.12301222239E+01  0.22777504919E+01  0.51100000000E-03 0. -1.
        -11    1    3    3    0    0 -0.20232099293E+02 -0.17686243782E+01  0.18421784305E+02  0.27419482330E+02  0.51100000000E-03 0.  1.
        -12    1    3    3    0    0 -0.27948333866E+01 -0.47745476470E-01  0.17872773845E+02  0.18090036435E+02  0.00000000000E+00 0.  1.
</event>
<event>
 7    1  0.1246400E-009  0.4778727E+02  0.7816164E-02  0.1312668E+00
        -11   -1    0    0    0    0  0.00000000000E+00  0.00000000000E+00  0.45593999997E+02  0.45594000000E+02  0.51100000000E-03 0. -1.
         11   -1    0    0    0    0 -0.00000000000E+00 -0.00000000000E+00 -0.45593999997E+02  0.45594000000E+02  0.51100000000E-03 0.  1.
    9900012    2    1    2    0    0 -0.30521431457E+02 -0.19169692001E+02 -0.24178266036E+02  0.47787269383E+02  0.19999992425E+02 0.  0.
         12    1    1    2    0    0  0.30521431457E+02  0.19169692001E+02  0.24178266036E+02  0.43400730617E+02  0.00000000000E+00 0. -1.
         11    1    3    3    0    0 -0.29169064352E+01 -0.24115389098E+01 -0.51425350989E+00  0.38194659311E+01  0.51100000000E-03 0. -1.
        -11    1    3    3    0    0 -0.14963405097E+02 -0.17596054984E+02 -0.95297018945E+01  0.24986793743E+02  0.51100000000E-03 0.  1.
         12    1    3    3    0    0 -0.12641119924E+02  0.83790189301E+00 -0.14134310632E+02  0.18981009709E+02  0.00000000000E+00 0. -1.
</event>
<event>
 7    1  0.1246400E-009  0.4778729E+02  0.7816164E-02  0.1312668E+00
        -11   -1    0    0    0    0  0.00000000000E+00  0.00000000000E+00  0.45593999997E+02  0.45594000000E+02  0.51100000000E-03 0. -1.
         11   -1    0    0    0    0 -0.00000000000E+00 -0.00000000000E+00 -0.45593999997E+02  0.45594000000E+02  0.51100000000E-03 0.  1.
    9900012    2    1    2    0    0  0.25017380903E+01 -0.28396072169E+02 -0.32726536350E+02  0.47787288145E+02  0.20000077968E+02 0.  0.
         12    1    1    2    0    0 -0.25017380903E+01  0.28396072169E+02  0.32726536350E+02  0.43400711855E+02  0.00000000000E+00 0. -1.
         11    1    3    3    0    0  0.61555911911E+01 -0.81668898313E+01 -0.11685526831E+02  0.15528713083E+02  0.51100000000E-03 0. -1.
        -11    1    3    3    0    0  0.27351796698E+01 -0.67244545555E+01 -0.13940198207E+02  0.15717144244E+02  0.51100000000E-03 0.  1.
        -12    1    3    3    0    0 -0.63890327706E+01 -0.13504727782E+02 -0.71008113118E+01  0.16541430818E+02  0.00000000000E+00 0.  1.
</event>
<event>
 7    1  0.1246400E-009  0.4778725E+02  0.7816164E-02  0.1312668E+00
        -11   -1    0    0    0    0  0.00000000000E+00  0.00000000000E+00  0.45593999997E+02  0.45594000000E+02  0.51100000000E-03 0. -1.
         11   -1    0    0    0    0 -0.00000000000E+00 -0.00000000000E+00 -0.45593999997E+02  0.45594000000E+02  0.51100000000E-03 0.  1.
    9900012    2    1    2    0    0 -0.41825937220E+02 -0.77405296620E+01  0.86197571472E+01  0.47787250732E+02  0.19999907387E+02 0.  0.
         12    1    1    2    0    0  0.41825937220E+02  0.77405296620E+01 -0.86197571472E+01  0.43400749268E+02  0.00000000000E+00 0. -1.
         11    1    3    3    0    0 -0.17573950230E+02 -0.10925125089E+02  0.38327891707E+01  0.21045007911E+02  0.51100000000E-03 0. -1.
        -11    1    3    3    0    0 -0.47114326824E+01  0.12217775043E+01 -0.28849471313E+01  0.56580260164E+01  0.51100000000E-03 0.  1.
         12    1    3    3    0    0 -0.19540554307E+02  0.19628179226E+01  0.76719151077E+01  0.21084216804E+02  0.00000000000E+00 0. -1.
</event>
<event>
 7    1  0.1246400E-009  0.4778727E+02  0.7816164E-02  0.1312668E+00
        -11   -1    0    0    0    0  0.00000000000E+00  0.00000000000E+00  0.45593999997E+02  0.45594000000E+02  0.51100000000E-03 0.  1.
         11   -1    0    0    0    0 -0.00000000000E+00 -0.00000000000E+00 -0.45593999997E+02  0.45594000000E+02  0.51100000000E-03 0. -1.
    9900012    2    1    2    0    0  0.26328614870E+02  0.12380624318E+02  0.32204780677E+02  0.47787265929E+02  0.19999976678E+02 0.  0.
         12    1    1    2    0    0 -0.26328614870E+02 -0.12380624318E+02 -0.32204780677E+02  0.43400734071E+02  0.00000000000E+00 0. -1.
         11    1    3    3    0    0  0.13491921095E+02  0.69258647787E+01  0.80648592492E+01  0.17176771895E+02  0.51100000000E-03 0. -1.
        -11    1    3    3    0    0 -0.36591962009E+00  0.54364605282E+01  0.52693576642E+01  0.75799162725E+01  0.51100000000E-03 0.  1.
        -12    1    3    3    0    0  0.13202613395E+02  0.18299010633E-01  0.18870563763E+02  0.23030577762E+02  0.00000000000E+00 0.  1.
</event>
<event>
 7    1  0.1246400E-009  0.4778727E+02  0.7816164E-02  0.1312668E+00
        -11   -1    0    0    0    0  0.00000000000E+00  0.00000000000E+00  0.45593999997E+02  0.45594000000E+02  0.51100000000E-03 0. -1.
         11   -1    0    0    0    0 -0.00000000000E+00 -0.00000000000E+00 -0.45593999997E+02  0.45594000000E+02  0.51100000000E-03 0.  1.
    9900012    2    1    2    0    0  0.15961086815E+02 -0.12033722971E+00 -0.40359049251E+02  0.47787266944E+02  0.19999981305E+02 0.  0.
         12    1    1    2    0    0 -0.15961086815E+02  0.12033722971E+00  0.40359049251E+02  0.43400733056E+02  0.00000000000E+00 0. -1.
         11    1    3    3    0    0  0.56308855166E+00 -0.17441045999E+01 -0.26386500111E+00  0.18516464490E+01  0.51100000000E-03 0. -1.
        -11    1    3    3    0    0  0.11999017863E+02  0.84978133974E+01 -0.27688210754E+02  0.31350060243E+02  0.51100000000E-03 0.  1.
        -12    1    3    3    0    0  0.33989804004E+01 -0.68740460272E+01 -0.12406973496E+02  0.14585560252E+02  0.00000000000E+00 0.  1.
</event>
<event>
 7    1  0.1246400E-009  0.4778727E+02  0.7816164E-02  0.1312668E+00
        -11   -1    0    0    0    0  0.00000000000E+00  0.00000000000E+00  0.45593999997E+02  0.45594000000E+02  0.51100000000E-03 0. -1.
         11   -1    0    0    0    0 -0.00000000000E+00 -0.00000000000E+00 -0.45593999997E+02  0.45594000000E+02  0.51100000000E-03 0.  1.
    9900012    2    1    2    0    0  0.24925238930E+02  0.31894491513E+02 -0.15655582920E+02  0.47787269578E+02  0.19999993313E+02 0.  0.
         12    1    1    2    0    0 -0.24925238930E+02 -0.31894491513E+02  0.15655582920E+02  0.43400730422E+02  0.00000000000E+00 0. -1.
         11    1    3    3    0    0 -0.23732050205E+01  0.56731267696E+01 -0.57644072918E+01  0.84288113694E+01  0.51100000000E-03 0. -1.
        -11    1    3    3    0    0  0.15400823135E+02  0.14513930878E+02 -0.77182417130E+01  0.22525780745E+02  0.51100000000E-03 0.  1.
        -12    1    3    3    0    0  0.11897620816E+02  0.11707433865E+02 -0.21729339156E+01  0.16832677463E+02  0.00000000000E+00 0.  1.
</event>
<event>
 7    1  0.1246400E-009  0.4778730E+02  0.7816164E-02  0.1312668E+00
        -11   -1    0    0    0    0  0.00000000000E+00  0.00000000000E+00  0.45593999997E+02  0.45594000000E+02  0.51100000000E-03 0.  1.
         11   -1    0    0    0    0 -0.00000000000E+00 -0.00000000000E+00 -0.45593999997E+02  0.45594000000E+02  0.51100000000E-03 0. -1.
    9900012    2    1    2    0    0 -0.33905857633E+02  0.10318355856E+02  0.25050849301E+02  0.47787300696E+02  0.20000135191E+02 0.  0.
         12    1    1    2    0    0  0.33905857633E+02 -0.10318355856E+02 -0.25050849301E+02  0.43400699304E+02  0.00000000000E+00 0. -1.
         11    1    3    3    0    0 -0.28213534085E+02  0.86981580468E+01  0.12091147947E+02  0.31903876221E+02  0.51100000000E-03 0. -1.
        -11    1    3    3    0    0 -0.63526707445E+01  0.26104830635E+01  0.70024632545E+01  0.98084422466E+01  0.51100000000E-03 0.  1.
         12    1    3    3    0    0  0.66034719614E+00 -0.99028525480E+00  0.59572380989E+01  0.60749822282E+01  0.00000000000E+00 0. -1.
</event>
<event>
 7    1  0.1246400E-009  0.4778727E+02  0.7816164E-02  0.1312668E+00
        -11   -1    0    0    0    0  0.00000000000E+00  0.00000000000E+00  0.45593999997E+02  0.45594000000E+02  0.51100000000E-03 0. -1.
         11   -1    0    0    0    0 -0.00000000000E+00 -0.00000000000E+00 -0.45593999997E+02  0.45594000000E+02  0.51100000000E-03 0.  1.
    9900012    2    1    2    0    0  0.27656485640E+02  0.11883893305E+02 -0.31265236808E+02  0.47787272463E+02  0.20000006469E+02 0.  0.
         12    1    1    2    0    0 -0.27656485640E+02 -0.11883893305E+02  0.31265236808E+02  0.43400727537E+02  0.00000000000E+00 0. -1.
         11    1    3    3    0    0  0.11799058893E+02 -0.46258958945E+01 -0.10056884540E+02  0.16178925505E+02  0.51100000000E-03 0. -1.
        -11    1    3    3    0    0  0.88505190094E+01  0.62155282355E+01 -0.79767844880E+01  0.13438510669E+02  0.51100000000E-03 0.  1.
         12    1    3    3    0    0  0.70069077380E+01  0.10294260964E+02 -0.13231567780E+02  0.18169836289E+02  0.00000000000E+00 0. -1.
</event>
<event>
 7    1  0.1246400E-009  0.4778727E+02  0.7816164E-02  0.1312668E+00
        -11   -1    0    0    0    0  0.00000000000E+00  0.00000000000E+00  0.45593999997E+02  0.45594000000E+02  0.51100000000E-03 0. -1.
         11   -1    0    0    0    0 -0.00000000000E+00 -0.00000000000E+00 -0.45593999997E+02  0.45594000000E+02  0.51100000000E-03 0.  1.
    9900012    2    1    2    0    0 -0.15450136474E+02 -0.27263100130E+02 -0.30027318244E+02  0.47787272049E+02  0.20000004578E+02 0.  0.
         12    1    1    2    0    0  0.15450136474E+02  0.27263100130E+02  0.30027318244E+02  0.43400727951E+02  0.00000000000E+00 0. -1.
         11    1    3    3    0    0 -0.21878130041E+01 -0.11679757826E+02 -0.69809959740E+01  0.13781784125E+02  0.51100000000E-03 0. -1.
        -11    1    3    3    0    0 -0.10021721449E+01 -0.11820742248E+02 -0.13783095286E+02  0.18185379079E+02  0.51100000000E-03 0.  1.
         12    1    3    3    0    0 -0.12260151325E+02 -0.37626000555E+01 -0.92632269842E+01  0.15820108845E+02  0.00000000000E+00 0. -1.
</event>
<event>
 7    1  0.1246400E-009  0.4778727E+02  0.7816164E-02  0.1312668E+00
        -11   -1    0    0    0    0  0.00000000000E+00  0.00000000000E+00  0.45593999997E+02  0.45594000000E+02  0.51100000000E-03 0. -1.
         11   -1    0    0    0    0 -0.00000000000E+00 -0.00000000000E+00 -0.45593999997E+02  0.45594000000E+02  0.51100000000E-03 0.  1.
    9900012    2    1    2    0    0 -0.20342756991E+01 -0.41618397695E+02  0.12140610193E+02  0.47787265902E+02  0.19999976555E+02 0.  0.
         12    1    1    2    0    0  0.20342756991E+01  0.41618397695E+02 -0.12140610193E+02  0.43400734098E+02  0.00000000000E+00 0. -1.
         11    1    3    3    0    0  0.29848560431E+01 -0.10443236955E+02  0.52984887566E+01  0.12084889204E+02  0.51100000000E-03 0. -1.
        -11    1    3    3    0    0 -0.65401916025E+01 -0.41754751358E+01  0.32880387721E+01  0.84273304216E+01  0.51100000000E-03 0.  1.
        -12    1    3    3    0    0  0.15210598604E+01 -0.26999685604E+02  0.35540826646E+01  0.27275046277E+02  0.00000000000E+00 0.  1.
</event>
<event>
 7    1  0.1246400E-009  0.4778726E+02  0.7816164E-02  0.1312668E+00
        -11   -1    0    0    0    0  0.00000000000E+00  0.00000000000E+00  0.45593999997E+02  0.45594000000E+02  0.51100000000E-03 0. -1.
         11   -1    0    0    0    0 -0.00000000000E+00 -0.00000000000E+00 -0.45593999997E+02  0.45594000000E+02  0.51100000000E-03 0.  1.
    9900012    2    1    2    0    0  0.61470577296E+01  0.88043438561E+00 -0.42954191024E+02  0.47787262564E+02  0.19999961336E+02 0.  0.
         12    1    1    2    0    0 -0.61470577296E+01 -0.88043438561E+00  0.42954191024E+02  0.43400737436E+02  0.00000000000E+00 0. -1.
         11    1    3    3    0    0  0.57892707445E+01 -0.19407980630E-01 -0.22489152324E+02  0.23222360021E+02  0.51100000000E-03 0.  1.
        -11    1    3    3    0    0 -0.49477729366E+01  0.26411807248E+01 -0.17211315801E+02  0.18102090612E+02  0.51100000000E-03 0. -1.
         12    1    3    3    0    0  0.53055599216E+01 -0.17413383586E+01 -0.32537228986E+01  0.64628119315E+01  0.00000000000E+00 0. -1.
</event>
<event>
 7    1  0.1246400E-009  0.4778728E+02  0.7816164E-02  0.1312668E+00
        -11   -1    0    0    0    0  0.00000000000E+00  0.00000000000E+00  0.45593999997E+02  0.45594000000E+02  0.51100000000E-03 0.  1.
         11   -1    0    0    0    0 -0.00000000000E+00 -0.00000000000E+00 -0.45593999997E+02  0.45594000000E+02  0.51100000000E-03 0. -1.
    9900012    2    1    2    0    0  0.41125640631E+02 -0.24414178442E+01 -0.13650759601E+02  0.47787284843E+02  0.20000062915E+02 0.  0.
         12    1    1    2    0    0 -0.41125640631E+02  0.24414178442E+01  0.13650759601E+02  0.43400715157E+02  0.00000000000E+00 0. -1.
         11    1    3    3    0    0  0.14650652957E+02 -0.39400032527E-01 -0.11508987810E+02  0.18630619558E+02  0.51100000000E-03 0. -1.
        -11    1    3    3    0    0  0.18141435540E+02  0.39815862732E+01 -0.10582851268E+01  0.18603351321E+02  0.51100000000E-03 0.  1.
        -12    1    3    3    0    0  0.83335521338E+01 -0.63836040849E+01 -0.10834866644E+01  0.10553313964E+02  0.00000000000E+00 0.  1.
</event>
<event>
 7    1  0.1246400E-009  0.4778727E+02  0.7816164E-02  0.1312668E+00
        -11   -1    0    0    0    0  0.00000000000E+00  0.00000000000E+00  0.45593999997E+02  0.45594000000E+02  0.51100000000E-03 0.  1.
         11   -1    0    0    0    0 -0.00000000000E+00 -0.00000000000E+00 -0.45593999997E+02  0.45594000000E+02  0.51100000000E-03 0. -1.
    9900012    2    1    2    0    0 -0.16053240802E+02 -0.32342584886E+02  0.24080572241E+02  0.47787270780E+02  0.19999998794E+02 0.  0.
         12    1    1    2    0    0  0.16053240802E+02  0.32342584886E+02 -0.24080572241E+02  0.43400729220E+02  0.00000000000E+00 0. -1.
         11    1    3    3    0    0 -0.24973725702E+01 -0.14519933463E+02  0.49902221033E+01  0.15555309525E+02  0.51100000000E-03 0. -1.
        -11    1    3    3    0    0 -0.46618293021E+01 -0.16254234897E+02  0.13169314584E+02  0.21432770502E+02  0.51100000000E-03 0.  1.
         12    1    3    3    0    0 -0.88940389299E+01 -0.15684165266E+01  0.59210355537E+01  0.10799190753E+02  0.00000000000E+00 0. -1.
</event>
<event>
 7    1  0.1246400E-009  0.4778727E+02  0.7816164E-02  0.1312668E+00
        -11   -1    0    0    0    0  0.00000000000E+00  0.00000000000E+00  0.45593999997E+02  0.45594000000E+02  0.51100000000E-03 0. -1.
         11   -1    0    0    0    0 -0.00000000000E+00 -0.00000000000E+00 -0.45593999997E+02  0.45594000000E+02  0.51100000000E-03 0.  1.
    9900012    2    1    2    0    0  0.38691130051E+02 -0.17552891259E+02  0.88609088560E+01  0.47787271412E+02  0.20000001678E+02 0.  0.
         12    1    1    2    0    0 -0.38691130051E+02  0.17552891259E+02 -0.88609088560E+01  0.43400728588E+02  0.00000000000E+00 0. -1.
         11    1    3    3    0    0  0.98862503719E+01  0.35804390516E+01  0.40295861428E+01  0.11260331032E+02  0.51100000000E-03 0. -1.
        -11    1    3    3    0    0  0.17988677497E+02 -0.97053728180E+01  0.19771967436E+01  0.20535240122E+02  0.51100000000E-03 0.  1.
         12    1    3    3    0    0  0.10816202182E+02 -0.11427957493E+02  0.28541259696E+01  0.15991700258E+02  0.00000000000E+00 0. -1.
</event>
<event>
 7    1  0.1246400E-009  0.4778727E+02  0.7816164E-02  0.1312668E+00
        -11   -1    0    0    0    0  0.00000000000E+00  0.00000000000E+00  0.45593999997E+02  0.45594000000E+02  0.51100000000E-03 0.  1.
         11   -1    0    0    0    0 -0.00000000000E+00 -0.00000000000E+00 -0.45593999997E+02  0.45594000000E+02  0.51100000000E-03 0. -1.
    9900012    2    1    2    0    0 -0.26048387924E+02 -0.21964589698E+02  0.26882366116E+02  0.47787270490E+02  0.19999997473E+02 0.  0.
         12    1    1    2    0    0  0.26048387924E+02  0.21964589698E+02 -0.26882366116E+02  0.43400729510E+02  0.00000000000E+00 0. -1.
         11    1    3    3    0    0 -0.56553211201E+00 -0.49644079587E+01  0.43785700735E+01  0.66435720136E+01  0.51100000000E-03 0. -1.
        -11    1    3    3    0    0 -0.16758804038E+02 -0.49446463101E+01  0.19083920766E+02  0.25874757429E+02  0.51100000000E-03 0.  1.
         12    1    3    3    0    0 -0.87240517733E+01 -0.12055535429E+02  0.34198752764E+01  0.15268941048E+02  0.00000000000E+00 0. -1.
</event>
<event>
 7    1  0.1246400E-009  0.4778727E+02  0.7816164E-02  0.1312668E+00
        -11   -1    0    0    0    0  0.00000000000E+00  0.00000000000E+00  0.45593999997E+02  0.45594000000E+02  0.51100000000E-03 0.  1.
         11   -1    0    0    0    0 -0.00000000000E+00 -0.00000000000E+00 -0.45593999997E+02  0.45594000000E+02  0.51100000000E-03 0. -1.
    9900012    2    1    2    0    0 -0.23891485853E+02  0.35644903135E+02 -0.65008880030E+01  0.47787265437E+02  0.19999974435E+02 0.  0.
         12    1    1    2    0    0  0.23891485853E+02 -0.35644903135E+02  0.65008880030E+01  0.43400734563E+02  0.00000000000E+00 0. -1.
         11    1    3    3    0    0 -0.10475001247E+02  0.43475197660E+01 -0.24436930540E+01  0.11601647092E+02  0.51100000000E-03 0. -1.
        -11    1    3    3    0    0 -0.42743213402E+01  0.17744508366E+01 -0.24531736227E+01  0.52379919602E+01  0.51100000000E-03 0.  1.
        -12    1    3    3    0    0 -0.91421632661E+01  0.29522932532E+02 -0.16040213262E+01  0.30947626386E+02  0.00000000000E+00 0.  1.
</event>
<event>
 7    1  0.1246400E-009  0.4778727E+02  0.7816164E-02  0.1312668E+00
        -11   -1    0    0    0    0  0.00000000000E+00  0.00000000000E+00  0.45593999997E+02  0.45594000000E+02  0.51100000000E-03 0.  1.
         11   -1    0    0    0    0 -0.00000000000E+00 -0.00000000000E+00 -0.45593999997E+02  0.45594000000E+02  0.51100000000E-03 0. -1.
    9900012    2    1    2    0    0 -0.83870467664E+01  0.12828085107E+02  0.40604446937E+02  0.47787269223E+02  0.19999991694E+02 0.  0.
         12    1    1    2    0    0  0.83870467664E+01 -0.12828085107E+02 -0.40604446937E+02  0.43400730777E+02  0.00000000000E+00 0. -1.
         11    1    3    3    0    0  0.43931503367E+01  0.31591262353E+01  0.11016899993E+02  0.12274034959E+02  0.51100000000E-03 0. -1.
        -11    1    3    3    0    0 -0.17587676394E+01  0.81860585993E+01  0.10589990721E+02  0.13500100842E+02  0.51100000000E-03 0.  1.
         12    1    3    3    0    0 -0.11021429464E+02  0.14829002726E+01  0.18997556222E+02  0.22013133422E+02  0.00000000000E+00 0. -1.
</event>
<event>
 7    1  0.1246400E-009  0.4778727E+02  0.7816164E-02  0.1312668E+00
        -11   -1    0    0    0    0  0.00000000000E+00  0.00000000000E+00  0.45593999997E+02  0.45594000000E+02  0.51100000000E-03 0. -1.
         11   -1    0    0    0    0 -0.00000000000E+00 -0.00000000000E+00 -0.45593999997E+02  0.45594000000E+02  0.51100000000E-03 0.  1.
    9900012    2    1    2    0    0  0.28635439044E+02  0.18909421890E+02 -0.26571948352E+02  0.47787273685E+02  0.20000012041E+02 0.  0.
         12    1    1    2    0    0 -0.28635439044E+02 -0.18909421890E+02  0.26571948352E+02  0.43400726315E+02  0.00000000000E+00 0. -1.
         11    1    3    3    0    0  0.93099536200E+01  0.39854845886E+01 -0.11320548371E+01  0.10190234160E+02  0.51100000000E-03 0. -1.
        -11    1    3    3    0    0  0.20568643016E+02  0.10571651304E+02 -0.20605828291E+02  0.30974651679E+02  0.51100000000E-03 0.  1.
        -12    1    3    3    0    0 -0.12431575926E+01  0.43522859976E+01 -0.48340652236E+01  0.66223878466E+01  0.00000000000E+00 0.  1.
</event>
<event>
 7    1  0.1246400E-009  0.4778727E+02  0.7816164E-02  0.1312668E+00
        -11   -1    0    0    0    0  0.00000000000E+00  0.00000000000E+00  0.45593999997E+02  0.45594000000E+02  0.51100000000E-03 0. -1.
         11   -1    0    0    0    0 -0.00000000000E+00 -0.00000000000E+00 -0.45593999997E+02  0.45594000000E+02  0.51100000000E-03 0.  1.
    9900012    2    1    2    0    0 -0.27639708503E+02  0.29650329969E+02 -0.15508951448E+02  0.47787272720E+02  0.20000007641E+02 0.  0.
         12    1    1    2    0    0  0.27639708503E+02 -0.29650329969E+02  0.15508951448E+02  0.43400727280E+02  0.00000000000E+00 0. -1.
         11    1    3    3    0    0  0.27514939470E+00  0.10908064333E+00  0.10186695283E+00  0.31302222502E+00  0.51100000000E-03 0. -1.
        -11    1    3    3    0    0 -0.90939808053E+01  0.34719644898E+01 -0.11488320200E+02  0.15057772929E+02  0.51100000000E-03 0.  1.
         12    1    3    3    0    0 -0.18820877092E+02  0.26069284836E+02 -0.41224982000E+01  0.32416477566E+02  0.00000000000E+00 0. -1.
</event>
<event>
 7    1  0.1246400E-009  0.4778727E+02  0.7816164E-02  0.1312668E+00
        -11   -1    0    0    0    0  0.00000000000E+00  0.00000000000E+00  0.45593999997E+02  0.45594000000E+02  0.51100000000E-03 0.  1.
         11   -1    0    0    0    0 -0.00000000000E+00 -0.00000000000E+00 -0.45593999997E+02  0.45594000000E+02  0.51100000000E-03 0. -1.
    9900012    2    1    2    0    0  0.20912910887E+02  0.18790493602E+02  0.33063434584E+02  0.47787271918E+02  0.20000003983E+02 0.  0.
         12    1    1    2    0    0 -0.20912910887E+02 -0.18790493602E+02 -0.33063434584E+02  0.43400728082E+02  0.00000000000E+00 0. -1.
         11    1    3    3    0    0  0.15120986449E+02  0.30391847081E+01  0.13869004557E+02  0.20741990323E+02  0.51100000000E-03 0. -1.
        -11    1    3    3    0    0  0.14150267380E+01  0.39516006881E+01  0.11623764477E+02  0.12358371638E+02  0.51100000000E-03 0.  1.
         12    1    3    3    0    0  0.43768976996E+01  0.11799708206E+02  0.75706655488E+01  0.14686909957E+02  0.00000000000E+00 0. -1.
</event>
<event>
 7    1  0.1246400E-009  0.4778728E+02  0.7816164E-02  0.1312668E+00
        -11   -1    0    0    0    0  0.00000000000E+00  0.00000000000E+00  0.45593999997E+02  0.45594000000E+02  0.51100000000E-03 0.  1.
         11   -1    0    0    0    0 -0.00000000000E+00 -0.00000000000E+00 -0.45593999997E+02  0.45594000000E+02  0.51100000000E-03 0. -1.
    9900012    2    1    2    0    0  0.36843701270E+00  0.40859139678E+02  0.14629340430E+02  0.47787278318E+02  0.20000033165E+02 0.  0.
         12    1    1    2    0    0 -0.36843701270E+00 -0.40859139678E+02 -0.14629340430E+02  0.43400721682E+02  0.00000000000E+00 0. -1.
         11    1    3    3    0    0 -0.42530521318E+01  0.58738391181E+01 -0.11600578956E+01  0.73441250672E+01  0.51100000000E-03 0. -1.
        -11    1    3    3    0    0  0.36243114139E+01  0.13404332265E+02  0.12318235223E+02  0.18562076284E+02  0.51100000000E-03 0.  1.
         12    1    3    3    0    0  0.99717773062E+00  0.21580968295E+02  0.34711631026E+01  0.21881076967E+02  0.00000000000E+00 0. -1.
</event>
<event>
 7    1  0.1246400E-009  0.4778727E+02  0.7816164E-02  0.1312668E+00
        -11   -1    0    0    0    0  0.00000000000E+00  0.00000000000E+00  0.45593999997E+02  0.45594000000E+02  0.51100000000E-03 0. -1.
         11   -1    0    0    0    0 -0.00000000000E+00 -0.00000000000E+00 -0.45593999997E+02  0.45594000000E+02  0.51100000000E-03 0.  1.
    9900012    2    1    2    0    0 -0.26034111704E+02 -0.32763084388E+02  0.11507765803E+02  0.47787270230E+02  0.19999996287E+02 0.  0.
         12    1    1    2    0    0  0.26034111704E+02  0.32763084388E+02 -0.11507765803E+02  0.43400729770E+02  0.00000000000E+00 0. -1.
         11    1    3    3    0    0  0.58651914165E+00 -0.32497916603E+01  0.33911042645E+01  0.47333644412E+01  0.51100000000E-03 0.  1.
        -11    1    3    3    0    0 -0.11211463414E+02 -0.80937386042E+01 -0.34377330761E+01  0.14248632406E+02  0.51100000000E-03 0. -1.
         12    1    3    3    0    0 -0.15409167431E+02 -0.21419554123E+02  0.11554394615E+02  0.28805273383E+02  0.00000000000E+00 0. -1.
</event>
<event>
 7    1  0.1246400E-009  0.4778727E+02  0.7816164E-02  0.1312668E+00
        -11   -1    0    0    0    0  0.00000000000E+00  0.00000000000E+00  0.45593999997E+02  0.45594000000E+02  0.51100000000E-03 0.  1.
         11   -1    0    0    0    0 -0.00000000000E+00 -0.00000000000E+00 -0.45593999997E+02  0.45594000000E+02  0.51100000000E-03 0. -1.
    9900012    2    1    2    0    0  0.18676207137E+02 -0.11178355137E+02  0.37548190454E+02  0.47787274857E+02  0.20000017382E+02 0.  0.
         12    1    1    2    0    0 -0.18676207137E+02  0.11178355137E+02 -0.37548190454E+02  0.43400725143E+02  0.00000000000E+00 0. -1.
         11    1    3    3    0    0  0.76655407409E+00 -0.95845319366E+01  0.66032274599E+01  0.11664196103E+02  0.51100000000E-03 0. -1.
        -11    1    3    3    0    0  0.87462926654E+01 -0.83300555879E+00  0.10400047471E+02  0.13614423283E+02  0.51100000000E-03 0.  1.
        -12    1    3    3    0    0  0.91633603980E+01 -0.76081764127E+00  0.20544915523E+02  0.22508655471E+02  0.00000000000E+00 0.  1.
</event>
<event>
 7    1  0.1246400E-009  0.4778728E+02  0.7816164E-02  0.1312668E+00
        -11   -1    0    0    0    0  0.00000000000E+00  0.00000000000E+00  0.45593999997E+02  0.45594000000E+02  0.51100000000E-03 0.  1.
         11   -1    0    0    0    0 -0.00000000000E+00 -0.00000000000E+00 -0.45593999997E+02  0.45594000000E+02  0.51100000000E-03 0. -1.
    9900012    2    1    2    0    0 -0.33654487405E+02 -0.25512174141E+02  0.10006356067E+02  0.47787277499E+02  0.20000029428E+02 0.  0.
         12    1    1    2    0    0  0.33654487405E+02  0.25512174141E+02 -0.10006356067E+02  0.43400722501E+02  0.00000000000E+00 0. -1.
         11    1    3    3    0    0 -0.55177571008E+01 -0.15575260185E+01 -0.36311910773E+01  0.67865366442E+01  0.51100000000E-03 0. -1.
        -11    1    3    3    0    0  0.34356890233E+00 -0.30412130799E+01  0.25031316605E+01  0.39538190347E+01  0.51100000000E-03 0.  1.
        -12    1    3    3    0    0 -0.28480299206E+02 -0.20913435043E+02  0.11134415484E+02  0.37046921820E+02  0.00000000000E+00 0.  1.
</event>
<event>
 7    1  0.1246400E-009  0.4778728E+02  0.7816164E-02  0.1312668E+00
        -11   -1    0    0    0    0  0.00000000000E+00  0.00000000000E+00  0.45593999997E+02  0.45594000000E+02  0.51100000000E-03 0. -1.
         11   -1    0    0    0    0 -0.00000000000E+00 -0.00000000000E+00 -0.45593999997E+02  0.45594000000E+02  0.51100000000E-03 0.  1.
    9900012    2    1    2    0    0 -0.12742606836E+02 -0.36790683877E+02 -0.19175352434E+02  0.47787278922E+02  0.20000035919E+02 0.  0.
         12    1    1    2    0    0  0.12742606836E+02  0.36790683877E+02  0.19175352434E+02  0.43400721078E+02  0.00000000000E+00 0. -1.
         11    1    3    3    0    0 -0.55280708781E+01 -0.16426178535E+01  0.70958569066E+00  0.58104451774E+01  0.51100000000E-03 0. -1.
        -11    1    3    3    0    0  0.82517887884E+00  0.81416326857E-01 -0.35936119849E+00  0.90370876528E+00  0.51100000000E-03 0.  1.
        -12    1    3    3    0    0 -0.80397148371E+01 -0.35229482350E+02 -0.19525576926E+02  0.41073124980E+02  0.00000000000E+00 0.  1.
</event>
<event>
 7    1  0.1246400E-009  0.4778727E+02  0.7816164E-02  0.1312668E+00
        -11   -1    0    0    0    0  0.00000000000E+00  0.00000000000E+00  0.45593999997E+02  0.45594000000E+02  0.51100000000E-03 0. -1.
         11   -1    0    0    0    0 -0.00000000000E+00 -0.00000000000E+00 -0.45593999997E+02  0.45594000000E+02  0.51100000000E-03 0.  1.
    9900012    2    1    2    0    0 -0.21070899088E+02  0.30639828047E+02 -0.22379498189E+02  0.47787265095E+02  0.19999972875E+02 0.  0.
         12    1    1    2    0    0  0.21070899088E+02 -0.30639828047E+02  0.22379498189E+02  0.43400734905E+02  0.00000000000E+00 0. -1.
         11    1    3    3    0    0 -0.71318455558E+01  0.22899660200E+02 -0.16572928969E+02  0.29153381162E+02  0.51100000000E-03 0. -1.
        -11    1    3    3    0    0 -0.26413075696E+00 -0.11690449323E+01 -0.11512299441E+01  0.16618549142E+01  0.51100000000E-03 0.  1.
         12    1    3    3    0    0 -0.13674922775E+02  0.89092127790E+01 -0.46553392757E+01  0.16972029019E+02  0.00000000000E+00 0. -1.
</event>
<event>
 7    1  0.1246400E-009  0.4778727E+02  0.7816164E-02  0.1312668E+00
        -11   -1    0    0    0    0  0.00000000000E+00  0.00000000000E+00  0.45593999997E+02  0.45594000000E+02  0.51100000000E-03 0.  1.
         11   -1    0    0    0    0 -0.00000000000E+00 -0.00000000000E+00 -0.45593999997E+02  0.45594000000E+02  0.51100000000E-03 0. -1.
    9900012    2    1    2    0    0  0.26427791169E+02  0.33881820902E+02  0.61005982075E+01  0.47787271525E+02  0.20000002189E+02 0.  0.
         12    1    1    2    0    0 -0.26427791169E+02 -0.33881820902E+02 -0.61005982075E+01  0.43400728475E+02  0.00000000000E+00 0. -1.
         11    1    3    3    0    0  0.29118987146E+01  0.20317424369E+01 -0.52690386037E+01  0.63537311497E+01  0.51100000000E-03 0. -1.
        -11    1    3    3    0    0  0.10806693496E+02  0.18194468083E+02  0.52885611919E+01  0.21812660839E+02  0.51100000000E-03 0.  1.
        -12    1    3    3    0    0  0.12709198958E+02  0.13655610382E+02  0.60810756192E+01  0.19620879536E+02  0.00000000000E+00 0.  1.
</event>
<event>
 7    1  0.1246400E-009  0.4778727E+02  0.7816164E-02  0.1312668E+00
        -11   -1    0    0    0    0  0.00000000000E+00  0.00000000000E+00  0.45593999997E+02  0.45594000000E+02  0.51100000000E-03 0.  1.
         11   -1    0    0    0    0 -0.00000000000E+00 -0.00000000000E+00 -0.45593999997E+02  0.45594000000E+02  0.51100000000E-03 0. -1.
    9900012    2    1    2    0    0  0.31872017239E+01  0.15274972634E+02  0.40498642892E+02  0.47787272818E+02  0.20000008088E+02 0.  0.
         12    1    1    2    0    0 -0.31872017239E+01 -0.15274972634E+02 -0.40498642892E+02  0.43400727182E+02  0.00000000000E+00 0. -1.
         11    1    3    3    0    0 -0.37405203041E+01  0.65612845840E+01  0.70374529770E+01  0.10323162897E+02  0.51100000000E-03 0. -1.
        -11    1    3    3    0    0  0.62950685086E+01  0.11567521634E+02  0.22040439337E+02  0.25675210042E+02  0.51100000000E-03 0.  1.
        -12    1    3    3    0    0  0.63265351933E+00 -0.28538335833E+01  0.11420750578E+02  0.11788899879E+02  0.00000000000E+00 0.  1.
</event>
<event>
 7    1  0.1246400E-009  0.4778727E+02  0.7816164E-02  0.1312668E+00
        -11   -1    0    0    0    0  0.00000000000E+00  0.00000000000E+00  0.45593999997E+02  0.45594000000E+02  0.51100000000E-03 0. -1.
         11   -1    0    0    0    0 -0.00000000000E+00 -0.00000000000E+00 -0.45593999997E+02  0.45594000000E+02  0.51100000000E-03 0.  1.
    9900012    2    1    2    0    0 -0.28823035382E+02 -0.43598718991E+01 -0.32153501981E+02  0.47787267964E+02  0.19999985957E+02 0.  0.
         12    1    1    2    0    0  0.28823035382E+02  0.43598718991E+01  0.32153501981E+02  0.43400732036E+02  0.00000000000E+00 0. -1.
         11    1    3    3    0    0 -0.66807446235E+01  0.61316041380E+01 -0.29592601946E+01  0.95386654827E+01  0.51100000000E-03 0.  1.
        -11    1    3    3    0    0 -0.93761857548E+01 -0.59637269688E+01 -0.14420560907E+02  0.18205259564E+02  0.51100000000E-03 0. -1.
        -12    1    3    3    0    0 -0.12766105004E+02 -0.45277490683E+01 -0.14773680879E+02  0.20043342918E+02  0.00000000000E+00 0.  1.
</event>
<event>
 7    1  0.1246400E-009  0.4778727E+02  0.7816164E-02  0.1312668E+00
        -11   -1    0    0    0    0  0.00000000000E+00  0.00000000000E+00  0.45593999997E+02  0.45594000000E+02  0.51100000000E-03 0.  1.
         11   -1    0    0    0    0 -0.00000000000E+00 -0.00000000000E+00 -0.45593999997E+02  0.45594000000E+02  0.51100000000E-03 0. -1.
    9900012    2    1    2    0    0 -0.10972716676E+02 -0.15142853256E+02  0.39165248831E+02  0.47787271527E+02  0.20000002199E+02 0.  0.
         12    1    1    2    0    0  0.10972716676E+02  0.15142853256E+02 -0.39165248831E+02  0.43400728473E+02  0.00000000000E+00 0. -1.
         11    1    3    3    0    0  0.67065176817E+00  0.33428978110E+01  0.97987268215E+00  0.35475188940E+01  0.51100000000E-03 0. -1.
        -11    1    3    3    0    0 -0.37877755448E+01 -0.69670588268E+01  0.18392388033E+02  0.20029156001E+02  0.51100000000E-03 0.  1.
         12    1    3    3    0    0 -0.78555928992E+01 -0.11518692240E+02  0.19792988116E+02  0.24210596632E+02  0.00000000000E+00 0. -1.
</event>
<event>
 7    1  0.1246400E-009  0.4778727E+02  0.7816164E-02  0.1312668E+00
        -11   -1    0    0    0    0  0.00000000000E+00  0.00000000000E+00  0.45593999997E+02  0.45594000000E+02  0.51100000000E-03 0.  1.
         11   -1    0    0    0    0 -0.00000000000E+00 -0.00000000000E+00 -0.45593999997E+02  0.45594000000E+02  0.51100000000E-03 0. -1.
    9900012    2    1    2    0    0  0.10596111428E+02 -0.38952122754E+02  0.15939815388E+02  0.47787272367E+02  0.20000006032E+02 0.  0.
         12    1    1    2    0    0 -0.10596111428E+02  0.38952122754E+02 -0.15939815388E+02  0.43400727633E+02  0.00000000000E+00 0. -1.
         11    1    3    3    0    0 -0.30550913088E+01 -0.10014315549E+02  0.23883387097E+01  0.10738913393E+02  0.51100000000E-03 0.  1.
        -11    1    3    3    0    0  0.41733034290E+01 -0.95362330447E+00  0.43497693734E+01  0.61029790087E+01  0.51100000000E-03 0. -1.
        -12    1    3    3    0    0  0.94778993081E+01 -0.27984183900E+02  0.92017073053E+01  0.30945379965E+02  0.00000000000E+00 0.  1.
</event>
<event>
 7    1  0.1246400E-009  0.4778727E+02  0.7816164E-02  0.1312668E+00
        -11   -1    0    0    0    0  0.00000000000E+00  0.00000000000E+00  0.45593999997E+02  0.45594000000E+02  0.51100000000E-03 0. -1.
         11   -1    0    0    0    0 -0.00000000000E+00 -0.00000000000E+00 -0.45593999997E+02  0.45594000000E+02  0.51100000000E-03 0.  1.
    9900012    2    1    2    0    0  0.21174081725E+02 -0.14726923267E+02 -0.34905583773E+02  0.47787265164E+02  0.19999973188E+02 0.  0.
         12    1    1    2    0    0 -0.21174081725E+02  0.14726923267E+02  0.34905583773E+02  0.43400734836E+02  0.00000000000E+00 0. -1.
         11    1    3    3    0    0  0.20404114171E+01 -0.26929501992E+01 -0.14306883216E+02  0.14700413843E+02  0.51100000000E-03 0. -1.
        -11    1    3    3    0    0  0.17497617113E+02 -0.12755943348E+02 -0.21959337558E+02  0.30839798987E+02  0.51100000000E-03 0.  1.
         12    1    3    3    0    0  0.16360531953E+01  0.72197027985E+00  0.13606370013E+01  0.22470523341E+01  0.00000000000E+00 0. -1.
</event>
<event>
 7    1  0.1246400E-009  0.4778727E+02  0.7816164E-02  0.1312668E+00
        -11   -1    0    0    0    0  0.00000000000E+00  0.00000000000E+00  0.45593999997E+02  0.45594000000E+02  0.51100000000E-03 0.  1.
         11   -1    0    0    0    0 -0.00000000000E+00 -0.00000000000E+00 -0.45593999997E+02  0.45594000000E+02  0.51100000000E-03 0. -1.
    9900012    2    1    2    0    0 -0.35418042712E+01  0.27921224918E+02  0.33037616654E+02  0.47787270828E+02  0.19999999015E+02 0.  0.
         12    1    1    2    0    0  0.35418042712E+01 -0.27921224918E+02 -0.33037616654E+02  0.43400729172E+02  0.00000000000E+00 0. -1.
         11    1    3    3    0    0 -0.48622405192E+01  0.13923786900E+02  0.39781633993E+01  0.15275438089E+02  0.51100000000E-03 0. -1.
        -11    1    3    3    0    0  0.18005717631E+01  0.26011715518E+01  0.68109548713E+01  0.75098108255E+01  0.51100000000E-03 0.  1.
         12    1    3    3    0    0 -0.48013551518E+00  0.11396266467E+02  0.22248498383E+02  0.25002021914E+02  0.00000000000E+00 0. -1.
</event>
<event>
 7    1  0.1246400E-009  0.4778727E+02  0.7816164E-02  0.1312668E+00
        -11   -1    0    0    0    0  0.00000000000E+00  0.00000000000E+00  0.45593999997E+02  0.45594000000E+02  0.51100000000E-03 0.  1.
         11   -1    0    0    0    0 -0.00000000000E+00 -0.00000000000E+00 -0.45593999997E+02  0.45594000000E+02  0.51100000000E-03 0. -1.
    9900012    2    1    2    0    0  0.39886008670E+01 -0.20243620550E+02  0.38182592527E+02  0.47787268647E+02  0.19999989071E+02 0.  0.
         12    1    1    2    0    0 -0.39886008670E+01  0.20243620550E+02 -0.38182592527E+02  0.43400731353E+02  0.00000000000E+00 0. -1.
         11    1    3    3    0    0 -0.47028780564E+00 -0.79343188122E+01  0.13604064876E+01  0.80638261208E+01  0.51100000000E-03 0. -1.
        -11    1    3    3    0    0  0.24593004984E+01 -0.19406765983E+00  0.85744501136E+01  0.89222764029E+01  0.51100000000E-03 0.  1.
         12    1    3    3    0    0  0.19995881742E+01 -0.12115234078E+02  0.28247735926E+02  0.30801166124E+02  0.00000000000E+00 0. -1.
</event>
<event>
 7    1  0.1246400E-009  0.4778727E+02  0.7816164E-02  0.1312668E+00
        -11   -1    0    0    0    0  0.00000000000E+00  0.00000000000E+00  0.45593999997E+02  0.45594000000E+02  0.51100000000E-03 0.  1.
         11   -1    0    0    0    0 -0.00000000000E+00 -0.00000000000E+00 -0.45593999997E+02  0.45594000000E+02  0.51100000000E-03 0. -1.
    9900012    2    1    2    0    0 -0.34968015860E+02  0.25125221647E+02  0.54391495563E+01  0.47787271390E+02  0.20000001575E+02 0.  0.
         12    1    1    2    0    0  0.34968015860E+02 -0.25125221647E+02 -0.54391495563E+01  0.43400728610E+02  0.00000000000E+00 0. -1.
         11    1    3    3    0    0 -0.31884628844E+02  0.15062314829E+02  0.22748539145E+01  0.35336636019E+02  0.51100000000E-03 0. -1.
        -11    1    3    3    0    0 -0.27733064814E+01  0.42853515953E+01 -0.11511469858E+01  0.52326481612E+01  0.51100000000E-03 0.  1.
         12    1    3    3    0    0 -0.31008053451E+00  0.57775552230E+01  0.43154426277E+01  0.72179872101E+01  0.00000000000E+00 0. -1.
</event>
<event>
 7    1  0.1246400E-009  0.4778728E+02  0.7816164E-02  0.1312668E+00
        -11   -1    0    0    0    0  0.00000000000E+00  0.00000000000E+00  0.45593999997E+02  0.45594000000E+02  0.51100000000E-03 0.  1.
         11   -1    0    0    0    0 -0.00000000000E+00 -0.00000000000E+00 -0.45593999997E+02  0.45594000000E+02  0.51100000000E-03 0. -1.
    9900012    2    1    2    0    0  0.16112493770E+02 -0.24661863129E+02  0.31871661061E+02  0.47787277341E+02  0.20000028708E+02 0.  0.
         12    1    1    2    0    0 -0.16112493770E+02  0.24661863129E+02 -0.31871661061E+02  0.43400722659E+02  0.00000000000E+00 0. -1.
         11    1    3    3    0    0  0.73575331467E+01 -0.12957608455E+02  0.19867036285E+02  0.24834090317E+02  0.51100000000E-03 0. -1.
        -11    1    3    3    0    0  0.38583026832E+01 -0.13727980160E+02  0.85103698330E+01  0.16606334147E+02  0.51100000000E-03 0.  1.
         12    1    3    3    0    0  0.48966579404E+01  0.20237254850E+01  0.34942549432E+01  0.63468528762E+01  0.00000000000E+00 0. -1.
</event>
<event>
 7    1  0.1246400E-009  0.4778727E+02  0.7816164E-02  0.1312668E+00
        -11   -1    0    0    0    0  0.00000000000E+00  0.00000000000E+00  0.45593999997E+02  0.45594000000E+02  0.51100000000E-03 0.  1.
         11   -1    0    0    0    0 -0.00000000000E+00 -0.00000000000E+00 -0.45593999997E+02  0.45594000000E+02  0.51100000000E-03 0. -1.
    9900012    2    1    2    0    0 -0.28251152890E+02 -0.18089127213E+01  0.32897166211E+02  0.47787270172E+02  0.19999996023E+02 0.  0.
         12    1    1    2    0    0  0.28251152890E+02  0.18089127213E+01 -0.32897166211E+02  0.43400729828E+02  0.00000000000E+00 0. -1.
         11    1    3    3    0    0 -0.13984168764E+02  0.66106014211E+01  0.15853111689E+02  0.22148999473E+02  0.51100000000E-03 0. -1.
        -11    1    3    3    0    0 -0.42864412166E+01 -0.20273847609E+01 -0.16287965268E+00  0.47445123369E+01  0.51100000000E-03 0.  1.
        -12    1    3    3    0    0 -0.99805429093E+01 -0.63921293815E+01  0.17206934175E+02  0.20893758362E+02  0.00000000000E+00 0.  1.
</event>
<event>
 7    1  0.1246400E-009  0.4778727E+02  0.7816164E-02  0.1312668E+00
        -11   -1    0    0    0    0  0.00000000000E+00  0.00000000000E+00  0.45593999997E+02  0.45594000000E+02  0.51100000000E-03 0.  1.
         11   -1    0    0    0    0 -0.00000000000E+00 -0.00000000000E+00 -0.45593999997E+02  0.45594000000E+02  0.51100000000E-03 0. -1.
    9900012    2    1    2    0    0 -0.42644305132E+02  0.27546381566E+01  0.75827668546E+01  0.47787272532E+02  0.20000006781E+02 0.  0.
         12    1    1    2    0    0  0.42644305132E+02 -0.27546381566E+01 -0.75827668546E+01  0.43400727468E+02  0.00000000000E+00 0. -1.
         11    1    3    3    0    0 -0.15690981500E+02 -0.19753511073E+01  0.50336865919E+01  0.16596593428E+02  0.51100000000E-03 0.  1.
        -11    1    3    3    0    0 -0.22972886347E+02 -0.16204672854E+01 -0.65601691564E+00  0.23039309447E+02  0.51100000000E-03 0. -1.
         12    1    3    3    0    0 -0.39804372854E+01  0.63504565493E+01  0.32050971784E+01  0.81513696573E+01  0.00000000000E+00 0. -1.
</event>
<event>
 7    1  0.1246400E-009  0.4778727E+02  0.7816164E-02  0.1312668E+00
        -11   -1    0    0    0    0  0.00000000000E+00  0.00000000000E+00  0.45593999997E+02  0.45594000000E+02  0.51100000000E-03 0.  1.
         11   -1    0    0    0    0 -0.00000000000E+00 -0.00000000000E+00 -0.45593999997E+02  0.45594000000E+02  0.51100000000E-03 0. -1.
    9900012    2    1    2    0    0  0.15909752194E+02  0.13057910320E+02  0.38209868555E+02  0.47787270838E+02  0.19999999060E+02 0.  0.
         12    1    1    2    0    0 -0.15909752194E+02 -0.13057910320E+02 -0.38209868555E+02  0.43400729162E+02  0.00000000000E+00 0. -1.
         11    1    3    3    0    0  0.11031416994E+01  0.22416608036E+01 -0.29474811035E+00  0.25157188787E+01  0.51100000000E-03 0. -1.
        -11    1    3    3    0    0 -0.21444270255E+01  0.13405487379E+01  0.47877693257E+00  0.25738814655E+01  0.51100000000E-03 0.  1.
        -12    1    3    3    0    0  0.16951037520E+02  0.94757007785E+01  0.38025839732E+02  0.42697670494E+02  0.00000000000E+00 0.  1.
</event>
<event>
 7    1  0.1246400E-009  0.4778727E+02  0.7816164E-02  0.1312668E+00
        -11   -1    0    0    0    0  0.00000000000E+00  0.00000000000E+00  0.45593999997E+02  0.45594000000E+02  0.51100000000E-03 0.  1.
         11   -1    0    0    0    0 -0.00000000000E+00 -0.00000000000E+00 -0.45593999997E+02  0.45594000000E+02  0.51100000000E-03 0. -1.
    9900012    2    1    2    0    0 -0.19741129460E+02  0.32063774637E+02  0.21583000460E+02  0.47787265615E+02  0.19999975244E+02 0.  0.
         12    1    1    2    0    0  0.19741129460E+02 -0.32063774637E+02 -0.21583000460E+02  0.43400734385E+02  0.00000000000E+00 0. -1.
         11    1    3    3    0    0 -0.10208789415E+02  0.40519139466E+01  0.59136635518E+01  0.12474325826E+02  0.51100000000E-03 0. -1.
        -11    1    3    3    0    0 -0.11549259945E+02  0.20750993332E+02  0.14089064180E+02  0.27613237030E+02  0.51100000000E-03 0.  1.
         12    1    3    3    0    0  0.20169198999E+01  0.72608673585E+01  0.15802727274E+01  0.76997027588E+01  0.00000000000E+00 0. -1.
</event>
<event>
 7    1  0.1246400E-009  0.4778727E+02  0.7816164E-02  0.1312668E+00
        -11   -1    0    0    0    0  0.00000000000E+00  0.00000000000E+00  0.45593999997E+02  0.45594000000E+02  0.51100000000E-03 0.  1.
         11   -1    0    0    0    0 -0.00000000000E+00 -0.00000000000E+00 -0.45593999997E+02  0.45594000000E+02  0.51100000000E-03 0. -1.
    9900012    2    1    2    0    0 -0.35579573208E+01 -0.25662560954E+02  0.34819498557E+02  0.47787267578E+02  0.19999984194E+02 0.  0.
         12    1    1    2    0    0  0.35579573208E+01  0.25662560954E+02 -0.34819498557E+02  0.43400732422E+02  0.00000000000E+00 0. -1.
         11    1    3    3    0    0 -0.20305579254E+01 -0.62803529435E+01  0.16174115635E+02  0.17469058802E+02  0.51100000000E-03 0. -1.
        -11    1    3    3    0    0  0.57560110704E+01 -0.11287027559E+02  0.74386872682E+01  0.14692267460E+02  0.51100000000E-03 0.  1.
         12    1    3    3    0    0 -0.72834104658E+01 -0.80951804515E+01  0.11206695654E+02  0.15625941317E+02  0.00000000000E+00 0. -1.
</event>
<event>
 7    1  0.1246400E-009  0.4778727E+02  0.7816164E-02  0.1312668E+00
        -11   -1    0    0    0    0  0.00000000000E+00  0.00000000000E+00  0.45593999997E+02  0.45594000000E+02  0.51100000000E-03 0.  1.
         11   -1    0    0    0    0 -0.00000000000E+00 -0.00000000000E+00 -0.45593999997E+02  0.45594000000E+02  0.51100000000E-03 0. -1.
    9900012    2    1    2    0    0  0.21793230278E+02  0.23548286654E+02  0.29225958863E+02  0.47787270032E+02  0.19999995385E+02 0.  0.
         12    1    1    2    0    0 -0.21793230278E+02 -0.23548286654E+02 -0.29225958863E+02  0.43400729968E+02  0.00000000000E+00 0. -1.
         11    1    3    3    0    0 -0.29753722588E+01  0.15078412405E+01  0.35149410103E+01  0.48457440968E+01  0.51100000000E-03 0. -1.
        -11    1    3    3    0    0  0.11204187934E+02  0.89819475178E+01  0.16829401979E+02  0.22123245235E+02  0.51100000000E-03 0.  1.
        -12    1    3    3    0    0  0.13564414603E+02  0.13058497896E+02  0.88816158729E+01  0.20818280701E+02  0.00000000000E+00 0.  1.
</event>
<event>
 7    1  0.1246400E-009  0.4778728E+02  0.7816164E-02  0.1312668E+00
        -11   -1    0    0    0    0  0.00000000000E+00  0.00000000000E+00  0.45593999997E+02  0.45594000000E+02  0.51100000000E-03 0.  1.
         11   -1    0    0    0    0 -0.00000000000E+00 -0.00000000000E+00 -0.45593999997E+02  0.45594000000E+02  0.51100000000E-03 0. -1.
    9900012    2    1    2    0    0  0.30012512111E+02 -0.27428946321E+02  0.15183043902E+02  0.47787276485E+02  0.20000024804E+02 0.  0.
         12    1    1    2    0    0 -0.30012512111E+02  0.27428946321E+02 -0.15183043902E+02  0.43400723515E+02  0.00000000000E+00 0. -1.
         11    1    3    3    0    0  0.95121281043E+01 -0.77548961972E+01 -0.16028703960E+01  0.12376921664E+02  0.51100000000E-03 0. -1.
        -11    1    3    3    0    0  0.22134238306E+02 -0.17474540329E+02  0.13933476661E+02  0.31455140076E+02  0.51100000000E-03 0.  1.
         12    1    3    3    0    0 -0.16338542986E+01 -0.21995097951E+01  0.28524376365E+01  0.39552147449E+01  0.00000000000E+00 0. -1.
</event>
<event>
 7    1  0.1246400E-009  0.4778727E+02  0.7816164E-02  0.1312668E+00
        -11   -1    0    0    0    0  0.00000000000E+00  0.00000000000E+00  0.45593999997E+02  0.45594000000E+02  0.51100000000E-03 0.  1.
         11   -1    0    0    0    0 -0.00000000000E+00 -0.00000000000E+00 -0.45593999997E+02  0.45594000000E+02  0.51100000000E-03 0. -1.
    9900012    2    1    2    0    0  0.18024984044E+02  0.19225912009E+02  0.34483147241E+02  0.47787272056E+02  0.20000004614E+02 0.  0.
         12    1    1    2    0    0 -0.18024984044E+02 -0.19225912009E+02 -0.34483147241E+02  0.43400727944E+02  0.00000000000E+00 0. -1.
         11    1    3    3    0    0 -0.14032693112E+01  0.11205263202E+02  0.10915327039E+02  0.15705777689E+02  0.51100000000E-03 0. -1.
        -11    1    3    3    0    0  0.81165085165E+01  0.52424065753E+01  0.74780688289E+01  0.12218103407E+02  0.51100000000E-03 0.  1.
         12    1    3    3    0    0  0.11311744839E+02  0.27782422323E+01  0.16089751373E+02  0.19863390961E+02  0.00000000000E+00 0. -1.
</event>
<event>
 7    1  0.1246400E-009  0.4778728E+02  0.7816164E-02  0.1312668E+00
        -11   -1    0    0    0    0  0.00000000000E+00  0.00000000000E+00  0.45593999997E+02  0.45594000000E+02  0.51100000000E-03 0.  1.
         11   -1    0    0    0    0 -0.00000000000E+00 -0.00000000000E+00 -0.45593999997E+02  0.45594000000E+02  0.51100000000E-03 0. -1.
    9900012    2    1    2    0    0  0.17710248395E+02 -0.29361646971E+02  0.26605703936E+02  0.47787277737E+02  0.20000030514E+02 0.  0.
         12    1    1    2    0    0 -0.17710248395E+02  0.29361646971E+02 -0.26605703936E+02  0.43400722263E+02  0.00000000000E+00 0. -1.
         11    1    3    3    0    0  0.14766837905E+02 -0.10780727489E+02  0.76537430992E+01  0.19820781281E+02  0.51100000000E-03 0. -1.
        -11    1    3    3    0    0  0.45174990531E+01 -0.15535803121E+02  0.11767231163E+02  0.20005916771E+02  0.51100000000E-03 0.  1.
        -12    1    3    3    0    0 -0.15740885629E+01 -0.30451163600E+01  0.71847296734E+01  0.79605796855E+01  0.00000000000E+00 0.  1.
</event>
<event>
 7    1  0.1246400E-009  0.4778727E+02  0.7816164E-02  0.1312668E+00
        -11   -1    0    0    0    0  0.00000000000E+00  0.00000000000E+00  0.45593999997E+02  0.45594000000E+02  0.51100000000E-03 0. -1.
         11   -1    0    0    0    0 -0.00000000000E+00 -0.00000000000E+00 -0.45593999997E+02  0.45594000000E+02  0.51100000000E-03 0.  1.
    9900012    2    1    2    0    0 -0.19471444257E+02  0.37437533776E+02 -0.10144815484E+02  0.47787270077E+02  0.19999995588E+02 0.  0.
         12    1    1    2    0    0  0.19471444257E+02 -0.37437533776E+02  0.10144815484E+02  0.43400729923E+02  0.00000000000E+00 0. -1.
         11    1    3    3    0    0 -0.19106495121E+01  0.16769795642E+02 -0.34315003834E+00  0.16881776555E+02  0.51100000000E-03 0. -1.
        -11    1    3    3    0    0 -0.82146782406E+01  0.15552365537E+02 -0.10032315938E+02  0.20248564782E+02  0.51100000000E-03 0.  1.
         12    1    3    3    0    0 -0.93461165044E+01  0.51153725967E+01  0.23065049236E+00  0.10656928740E+02  0.00000000000E+00 0. -1.
</event>
<event>
 7    1  0.1246400E-009  0.4778727E+02  0.7816164E-02  0.1312668E+00
        -11   -1    0    0    0    0  0.00000000000E+00  0.00000000000E+00  0.45593999997E+02  0.45594000000E+02  0.51100000000E-03 0.  1.
         11   -1    0    0    0    0 -0.00000000000E+00 -0.00000000000E+00 -0.45593999997E+02  0.45594000000E+02  0.51100000000E-03 0. -1.
    9900012    2    1    2    0    0 -0.19992789131E+02  0.36348992524E+02  0.12753931887E+02  0.47787266673E+02  0.19999980070E+02 0.  0.
         12    1    1    2    0    0  0.19992789131E+02 -0.36348992524E+02 -0.12753931887E+02  0.43400733327E+02  0.00000000000E+00 0. -1.
         11    1    3    3    0    0 -0.62644879090E+01  0.47072153739E+01 -0.31966280564E+01  0.84628669215E+01  0.51100000000E-03 0. -1.
        -11    1    3    3    0    0 -0.67327449889E+00  0.20178412759E+01 -0.14470125886E+01  0.25727082342E+01  0.51100000000E-03 0.  1.
        -12    1    3    3    0    0 -0.13055026724E+02  0.29623935874E+02  0.17397572532E+02  0.36751691518E+02  0.00000000000E+00 0.  1.
</event>
<event>
 7    1  0.1246400E-009  0.4778727E+02  0.7816164E-02  0.1312668E+00
        -11   -1    0    0    0    0  0.00000000000E+00  0.00000000000E+00  0.45593999997E+02  0.45594000000E+02  0.51100000000E-03 0.  1.
         11   -1    0    0    0    0 -0.00000000000E+00 -0.00000000000E+00 -0.45593999997E+02  0.45594000000E+02  0.51100000000E-03 0. -1.
    9900012    2    1    2    0    0 -0.18266106830E+02  0.36350682740E+02  0.15119540935E+02  0.47787270600E+02  0.19999997974E+02 0.  0.
         12    1    1    2    0    0  0.18266106830E+02 -0.36350682740E+02 -0.15119540935E+02  0.43400729400E+02  0.00000000000E+00 0. -1.
         11    1    3    3    0    0 -0.10094086324E+02  0.67727075857E+01  0.85680271057E+01  0.14871826905E+02  0.51100000000E-03 0. -1.
        -11    1    3    3    0    0  0.35183559723E+00 -0.68703932825E+00  0.42682701524E+00  0.88203905134E+00  0.51100000000E-03 0.  1.
        -12    1    3    3    0    0 -0.85238561033E+01  0.30265014483E+02  0.61246868139E+01  0.32033404644E+02  0.00000000000E+00 0.  1.
</event>
<event>
 7    1  0.1246400E-009  0.4778727E+02  0.7816164E-02  0.1312668E+00
        -11   -1    0    0    0    0  0.00000000000E+00  0.00000000000E+00  0.45593999997E+02  0.45594000000E+02  0.51100000000E-03 0.  1.
         11   -1    0    0    0    0 -0.00000000000E+00 -0.00000000000E+00 -0.45593999997E+02  0.45594000000E+02  0.51100000000E-03 0. -1.
    9900012    2    1    2    0    0  0.11125044042E+02 -0.40872998232E+02  0.94474807821E+01  0.47787268640E+02  0.19999989037E+02 0.  0.
         12    1    1    2    0    0 -0.11125044042E+02  0.40872998232E+02 -0.94474807821E+01  0.43400731360E+02  0.00000000000E+00 0. -1.
         11    1    3    3    0    0  0.25311357538E+01 -0.12743535368E+02  0.53647767565E+01  0.14056499272E+02  0.51100000000E-03 0.  1.
        -11    1    3    3    0    0  0.74285332677E+01 -0.14795295005E+02  0.97301854697E+01  0.19203134389E+02  0.51100000000E-03 0. -1.
        -12    1    3    3    0    0  0.11653750209E+01 -0.13334167859E+02 -0.56474814441E+01  0.14527634979E+02  0.00000000000E+00 0.  1.
</event>
<event>
 7    1  0.1246400E-009  0.4778727E+02  0.7816164E-02  0.1312668E+00
        -11   -1    0    0    0    0  0.00000000000E+00  0.00000000000E+00  0.45593999997E+02  0.45594000000E+02  0.51100000000E-03 0. -1.
         11   -1    0    0    0    0 -0.00000000000E+00 -0.00000000000E+00 -0.45593999997E+02  0.45594000000E+02  0.51100000000E-03 0.  1.
    9900012    2    1    2    0    0  0.96272406459E+01 -0.42317811111E+02 -0.37790479551E+00  0.47787266000E+02  0.19999977001E+02 0.  0.
         12    1    1    2    0    0 -0.96272406459E+01  0.42317811111E+02  0.37790479551E+00  0.43400734000E+02  0.00000000000E+00 0. -1.
         11    1    3    3    0    0  0.89452509196E+01 -0.64601328257E+01 -0.24980680392E+00  0.11036903272E+02  0.51100000000E-03 0. -1.
        -11    1    3    3    0    0 -0.30728535815E+00 -0.14697989290E+02  0.38506615636E+01  0.15197134868E+02  0.51100000000E-03 0.  1.
        -12    1    3    3    0    0  0.98927508453E+00 -0.21159688995E+02 -0.39787595552E+01  0.21553227860E+02  0.00000000000E+00 0.  1.
</event>
<event>
 7    1  0.1246400E-009  0.4778723E+02  0.7816164E-02  0.1312668E+00
        -11   -1    0    0    0    0  0.00000000000E+00  0.00000000000E+00  0.45593999997E+02  0.45594000000E+02  0.51100000000E-03 0. -1.
         11   -1    0    0    0    0 -0.00000000000E+00 -0.00000000000E+00 -0.45593999997E+02  0.45594000000E+02  0.51100000000E-03 0.  1.
    9900012    2    1    2    0    0  0.22484150101E+02  0.32075155402E+02 -0.18688868756E+02  0.47787234855E+02  0.19999834996E+02 0.  0.
         12    1    1    2    0    0 -0.22484150101E+02 -0.32075155402E+02  0.18688868756E+02  0.43400765145E+02  0.00000000000E+00 0. -1.
         11    1    3    3    0    0  0.26229805993E+01  0.82786849603E+01 -0.16987423504E+01  0.88488630755E+01  0.51100000000E-03 0.  1.
        -11    1    3    3    0    0 -0.26946580948E+00  0.10287645385E+02 -0.21488341611E+01  0.10513122652E+02  0.51100000000E-03 0. -1.
         12    1    3    3    0    0  0.20130635311E+02  0.13508825057E+02 -0.14841292245E+02  0.28425249127E+02  0.00000000000E+00 0. -1.
</event>
<event>
 7    1  0.1246400E-009  0.4778727E+02  0.7816164E-02  0.1312668E+00
        -11   -1    0    0    0    0  0.00000000000E+00  0.00000000000E+00  0.45593999997E+02  0.45594000000E+02  0.51100000000E-03 0.  1.
         11   -1    0    0    0    0 -0.00000000000E+00 -0.00000000000E+00 -0.45593999997E+02  0.45594000000E+02  0.51100000000E-03 0. -1.
    9900012    2    1    2    0    0  0.40297290483E+02 -0.17215051894E+01  0.16024603984E+02  0.47787272664E+02  0.20000007385E+02 0.  0.
         12    1    1    2    0    0 -0.40297290483E+02  0.17215051894E+01 -0.16024603984E+02  0.43400727336E+02  0.00000000000E+00 0. -1.
         11    1    3    3    0    0  0.48170728492E+01 -0.37484196045E+01  0.44929067886E+01  0.75789875339E+01  0.51100000000E-03 0.  1.
        -11    1    3    3    0    0  0.67712716239E+01  0.52974104379E+01 -0.11111675174E+01  0.86687582885E+01  0.51100000000E-03 0. -1.
         12    1    3    3    0    0  0.28708946010E+02 -0.32704960228E+01  0.12642864713E+02  0.31539526842E+02  0.00000000000E+00 0. -1.
</event>
<event>
 7    1  0.1246400E-009  0.4778727E+02  0.7816164E-02  0.1312668E+00
        -11   -1    0    0    0    0  0.00000000000E+00  0.00000000000E+00  0.45593999997E+02  0.45594000000E+02  0.51100000000E-03 0. -1.
         11   -1    0    0    0    0 -0.00000000000E+00 -0.00000000000E+00 -0.45593999997E+02  0.45594000000E+02  0.51100000000E-03 0.  1.
    9900012    2    1    2    0    0  0.10732443646E+02  0.28168446494E+02 -0.31224615921E+02  0.47787270007E+02  0.19999995270E+02 0.  0.
         12    1    1    2    0    0 -0.10732443646E+02 -0.28168446494E+02  0.31224615921E+02  0.43400729993E+02  0.00000000000E+00 0. -1.
         11    1    3    3    0    0 -0.25677674061E+01  0.89163217811E+00 -0.90534565256E+00  0.28649761612E+01  0.51100000000E-03 0. -1.
        -11    1    3    3    0    0  0.77703716001E+01  0.26380969496E+02 -0.24293430506E+02  0.36694754289E+02  0.51100000000E-03 0.  1.
         12    1    3    3    0    0  0.55298394521E+01  0.89584481999E+00 -0.60258397630E+01  0.82275395567E+01  0.00000000000E+00 0. -1.
</event>
<event>
 7    1  0.1246400E-009  0.4778726E+02  0.7816164E-02  0.1312668E+00
        -11   -1    0    0    0    0  0.00000000000E+00  0.00000000000E+00  0.45593999997E+02  0.45594000000E+02  0.51100000000E-03 0. -1.
         11   -1    0    0    0    0 -0.00000000000E+00 -0.00000000000E+00 -0.45593999997E+02  0.45594000000E+02  0.51100000000E-03 0.  1.
    9900012    2    1    2    0    0 -0.19454722617E+02  0.70266213210E+01 -0.38154479675E+02  0.47787263157E+02  0.19999964036E+02 0.  0.
         12    1    1    2    0    0  0.19454722617E+02 -0.70266213210E+01  0.38154479675E+02  0.43400736843E+02  0.00000000000E+00 0. -1.
         11    1    3    3    0    0 -0.87563531947E+01  0.90638686313E+01 -0.32022357683E+02  0.34413061876E+02  0.51100000000E-03 0. -1.
        -11    1    3    3    0    0 -0.55372023017E+01 -0.32686508123E+01 -0.44050228937E+01  0.77941589936E+01  0.51100000000E-03 0.  1.
         12    1    3    3    0    0 -0.51611671205E+01  0.12314035020E+01 -0.17270990980E+01  0.55800422870E+01  0.00000000000E+00 0. -1.
</event>
<event>
 7    1  0.1246400E-009  0.4778727E+02  0.7816164E-02  0.1312668E+00
        -11   -1    0    0    0    0  0.00000000000E+00  0.00000000000E+00  0.45593999997E+02  0.45594000000E+02  0.51100000000E-03 0.  1.
         11   -1    0    0    0    0 -0.00000000000E+00 -0.00000000000E+00 -0.45593999997E+02  0.45594000000E+02  0.51100000000E-03 0. -1.
    9900012    2    1    2    0    0  0.15387854520E+02  0.10401724741E+02  0.39225515317E+02  0.47787274244E+02  0.20000014587E+02 0.  0.
         12    1    1    2    0    0 -0.15387854520E+02 -0.10401724741E+02 -0.39225515317E+02  0.43400725756E+02  0.00000000000E+00 0. -1.
         11    1    3    3    0    0  0.27310648574E+01  0.18892305913E+01  0.23273076503E+02  0.23508806810E+02  0.51100000000E-03 0. -1.
        -11    1    3    3    0    0  0.14185177909E+02  0.61056676343E+01  0.13209396243E+02  0.20322071718E+02  0.51100000000E-03 0.  1.
         12    1    3    3    0    0 -0.15283882461E+01  0.24068265152E+01  0.27430425713E+01  0.39563957149E+01  0.00000000000E+00 0. -1.
</event>
<event>
 7    1  0.1246400E-009  0.4778728E+02  0.7816164E-02  0.1312668E+00
        -11   -1    0    0    0    0  0.00000000000E+00  0.00000000000E+00  0.45593999997E+02  0.45594000000E+02  0.51100000000E-03 0. -1.
         11   -1    0    0    0    0 -0.00000000000E+00 -0.00000000000E+00 -0.45593999997E+02  0.45594000000E+02  0.51100000000E-03 0.  1.
    9900012    2    1    2    0    0 -0.17555640767E+01  0.26995685213E+02 -0.33937784020E+02  0.47787283307E+02  0.20000055908E+02 0.  0.
         12    1    1    2    0    0  0.17555640767E+01 -0.26995685213E+02  0.33937784020E+02  0.43400716693E+02  0.00000000000E+00 0. -1.
         11    1    3    3    0    0  0.24361672284E+01  0.63430413563E+00 -0.59727126763E+01  0.64815545570E+01  0.51100000000E-03 0. -1.
        -11    1    3    3    0    0 -0.13021018643E+01  0.21965814312E+02 -0.13266461240E+02  0.25694191206E+02  0.51100000000E-03 0.  1.
        -12    1    3    3    0    0 -0.28896294408E+01  0.43955667654E+01 -0.14698610104E+02  0.15611537544E+02  0.00000000000E+00 0.  1.
</event>
<event>
 7    1  0.1246400E-009  0.4778727E+02  0.7816164E-02  0.1312668E+00
        -11   -1    0    0    0    0  0.00000000000E+00  0.00000000000E+00  0.45593999997E+02  0.45594000000E+02  0.51100000000E-03 0.  1.
         11   -1    0    0    0    0 -0.00000000000E+00 -0.00000000000E+00 -0.45593999997E+02  0.45594000000E+02  0.51100000000E-03 0. -1.
    9900012    2    1    2    0    0 -0.17963665574E+02 -0.18372556199E+02  0.34976834851E+02  0.47787273297E+02  0.20000010270E+02 0.  0.
         12    1    1    2    0    0  0.17963665574E+02  0.18372556199E+02 -0.34976834851E+02  0.43400726703E+02  0.00000000000E+00 0. -1.
         11    1    3    3    0    0  0.28120074597E+01 -0.84880540366E+01  0.93346659586E+01  0.12926346588E+02  0.51100000000E-03 0. -1.
        -11    1    3    3    0    0 -0.87978206416E+01 -0.25141307635E+01  0.13335866311E+02  0.16173058835E+02  0.51100000000E-03 0.  1.
        -12    1    3    3    0    0 -0.11977852392E+02 -0.73703713988E+01  0.12306302581E+02  0.18687867875E+02  0.00000000000E+00 0.  1.
</event>
<event>
 7    1  0.1246400E-009  0.4778727E+02  0.7816164E-02  0.1312668E+00
        -11   -1    0    0    0    0  0.00000000000E+00  0.00000000000E+00  0.45593999997E+02  0.45594000000E+02  0.51100000000E-03 0.  1.
         11   -1    0    0    0    0 -0.00000000000E+00 -0.00000000000E+00 -0.45593999997E+02  0.45594000000E+02  0.51100000000E-03 0. -1.
    9900012    2    1    2    0    0  0.11239392465E+02  0.14624800156E+02  0.39286313135E+02  0.47787272791E+02  0.20000007962E+02 0.  0.
         12    1    1    2    0    0 -0.11239392465E+02 -0.14624800156E+02 -0.39286313135E+02  0.43400727209E+02  0.00000000000E+00 0. -1.
         11    1    3    3    0    0  0.78885083484E+01  0.14043758638E+02  0.15141005826E+02  0.22106690805E+02  0.51100000000E-03 0. -1.
        -11    1    3    3    0    0  0.56377658897E-01 -0.25160675109E+01  0.24260742201E+01  0.34956559531E+01  0.51100000000E-03 0.  1.
        -12    1    3    3    0    0  0.32945064573E+01  0.30971090286E+01  0.21719233088E+02  0.22184926033E+02  0.00000000000E+00 0.  1.
</event>
<event>
 7    1  0.1246400E-009  0.4778725E+02  0.7816164E-02  0.1312668E+00
        -11   -1    0    0    0    0  0.00000000000E+00  0.00000000000E+00  0.45593999997E+02  0.45594000000E+02  0.51100000000E-03 0. -1.
         11   -1    0    0    0    0 -0.00000000000E+00 -0.00000000000E+00 -0.45593999997E+02  0.45594000000E+02  0.51100000000E-03 0.  1.
    9900012    2    1    2    0    0  0.23668092717E+02 -0.31061562129E+02 -0.18937419629E+02  0.47787249811E+02  0.19999903190E+02 0.  0.
         12    1    1    2    0    0 -0.23668092717E+02  0.31061562129E+02  0.18937419629E+02  0.43400750189E+02  0.00000000000E+00 0. -1.
         11    1    3    3    0    0 -0.17282668639E+01 -0.11609502795E+01 -0.34460884629E+01  0.40261939669E+01  0.51100000000E-03 0. -1.
        -11    1    3    3    0    0  0.14953024529E+02 -0.23904171851E+02 -0.70775378043E+01  0.29070499068E+02  0.51100000000E-03 0.  1.
         12    1    3    3    0    0  0.10443335052E+02 -0.59964399983E+01 -0.84137933617E+01  0.14690556776E+02  0.00000000000E+00 0. -1.
</event>
<event>
 7    1  0.1246400E-009  0.4778726E+02  0.7816164E-02  0.1312668E+00
        -11   -1    0    0    0    0  0.00000000000E+00  0.00000000000E+00  0.45593999997E+02  0.45594000000E+02  0.51100000000E-03 0. -1.
         11   -1    0    0    0    0 -0.00000000000E+00 -0.00000000000E+00 -0.45593999997E+02  0.45594000000E+02  0.51100000000E-03 0.  1.
    9900012    2    1    2    0    0  0.40384038911E+02  0.22613991213E+01 -0.15736570698E+02  0.47787260582E+02  0.19999952296E+02 0.  0.
         12    1    1    2    0    0 -0.40384038911E+02 -0.22613991213E+01  0.15736570698E+02  0.43400739418E+02  0.00000000000E+00 0. -1.
         11    1    3    3    0    0  0.51226074571E+01  0.32194007771E+01  0.12544989480E+01  0.61789494572E+01  0.51100000000E-03 0. -1.
        -11    1    3    3    0    0  0.79108552858E+01  0.55116654077E+01 -0.64062636520E+01  0.11575849911E+02  0.51100000000E-03 0.  1.
         12    1    3    3    0    0  0.27350576168E+02 -0.64696670635E+01 -0.10584805994E+02  0.30032461214E+02  0.00000000000E+00 0. -1.
</event>
<event>
 7    1  0.1246400E-009  0.4778727E+02  0.7816164E-02  0.1312668E+00
        -11   -1    0    0    0    0  0.00000000000E+00  0.00000000000E+00  0.45593999997E+02  0.45594000000E+02  0.51100000000E-03 0.  1.
         11   -1    0    0    0    0 -0.00000000000E+00 -0.00000000000E+00 -0.45593999997E+02  0.45594000000E+02  0.51100000000E-03 0. -1.
    9900012    2    1    2    0    0  0.20688625234E+02 -0.71952507581E-02  0.38152377388E+02  0.47787272284E+02  0.20000005654E+02 0.  0.
         12    1    1    2    0    0 -0.20688625234E+02  0.71952507581E-02 -0.38152377388E+02  0.43400727716E+02  0.00000000000E+00 0. -1.
         11    1    3    3    0    0  0.10223786754E+02 -0.73103493064E+01  0.25805835003E+02  0.28703800150E+02  0.51100000000E-03 0. -1.
        -11    1    3    3    0    0  0.70119860248E+00  0.32391096798E+01  0.56974871247E+01  0.65912723199E+01  0.51100000000E-03 0.  1.
         12    1    3    3    0    0  0.97636398778E+01  0.40640443759E+01  0.66490552606E+01  0.12492199815E+02  0.00000000000E+00 0. -1.
</event>
<event>
 7    1  0.1246400E-009  0.4778727E+02  0.7816164E-02  0.1312668E+00
        -11   -1    0    0    0    0  0.00000000000E+00  0.00000000000E+00  0.45593999997E+02  0.45594000000E+02  0.51100000000E-03 0.  1.
         11   -1    0    0    0    0 -0.00000000000E+00 -0.00000000000E+00 -0.45593999997E+02  0.45594000000E+02  0.51100000000E-03 0. -1.
    9900012    2    1    2    0    0  0.11369333044E+02 -0.40990946139E+02  0.86083513231E+01  0.47787272912E+02  0.20000008516E+02 0.  0.
         12    1    1    2    0    0 -0.11369333044E+02  0.40990946139E+02 -0.86083513231E+01  0.43400727088E+02  0.00000000000E+00 0. -1.
         11    1    3    3    0    0  0.36181141188E+01 -0.40755151072E+00 -0.36425832359E+00  0.36591709988E+01  0.51100000000E-03 0. -1.
        -11    1    3    3    0    0  0.10218444203E+02 -0.36623236983E+02  0.57425005226E+01  0.38453275564E+02  0.51100000000E-03 0.  1.
         12    1    3    3    0    0 -0.24672252777E+01 -0.39601576452E+01  0.32301091241E+01  0.56748263498E+01  0.00000000000E+00 0. -1.
</event>
<event>
 7    1  0.1246400E-009  0.4778727E+02  0.7816164E-02  0.1312668E+00
        -11   -1    0    0    0    0  0.00000000000E+00  0.00000000000E+00  0.45593999997E+02  0.45594000000E+02  0.51100000000E-03 0.  1.
         11   -1    0    0    0    0 -0.00000000000E+00 -0.00000000000E+00 -0.45593999997E+02  0.45594000000E+02  0.51100000000E-03 0. -1.
    9900012    2    1    2    0    0 -0.19028604177E+02 -0.29509260253E+02  0.25509583486E+02  0.47787273425E+02  0.20000010855E+02 0.  0.
         12    1    1    2    0    0  0.19028604177E+02  0.29509260253E+02 -0.25509583486E+02  0.43400726575E+02  0.00000000000E+00 0. -1.
         11    1    3    3    0    0 -0.33689828333E+01 -0.99628136981E+01  0.11118363232E+01  0.10575626808E+02  0.51100000000E-03 0. -1.
        -11    1    3    3    0    0 -0.15800499476E+02 -0.13902964852E+02  0.13690425340E+02  0.25107289013E+02  0.51100000000E-03 0.  1.
         12    1    3    3    0    0  0.14087813252E+00 -0.56434817031E+01  0.10707321823E+02  0.12104357604E+02  0.00000000000E+00 0. -1.
</event>
<event>
 7    1  0.1246400E-009  0.4778727E+02  0.7816164E-02  0.1312668E+00
        -11   -1    0    0    0    0  0.00000000000E+00  0.00000000000E+00  0.45593999997E+02  0.45594000000E+02  0.51100000000E-03 0.  1.
         11   -1    0    0    0    0 -0.00000000000E+00 -0.00000000000E+00 -0.45593999997E+02  0.45594000000E+02  0.51100000000E-03 0. -1.
    9900012    2    1    2    0    0  0.40096674740E+02  0.11984496487E+02 -0.11500082668E+02  0.47787269792E+02  0.19999994289E+02 0.  0.
         12    1    1    2    0    0 -0.40096674740E+02 -0.11984496487E+02  0.11500082668E+02  0.43400730208E+02  0.00000000000E+00 0. -1.
         11    1    3    3    0    0  0.94056116730E+01  0.73078957198E+01 -0.46208972887E+01  0.12775897730E+02  0.51100000000E-03 0. -1.
        -11    1    3    3    0    0  0.16230911363E+02  0.93076969701E+01 -0.10253802339E+01  0.18738386042E+02  0.51100000000E-03 0.  1.
         12    1    3    3    0    0  0.14460151703E+02 -0.46310962029E+01 -0.58538051456E+01  0.16272986020E+02  0.00000000000E+00 0. -1.
</event>
<event>
 7    1  0.1246400E-009  0.4778727E+02  0.7816164E-02  0.1312668E+00
        -11   -1    0    0    0    0  0.00000000000E+00  0.00000000000E+00  0.45593999997E+02  0.45594000000E+02  0.51100000000E-03 0. -1.
         11   -1    0    0    0    0 -0.00000000000E+00 -0.00000000000E+00 -0.45593999997E+02  0.45594000000E+02  0.51100000000E-03 0.  1.
    9900012    2    1    2    0    0  0.18770584976E+02 -0.37505421100E+02 -0.11163867283E+02  0.47787269534E+02  0.19999993115E+02 0.  0.
         12    1    1    2    0    0 -0.18770584976E+02  0.37505421100E+02  0.11163867283E+02  0.43400730466E+02  0.00000000000E+00 0. -1.
         11    1    3    3    0    0 -0.11483361155E+01 -0.71949542386E+01 -0.25909697309E+01  0.77329920948E+01  0.51100000000E-03 0. -1.
        -11    1    3    3    0    0  0.14395075687E+02 -0.21841999387E+02  0.93439998968E+00  0.26175642205E+02  0.51100000000E-03 0.  1.
        -12    1    3    3    0    0  0.55238454036E+01 -0.84684674746E+01 -0.95072975419E+01  0.13878635234E+02  0.00000000000E+00 0.  1.
</event>
<event>
 7    1  0.1246400E-009  0.4778728E+02  0.7816164E-02  0.1312668E+00
        -11   -1    0    0    0    0  0.00000000000E+00  0.00000000000E+00  0.45593999997E+02  0.45594000000E+02  0.51100000000E-03 0.  1.
         11   -1    0    0    0    0 -0.00000000000E+00 -0.00000000000E+00 -0.45593999997E+02  0.45594000000E+02  0.51100000000E-03 0. -1.
    9900012    2    1    2    0    0  0.31221305036E+02 -0.14637114982E+02  0.26355405852E+02  0.47787280642E+02  0.20000043760E+02 0.  0.
         12    1    1    2    0    0 -0.31221305036E+02  0.14637114982E+02 -0.26355405852E+02  0.43400719358E+02  0.00000000000E+00 0. -1.
         11    1    3    3    0    0  0.13939359961E+02 -0.83054451227E+01  0.18305873777E+02  0.24462035684E+02  0.51100000000E-03 0. -1.
        -11    1    3    3    0    0  0.13813010127E+02 -0.97880735572E+01  0.54748481825E+01  0.17792683767E+02  0.51100000000E-03 0.  1.
         12    1    3    3    0    0  0.34689349476E+01  0.34564036974E+01  0.25746838927E+01  0.55325611915E+01  0.00000000000E+00 0. -1.
</event>
<event>
 7    1  0.1246400E-009  0.4778727E+02  0.7816164E-02  0.1312668E+00
        -11   -1    0    0    0    0  0.00000000000E+00  0.00000000000E+00  0.45593999997E+02  0.45594000000E+02  0.51100000000E-03 0. -1.
         11   -1    0    0    0    0 -0.00000000000E+00 -0.00000000000E+00 -0.45593999997E+02  0.45594000000E+02  0.51100000000E-03 0.  1.
    9900012    2    1    2    0    0  0.14228862597E+02 -0.21931589505E+02 -0.34643443745E+02  0.47787270242E+02  0.19999996343E+02 0.  0.
         12    1    1    2    0    0 -0.14228862597E+02  0.21931589505E+02  0.34643443745E+02  0.43400729758E+02  0.00000000000E+00 0. -1.
         11    1    3    3    0    0  0.70573092179E+01 -0.60102598083E+01 -0.71427768762E+01  0.11702482562E+02  0.51100000000E-03 0. -1.
        -11    1    3    3    0    0 -0.16230366409E+01 -0.14125111830E+02 -0.14704061983E+02  0.20453910903E+02  0.51100000000E-03 0.  1.
         12    1    3    3    0    0  0.87945900198E+01 -0.17962178671E+01 -0.12796604885E+02  0.15630876777E+02  0.00000000000E+00 0. -1.
</event>
<event>
 7    1  0.1246400E-009  0.4778726E+02  0.7816164E-02  0.1312668E+00
        -11   -1    0    0    0    0  0.00000000000E+00  0.00000000000E+00  0.45593999997E+02  0.45594000000E+02  0.51100000000E-03 0.  1.
         11   -1    0    0    0    0 -0.00000000000E+00 -0.00000000000E+00 -0.45593999997E+02  0.45594000000E+02  0.51100000000E-03 0. -1.
    9900012    2    1    2    0    0  0.11758718386E+02 -0.30036344880E+02  0.29037464609E+02  0.47787264721E+02  0.19999971168E+02 0.  0.
         12    1    1    2    0    0 -0.11758718386E+02  0.30036344880E+02 -0.29037464609E+02  0.43400735279E+02  0.00000000000E+00 0. -1.
         11    1    3    3    0    0 -0.29198847226E+01 -0.74290245886E+01  0.77764988988E+01  0.11144059786E+02  0.51100000000E-03 0. -1.
        -11    1    3    3    0    0  0.75320122362E+01 -0.68069933384E+01  0.15189148274E+02  0.18269553694E+02  0.51100000000E-03 0.  1.
         12    1    3    3    0    0  0.71465908724E+01 -0.15800326953E+02  0.60718174362E+01  0.18373651240E+02  0.00000000000E+00 0. -1.
</event>
<event>
 7    1  0.1246400E-009  0.4778727E+02  0.7816164E-02  0.1312668E+00
        -11   -1    0    0    0    0  0.00000000000E+00  0.00000000000E+00  0.45593999997E+02  0.45594000000E+02  0.51100000000E-03 0. -1.
         11   -1    0    0    0    0 -0.00000000000E+00 -0.00000000000E+00 -0.45593999997E+02  0.45594000000E+02  0.51100000000E-03 0.  1.
    9900012    2    1    2    0    0  0.33971689641E+02 -0.26903078062E+02 -0.24025315852E+01  0.47787268850E+02  0.19999989996E+02 0.  0.
         12    1    1    2    0    0 -0.33971689641E+02  0.26903078062E+02  0.24025315852E+01  0.43400731150E+02  0.00000000000E+00 0. -1.
         11    1    3    3    0    0  0.22878761857E+02 -0.16426341672E+02 -0.63826485234E+01  0.28879069363E+02  0.51100000000E-03 0. -1.
        -11    1    3    3    0    0  0.12084979173E+02 -0.11639370247E+02  0.43549061658E+01  0.17334557085E+02  0.51100000000E-03 0.  1.
         12    1    3    3    0    0 -0.99205138897E+00  0.11626338571E+01 -0.37478922757E+00  0.15736424020E+01  0.00000000000E+00 0. -1.
</event>
<event>
 7    1  0.1246400E-009  0.4778727E+02  0.7816164E-02  0.1312668E+00
        -11   -1    0    0    0    0  0.00000000000E+00  0.00000000000E+00  0.45593999997E+02  0.45594000000E+02  0.51100000000E-03 0. -1.
         11   -1    0    0    0    0 -0.00000000000E+00 -0.00000000000E+00 -0.45593999997E+02  0.45594000000E+02  0.51100000000E-03 0.  1.
    9900012    2    1    2    0    0 -0.16138626888E+02  0.23037556309E+02 -0.33052064903E+02  0.47787271056E+02  0.20000000051E+02 0.  0.
         12    1    1    2    0    0  0.16138626888E+02 -0.23037556309E+02  0.33052064903E+02  0.43400728944E+02  0.00000000000E+00 0. -1.
         11    1    3    3    0    0 -0.14110970456E+02  0.19976175437E+02 -0.15920000705E+02  0.29182417566E+02  0.51100000000E-03 0. -1.
        -11    1    3    3    0    0  0.15066250187E+01  0.32224141957E+01 -0.66473273271E+01  0.75392859775E+01  0.51100000000E-03 0.  1.
        -12    1    3    3    0    0 -0.35342814505E+01 -0.16103332321E+00 -0.10484736871E+02  0.11065567512E+02  0.00000000000E+00 0.  1.
</event>
<event>
 7    1  0.1246400E-009  0.4778727E+02  0.7816164E-02  0.1312668E+00
        -11   -1    0    0    0    0  0.00000000000E+00  0.00000000000E+00  0.45593999997E+02  0.45594000000E+02  0.51100000000E-03 0. -1.
         11   -1    0    0    0    0 -0.00000000000E+00 -0.00000000000E+00 -0.45593999997E+02  0.45594000000E+02  0.51100000000E-03 0.  1.
    9900012    2    1    2    0    0 -0.20321548792E+02  0.21433667502E+02 -0.31800253133E+02  0.47787267896E+02  0.19999985644E+02 0.  0.
         12    1    1    2    0    0  0.20321548792E+02 -0.21433667502E+02  0.31800253133E+02  0.43400732104E+02  0.00000000000E+00 0. -1.
         11    1    3    3    0    0 -0.21581849047E+01  0.67483346964E+01 -0.54989231983E+01  0.89686085799E+01  0.51100000000E-03 0.  1.
        -11    1    3    3    0    0 -0.14572608017E+02  0.17603838388E+01 -0.10266483663E+02  0.17912580572E+02  0.51100000000E-03 0. -1.
         12    1    3    3    0    0 -0.35907558703E+01  0.12924948966E+02 -0.16034846271E+02  0.20906078744E+02  0.00000000000E+00 0. -1.
</event>
<event>
 7    1  0.1246400E-009  0.4778727E+02  0.7816164E-02  0.1312668E+00
        -11   -1    0    0    0    0  0.00000000000E+00  0.00000000000E+00  0.45593999997E+02  0.45594000000E+02  0.51100000000E-03 0.  1.
         11   -1    0    0    0    0 -0.00000000000E+00 -0.00000000000E+00 -0.45593999997E+02  0.45594000000E+02  0.51100000000E-03 0. -1.
    9900012    2    1    2    0    0 -0.28962585084E+02 -0.15260658036E+02 -0.28493929470E+02  0.47787273796E+02  0.20000012545E+02 0.  0.
         12    1    1    2    0    0  0.28962585084E+02  0.15260658036E+02  0.28493929470E+02  0.43400726204E+02  0.00000000000E+00 0. -1.
         11    1    3    3    0    0 -0.44680036359E+01 -0.45935792057E+01  0.83618362903E+00  0.64624476580E+01  0.51100000000E-03 0. -1.
        -11    1    3    3    0    0 -0.45686866661E+01  0.12069810555E+01 -0.10261996051E+02  0.11297710579E+02  0.51100000000E-03 0.  1.
        -12    1    3    3    0    0 -0.19925894782E+02 -0.11874059886E+02 -0.19068117048E+02  0.30027115558E+02  0.00000000000E+00 0.  1.
</event>
<event>
 7    1  0.1246400E-009  0.4778727E+02  0.7816164E-02  0.1312668E+00
        -11   -1    0    0    0    0  0.00000000000E+00  0.00000000000E+00  0.45593999997E+02  0.45594000000E+02  0.51100000000E-03 0.  1.
         11   -1    0    0    0    0 -0.00000000000E+00 -0.00000000000E+00 -0.45593999997E+02  0.45594000000E+02  0.51100000000E-03 0. -1.
    9900012    2    1    2    0    0 -0.18218639284E+02  0.79033384993E+00  0.39383748127E+02  0.47787273491E+02  0.20000011155E+02 0.  0.
         12    1    1    2    0    0  0.18218639284E+02 -0.79033384993E+00 -0.39383748127E+02  0.43400726509E+02  0.00000000000E+00 0. -1.
         11    1    3    3    0    0 -0.11427636981E+02 -0.28127423929E+01  0.31340405506E+02  0.33477207534E+02  0.51100000000E-03 0. -1.
        -11    1    3    3    0    0 -0.87108474394E+01  0.18485917389E+01  0.75240938898E+01  0.11657964816E+02  0.51100000000E-03 0.  1.
         12    1    3    3    0    0  0.19198451356E+01  0.17544845039E+01  0.51924873167E+00  0.26521011414E+01  0.00000000000E+00 0. -1.
</event>
<event>
 7    1  0.1246400E-009  0.4778727E+02  0.7816164E-02  0.1312668E+00
        -11   -1    0    0    0    0  0.00000000000E+00  0.00000000000E+00  0.45593999997E+02  0.45594000000E+02  0.51100000000E-03 0.  1.
         11   -1    0    0    0    0 -0.00000000000E+00 -0.00000000000E+00 -0.45593999997E+02  0.45594000000E+02  0.51100000000E-03 0. -1.
    9900012    2    1    2    0    0  0.16788055686E+02 -0.21423425568E+02  0.33805637296E+02  0.47787273165E+02  0.20000009669E+02 0.  0.
         12    1    1    2    0    0 -0.16788055686E+02  0.21423425568E+02 -0.33805637296E+02  0.43400726835E+02  0.00000000000E+00 0. -1.
         11    1    3    3    0    0  0.13133365622E+02 -0.11333804288E+02  0.91937308003E+01  0.19633265100E+02  0.51100000000E-03 0. -1.
        -11    1    3    3    0    0  0.26628239030E+01 -0.10215505363E+02  0.14200326141E+02  0.17694531464E+02  0.51100000000E-03 0.  1.
         12    1    3    3    0    0  0.99186616164E+00  0.12588408336E+00  0.10411580354E+02  0.10459476601E+02  0.00000000000E+00 0. -1.
</event>
<event>
 7    1  0.1246400E-009  0.4778727E+02  0.7816164E-02  0.1312668E+00
        -11   -1    0    0    0    0  0.00000000000E+00  0.00000000000E+00  0.45593999997E+02  0.45594000000E+02  0.51100000000E-03 0.  1.
         11   -1    0    0    0    0 -0.00000000000E+00 -0.00000000000E+00 -0.45593999997E+02  0.45594000000E+02  0.51100000000E-03 0. -1.
    9900012    2    1    2    0    0 -0.47590232387E+01  0.18729032430E+02  0.38861270190E+02  0.47787270988E+02  0.19999999744E+02 0.  0.
         12    1    1    2    0    0  0.47590232387E+01 -0.18729032430E+02 -0.38861270190E+02  0.43400729012E+02  0.00000000000E+00 0. -1.
         11    1    3    3    0    0  0.39448032435E+01 -0.19541284279E+01  0.47844694178E+01  0.65016335189E+01  0.51100000000E-03 0. -1.
        -11    1    3    3    0    0 -0.63287179582E+01  0.83004019299E+01  0.18541986399E+02  0.21278030996E+02  0.51100000000E-03 0.  1.
        -12    1    3    3    0    0 -0.23751085241E+01  0.12382758928E+02  0.15534814373E+02  0.20007606473E+02  0.00000000000E+00 0.  1.
</event>
<event>
 7    1  0.1246400E-009  0.4778727E+02  0.7816164E-02  0.1312668E+00
        -11   -1    0    0    0    0  0.00000000000E+00  0.00000000000E+00  0.45593999997E+02  0.45594000000E+02  0.51100000000E-03 0. -1.
         11   -1    0    0    0    0 -0.00000000000E+00 -0.00000000000E+00 -0.45593999997E+02  0.45594000000E+02  0.51100000000E-03 0.  1.
    9900012    2    1    2    0    0  0.36323451134E+02 -0.90957866867E+01 -0.21943038120E+02  0.47787270056E+02  0.19999995495E+02 0.  0.
         12    1    1    2    0    0 -0.36323451134E+02  0.90957866867E+01  0.21943038120E+02  0.43400729944E+02  0.00000000000E+00 0. -1.
         11    1    3    3    0    0  0.99243936332E+01 -0.29582229254E+01  0.22349166966E+01  0.10594315682E+02  0.51100000000E-03 0. -1.
        -11    1    3    3    0    0  0.87546723806E+01 -0.31909447758E+01 -0.37627227555E+01  0.10049104430E+02  0.51100000000E-03 0.  1.
        -12    1    3    3    0    0  0.17644385120E+02 -0.29466189855E+01 -0.20415232061E+02  0.27143849944E+02  0.00000000000E+00 0.  1.
</event>
<event>
 7    1  0.1433224E-009  0.4778727E+02  0.7816164E-02  0.1312668E+00
        -11   -1    0    0    0    0  0.00000000000E+00  0.00000000000E+00  0.45593999997E+02  0.45594000000E+02  0.51100000000E-03 0.  1.
         11   -1    0    0    0    0 -0.00000000000E+00 -0.00000000000E+00 -0.45593999997E+02  0.45594000000E+02  0.51100000000E-03 0. -1.
    9900012    2    1    2    0    0 -0.39033970738E+02  0.17923498047E+02  0.62226101370E+01  0.47787268085E+02  0.19999986506E+02 0.  0.
         12    1    1    2    0    0  0.39033970738E+02 -0.17923498047E+02 -0.62226101370E+01  0.43400731915E+02  0.00000000000E+00 0. -1.
         11    1    3    3    0    0  0.79503667398E+00  0.12903343427E+01 -0.20046952190E+01  0.25131353348E+01  0.51100000000E-03 0. -1.
        -11    1    3    3    0    0 -0.19501773371E+02  0.13788847173E+02  0.28308179608E+01  0.24051299374E+02  0.51100000000E-03 0.  1.
        -12    1    3    3    0    0 -0.20327234041E+02  0.28443165310E+01  0.53964873951E+01  0.21222833376E+02  0.00000000000E+00 0.  1.
</event>
<event>
 7    1  0.1246400E-009  0.4778727E+02  0.7816164E-02  0.1312668E+00
        -11   -1    0    0    0    0  0.00000000000E+00  0.00000000000E+00  0.45593999997E+02  0.45594000000E+02  0.51100000000E-03 0. -1.
         11   -1    0    0    0    0 -0.00000000000E+00 -0.00000000000E+00 -0.45593999997E+02  0.45594000000E+02  0.51100000000E-03 0.  1.
    9900012    2    1    2    0    0 -0.31205850376E+02 -0.15026379441E+02 -0.26153889330E+02  0.47787273003E+02  0.20000008928E+02 0.  0.
         12    1    1    2    0    0  0.31205850376E+02  0.15026379441E+02  0.26153889330E+02  0.43400726997E+02  0.00000000000E+00 0. -1.
         11    1    3    3    0    0 -0.93327227847E+01 -0.35681061895E+01 -0.52744123726E+00  0.10005463052E+02  0.51100000000E-03 0. -1.
        -11    1    3    3    0    0 -0.21539397249E+02 -0.12316038265E+02 -0.19421920856E+02  0.31509386576E+02  0.51100000000E-03 0.  1.
         12    1    3    3    0    0 -0.33373034253E+00  0.85776501336E+00 -0.62045272374E+01  0.62724233754E+01  0.00000000000E+00 0. -1.
</event>
<event>
 7    1  0.1246400E-009  0.4778727E+02  0.7816164E-02  0.1312668E+00
        -11   -1    0    0    0    0  0.00000000000E+00  0.00000000000E+00  0.45593999997E+02  0.45594000000E+02  0.51100000000E-03 0.  1.
         11   -1    0    0    0    0 -0.00000000000E+00 -0.00000000000E+00 -0.45593999997E+02  0.45594000000E+02  0.51100000000E-03 0. -1.
    9900012    2    1    2    0    0  0.57228321889E+00  0.30188495961E+02  0.31176126158E+02  0.47787266842E+02  0.19999980838E+02 0.  0.
         12    1    1    2    0    0 -0.57228321889E+00 -0.30188495961E+02 -0.31176126158E+02  0.43400733158E+02  0.00000000000E+00 0. -1.
         11    1    3    3    0    0 -0.92845231121E-01 -0.22120610331E+01  0.24636023025E+01  0.33122757761E+01  0.51100000000E-03 0. -1.
        -11    1    3    3    0    0  0.16190702349E+01  0.42613152097E+00  0.29915079549E+01  0.34281331077E+01  0.51100000000E-03 0.  1.
        -12    1    3    3    0    0 -0.95394178494E+00  0.31974425473E+02  0.25721015901E+02  0.41046857958E+02  0.00000000000E+00 0.  1.
</event>
<event>
 7    1  0.1246400E-009  0.4778727E+02  0.7816164E-02  0.1312668E+00
        -11   -1    0    0    0    0  0.00000000000E+00  0.00000000000E+00  0.45593999997E+02  0.45594000000E+02  0.51100000000E-03 0. -1.
         11   -1    0    0    0    0 -0.00000000000E+00 -0.00000000000E+00 -0.45593999997E+02  0.45594000000E+02  0.51100000000E-03 0.  1.
    9900012    2    1    2    0    0  0.81055690627E+01  0.42625832129E+02 -0.98051551811E+00  0.47787271605E+02  0.20000002557E+02 0.  0.
         12    1    1    2    0    0 -0.81055690627E+01 -0.42625832129E+02  0.98051551811E+00  0.43400728395E+02  0.00000000000E+00 0. -1.
         11    1    3    3    0    0  0.37039067623E+01  0.25484910650E+02 -0.10101078298E+02  0.27662815822E+02  0.51100000000E-03 0.  1.
        -11    1    3    3    0    0  0.79946852962E-01  0.30804618599E+01  0.26104821846E+01  0.40385955810E+01  0.51100000000E-03 0. -1.
        -12    1    3    3    0    0  0.43217154474E+01  0.14060459619E+02  0.65100805952E+01  0.16085860202E+02  0.00000000000E+00 0.  1.
</event>
<event>
 7    1  0.1246400E-009  0.4778727E+02  0.7816164E-02  0.1312668E+00
        -11   -1    0    0    0    0  0.00000000000E+00  0.00000000000E+00  0.45593999997E+02  0.45594000000E+02  0.51100000000E-03 0.  1.
         11   -1    0    0    0    0 -0.00000000000E+00 -0.00000000000E+00 -0.45593999997E+02  0.45594000000E+02  0.51100000000E-03 0. -1.
    9900012    2    1    2    0    0 -0.29214734293E+02 -0.18520177203E+02  0.26213076736E+02  0.47787273561E+02  0.20000011475E+02 0.  0.
         12    1    1    2    0    0  0.29214734293E+02  0.18520177203E+02 -0.26213076736E+02  0.43400726439E+02  0.00000000000E+00 0. -1.
         11    1    3    3    0    0 -0.32799545076E+01 -0.57952671934E+01 -0.10117627415E+01  0.67354946011E+01  0.51100000000E-03 0. -1.
        -11    1    3    3    0    0 -0.27390443284E+01  0.17892503385E+01  0.39531194020E+01  0.51313676417E+01  0.51100000000E-03 0.  1.
        -12    1    3    3    0    0 -0.23195735457E+02 -0.14514160348E+02  0.23271720076E+02  0.35920411318E+02  0.00000000000E+00 0.  1.
</event>
<event>
 7    1  0.1246400E-009  0.4778727E+02  0.7816164E-02  0.1312668E+00
        -11   -1    0    0    0    0  0.00000000000E+00  0.00000000000E+00  0.45593999997E+02  0.45594000000E+02  0.51100000000E-03 0.  1.
         11   -1    0    0    0    0 -0.00000000000E+00 -0.00000000000E+00 -0.45593999997E+02  0.45594000000E+02  0.51100000000E-03 0. -1.
    9900012    2    1    2    0    0 -0.16661328614E+02  0.24782760932E+02  0.31493458514E+02  0.47787273741E+02  0.20000012296E+02 0.  0.
         12    1    1    2    0    0  0.16661328614E+02 -0.24782760932E+02 -0.31493458514E+02  0.43400726259E+02  0.00000000000E+00 0. -1.
         11    1    3    3    0    0 -0.62529220615E+00  0.12892895041E+01 -0.19613307076E+01  0.24290072405E+01  0.51100000000E-03 0. -1.
        -11    1    3    3    0    0 -0.13713587487E+02  0.19859295238E+02  0.20371590306E+02  0.31582523347E+02  0.51100000000E-03 0.  1.
         12    1    3    3    0    0 -0.23224489209E+01  0.36341761898E+01  0.13083198916E+02  0.13775743154E+02  0.00000000000E+00 0. -1.
</event>
<event>
 7    1  0.1246400E-009  0.4778727E+02  0.7816164E-02  0.1312668E+00
        -11   -1    0    0    0    0  0.00000000000E+00  0.00000000000E+00  0.45593999997E+02  0.45594000000E+02  0.51100000000E-03 0. -1.
         11   -1    0    0    0    0 -0.00000000000E+00 -0.00000000000E+00 -0.45593999997E+02  0.45594000000E+02  0.51100000000E-03 0.  1.
    9900012    2    1    2    0    0  0.16274869870E+02  0.32424019527E+02  0.23820892265E+02  0.47787270284E+02  0.19999996533E+02 0.  0.
         12    1    1    2    0    0 -0.16274869870E+02 -0.32424019527E+02 -0.23820892265E+02  0.43400729716E+02  0.00000000000E+00 0. -1.
         11    1    3    3    0    0  0.55550563351E+01  0.13540522106E+01  0.57335026076E+01  0.80972316682E+01  0.51100000000E-03 0. -1.
        -11    1    3    3    0    0  0.27152619316E+01  0.75926714057E+00  0.49545471306E+01  0.57005851874E+01  0.51100000000E-03 0.  1.
        -12    1    3    3    0    0  0.80045516033E+01  0.30310700176E+02  0.13132842527E+02  0.33989453428E+02  0.00000000000E+00 0.  1.
</event>
<event>
 7    1  0.1246400E-009  0.4778726E+02  0.7816164E-02  0.1312668E+00
        -11   -1    0    0    0    0  0.00000000000E+00  0.00000000000E+00  0.45593999997E+02  0.45594000000E+02  0.51100000000E-03 0.  1.
         11   -1    0    0    0    0 -0.00000000000E+00 -0.00000000000E+00 -0.45593999997E+02  0.45594000000E+02  0.51100000000E-03 0. -1.
    9900012    2    1    2    0    0  0.25520792250E+02 -0.26833743102E+02  0.22633233682E+02  0.47787264144E+02  0.19999968538E+02 0.  0.
         12    1    1    2    0    0 -0.25520792250E+02  0.26833743102E+02 -0.22633233682E+02  0.43400735856E+02  0.00000000000E+00 0. -1.
         11    1    3    3    0    0  0.28857005285E+01  0.18394134981E+01  0.42246801404E+01  0.54367850892E+01  0.51100000000E-03 0. -1.
        -11    1    3    3    0    0  0.12433352176E+02 -0.18756403395E+02  0.16695892563E+02  0.28020416546E+02  0.51100000000E-03 0.  1.
         12    1    3    3    0    0  0.10201739545E+02 -0.99167532052E+01  0.17126609783E+01  0.14330062509E+02  0.00000000000E+00 0. -1.
</event>
<event>
 7    1  0.1246400E-009  0.4778728E+02  0.7816164E-02  0.1312668E+00
        -11   -1    0    0    0    0  0.00000000000E+00  0.00000000000E+00  0.45593999997E+02  0.45594000000E+02  0.51100000000E-03 0.  1.
         11   -1    0    0    0    0 -0.00000000000E+00 -0.00000000000E+00 -0.45593999997E+02  0.45594000000E+02  0.51100000000E-03 0. -1.
    9900012    2    1    2    0    0  0.20664707032E+02  0.25608679725E+02  0.28298198546E+02  0.47787278405E+02  0.20000033560E+02 0.  0.
         12    1    1    2    0    0 -0.20664707032E+02 -0.25608679725E+02 -0.28298198546E+02  0.43400721595E+02  0.00000000000E+00 0. -1.
         11    1    3    3    0    0 -0.23363956742E+01  0.30981760412E+01  0.29712523088E+01  0.48873080599E+01  0.51100000000E-03 0. -1.
        -11    1    3    3    0    0  0.21151085860E+01  0.59163211968E+00  0.73892439441E+01  0.77087378488E+01  0.51100000000E-03 0.  1.
        -12    1    3    3    0    0  0.20885994121E+02  0.21918871564E+02  0.17937702294E+02  0.35191232496E+02  0.00000000000E+00 0.  1.
</event>
<event>
 7    1  0.1246400E-009  0.4778727E+02  0.7816164E-02  0.1312668E+00
        -11   -1    0    0    0    0  0.00000000000E+00  0.00000000000E+00  0.45593999997E+02  0.45594000000E+02  0.51100000000E-03 0.  1.
         11   -1    0    0    0    0 -0.00000000000E+00 -0.00000000000E+00 -0.45593999997E+02  0.45594000000E+02  0.51100000000E-03 0. -1.
    9900012    2    1    2    0    0 -0.38861063299E+02 -0.18520033438E+02  0.55180988470E+01  0.47787270811E+02  0.19999998935E+02 0.  0.
         12    1    1    2    0    0  0.38861063299E+02  0.18520033438E+02 -0.55180988470E+01  0.43400729189E+02  0.00000000000E+00 0. -1.
         11    1    3    3    0    0 -0.20742494654E+02 -0.75804562876E+01 -0.56481035785E+01  0.22795075703E+02  0.51100000000E-03 0. -1.
        -11    1    3    3    0    0 -0.68587097062E+01 -0.41787733282E+00  0.44149191262E+01  0.81674984818E+01  0.51100000000E-03 0.  1.
         12    1    3    3    0    0 -0.11259858938E+02 -0.10521699818E+02  0.67512832993E+01  0.16824696626E+02  0.00000000000E+00 0. -1.
</event>
<event>
 7    1  0.1246400E-009  0.4778728E+02  0.7816164E-02  0.1312668E+00
        -11   -1    0    0    0    0  0.00000000000E+00  0.00000000000E+00  0.45593999997E+02  0.45594000000E+02  0.51100000000E-03 0.  1.
         11   -1    0    0    0    0 -0.00000000000E+00 -0.00000000000E+00 -0.45593999997E+02  0.45594000000E+02  0.51100000000E-03 0. -1.
    9900012    2    1    2    0    0 -0.20575686466E+02 -0.18532767869E+02  0.33418566069E+02  0.47787275161E+02  0.20000018769E+02 0.  0.
         12    1    1    2    0    0  0.20575686466E+02  0.18532767869E+02 -0.33418566069E+02  0.43400724839E+02  0.00000000000E+00 0. -1.
         11    1    3    3    0    0 -0.66438913568E+01 -0.35541636830E+01  0.10096343091E+02  0.12597996504E+02  0.51100000000E-03 0. -1.
        -11    1    3    3    0    0 -0.14832926424E+02 -0.15959809840E+02  0.24924627264E+02  0.33105411656E+02  0.51100000000E-03 0.  1.
         12    1    3    3    0    0  0.90113131459E+00  0.98120565432E+00 -0.16024042855E+01  0.20838670006E+01  0.00000000000E+00 0. -1.
</event>
<event>
 7    1  0.1246400E-009  0.4778728E+02  0.7816164E-02  0.1312668E+00
        -11   -1    0    0    0    0  0.00000000000E+00  0.00000000000E+00  0.45593999997E+02  0.45594000000E+02  0.51100000000E-03 0. -1.
         11   -1    0    0    0    0 -0.00000000000E+00 -0.00000000000E+00 -0.45593999997E+02  0.45594000000E+02  0.51100000000E-03 0.  1.
    9900012    2    1    2    0    0  0.27434699693E+02  0.15491685339E+02 -0.29849078328E+02  0.47787279512E+02  0.20000038607E+02 0.  0.
         12    1    1    2    0    0 -0.27434699693E+02 -0.15491685339E+02  0.29849078328E+02  0.43400720488E+02  0.00000000000E+00 0. -1.
         11    1    3    3    0    0  0.20068229288E+02  0.14652381493E+02 -0.13537562845E+02  0.28296496571E+02  0.51100000000E-03 0.  1.
        -11    1    3    3    0    0 -0.11196018940E+01 -0.12212899436E+01 -0.12300809171E+01  0.20635301915E+01  0.51100000000E-03 0. -1.
        -12    1    3    3    0    0  0.84860722993E+01  0.20605937894E+01 -0.15081434566E+02  0.17427252750E+02  0.00000000000E+00 0.  1.
</event>
<event>
 7    1  0.1246400E-009  0.4778727E+02  0.7816164E-02  0.1312668E+00
        -11   -1    0    0    0    0  0.00000000000E+00  0.00000000000E+00  0.45593999997E+02  0.45594000000E+02  0.51100000000E-03 0.  1.
         11   -1    0    0    0    0 -0.00000000000E+00 -0.00000000000E+00 -0.45593999997E+02  0.45594000000E+02  0.51100000000E-03 0. -1.
    9900012    2    1    2    0    0  0.30723515523E+02  0.30129373931E+02  0.56488615573E+01  0.47787271706E+02  0.20000003014E+02 0.  0.
         12    1    1    2    0    0 -0.30723515523E+02 -0.30129373931E+02 -0.56488615573E+01  0.43400728294E+02  0.00000000000E+00 0. -1.
         11    1    3    3    0    0  0.18911493909E+02  0.20114005339E+02  0.81911644624E+01  0.28797794849E+02  0.51100000000E-03 0. -1.
        -11    1    3    3    0    0  0.51105690555E+01  0.10673051846E+02 -0.30998535623E+01  0.12232785625E+02  0.51100000000E-03 0.  1.
         12    1    3    3    0    0  0.67014525584E+01 -0.65768325422E+00  0.55755065722E+00  0.67566912310E+01  0.00000000000E+00 0. -1.
</event>
<event>
 7    1  0.1246400E-009  0.4778727E+02  0.7816164E-02  0.1312668E+00
        -11   -1    0    0    0    0  0.00000000000E+00  0.00000000000E+00  0.45593999997E+02  0.45594000000E+02  0.51100000000E-03 0.  1.
         11   -1    0    0    0    0 -0.00000000000E+00 -0.00000000000E+00 -0.45593999997E+02  0.45594000000E+02  0.51100000000E-03 0. -1.
    9900012    2    1    2    0    0 -0.55443894679E+01  0.21027071556E+02  0.37559890503E+02  0.47787269967E+02  0.19999995087E+02 0.  0.
         12    1    1    2    0    0  0.55443894679E+01 -0.21027071556E+02 -0.37559890503E+02  0.43400730033E+02  0.00000000000E+00 0. -1.
         11    1    3    3    0    0 -0.33953064813E+01  0.88662592143E+01  0.67283208945E+01  0.11636535605E+02  0.51100000000E-03 0. -1.
        -11    1    3    3    0    0 -0.70228945428E+01  0.77235725062E+01  0.25882454881E+02  0.27908351634E+02  0.51100000000E-03 0.  1.
         12    1    3    3    0    0  0.48738115562E+01  0.44372398359E+01  0.49491147275E+01  0.82423827279E+01  0.00000000000E+00 0. -1.
</event>
<event>
 7    1  0.1246400E-009  0.4778727E+02  0.7816164E-02  0.1312668E+00
        -11   -1    0    0    0    0  0.00000000000E+00  0.00000000000E+00  0.45593999997E+02  0.45594000000E+02  0.51100000000E-03 0. -1.
         11   -1    0    0    0    0 -0.00000000000E+00 -0.00000000000E+00 -0.45593999997E+02  0.45594000000E+02  0.51100000000E-03 0.  1.
    9900012    2    1    2    0    0  0.14059286367E+02 -0.26575491498E+02 -0.31300205388E+02  0.47787272600E+02  0.20000007094E+02 0.  0.
         12    1    1    2    0    0 -0.14059286367E+02  0.26575491498E+02  0.31300205388E+02  0.43400727400E+02  0.00000000000E+00 0. -1.
         11    1    3    3    0    0  0.83836362426E+01 -0.11462874857E+02 -0.22879076633E+02  0.26928330890E+02  0.51100000000E-03 0. -1.
        -11    1    3    3    0    0 -0.20368684127E+01  0.44482002229E-01 -0.49780973729E+00  0.20972902457E+01  0.51100000000E-03 0.  1.
         12    1    3    3    0    0  0.77125185367E+01 -0.15157098643E+02 -0.79233190172E+01  0.18761651465E+02  0.00000000000E+00 0. -1.
</event>
<event>
 7    1  0.1246400E-009  0.4778727E+02  0.7816164E-02  0.1312668E+00
        -11   -1    0    0    0    0  0.00000000000E+00  0.00000000000E+00  0.45593999997E+02  0.45594000000E+02  0.51100000000E-03 0. -1.
         11   -1    0    0    0    0 -0.00000000000E+00 -0.00000000000E+00 -0.45593999997E+02  0.45594000000E+02  0.51100000000E-03 0.  1.
    9900012    2    1    2    0    0 -0.37298058732E+02 -0.12496539678E+02  0.18338883483E+02  0.47787270323E+02  0.19999996710E+02 0.  0.
         12    1    1    2    0    0  0.37298058732E+02  0.12496539678E+02 -0.18338883483E+02  0.43400729677E+02  0.00000000000E+00 0. -1.
         11    1    3    3    0    0  0.55693977179E-01  0.82981477257E+00 -0.55145219897E+00  0.99789486658E+00  0.51100000000E-03 0. -1.
        -11    1    3    3    0    0 -0.27281605633E+02 -0.66250108641E+01  0.20249772492E+02  0.34615459857E+02  0.51100000000E-03 0.  1.
        -12    1    3    3    0    0 -0.10072147076E+02 -0.67013435863E+01 -0.13594368097E+01  0.12173915599E+02  0.00000000000E+00 0.  1.
</event>
<event>
 7    1  0.1246400E-009  0.4778727E+02  0.7816164E-02  0.1312668E+00
        -11   -1    0    0    0    0  0.00000000000E+00  0.00000000000E+00  0.45593999997E+02  0.45594000000E+02  0.51100000000E-03 0.  1.
         11   -1    0    0    0    0 -0.00000000000E+00 -0.00000000000E+00 -0.45593999997E+02  0.45594000000E+02  0.51100000000E-03 0. -1.
    9900012    2    1    2    0    0 -0.15530643899E+02 -0.12559436790E+02  0.38531581944E+02  0.47787272362E+02  0.20000006006E+02 0.  0.
         12    1    1    2    0    0  0.15530643899E+02  0.12559436790E+02 -0.38531581944E+02  0.43400727638E+02  0.00000000000E+00 0. -1.
         11    1    3    3    0    0  0.12434641280E+01 -0.52011832849E+01  0.45393427505E+01  0.70145665203E+01  0.51100000000E-03 0. -1.
        -11    1    3    3    0    0 -0.44049022535E+01  0.12382129103E+01  0.18913913664E+02  0.19459508355E+02  0.51100000000E-03 0.  1.
        -12    1    3    3    0    0 -0.12369205774E+02 -0.85964664156E+01  0.15078325530E+02  0.21313197486E+02  0.00000000000E+00 0.  1.
</event>
<event>
 7    1  0.1246400E-009  0.4778727E+02  0.7816164E-02  0.1312668E+00
        -11   -1    0    0    0    0  0.00000000000E+00  0.00000000000E+00  0.45593999997E+02  0.45594000000E+02  0.51100000000E-03 0.  1.
         11   -1    0    0    0    0 -0.00000000000E+00 -0.00000000000E+00 -0.45593999997E+02  0.45594000000E+02  0.51100000000E-03 0. -1.
    9900012    2    1    2    0    0 -0.21750963437E+02  0.18573982258E+02  0.32642391991E+02  0.47787274405E+02  0.20000015320E+02 0.  0.
         12    1    1    2    0    0  0.21750963437E+02 -0.18573982258E+02 -0.32642391991E+02  0.43400725595E+02  0.00000000000E+00 0. -1.
         11    1    3    3    0    0 -0.50795343364E+01  0.27183650863E+01 -0.19738220737E+01  0.60899221388E+01  0.51100000000E-03 0. -1.
        -11    1    3    3    0    0 -0.74273127094E+01  0.48375333273E+01  0.13142236435E+02  0.15851974058E+02  0.51100000000E-03 0.  1.
        -12    1    3    3    0    0 -0.92441163909E+01  0.11018083844E+02  0.21473977630E+02  0.25845378208E+02  0.00000000000E+00 0.  1.
</event>
<event>
 7    1  0.1246400E-009  0.4778727E+02  0.7816164E-02  0.1312668E+00
        -11   -1    0    0    0    0  0.00000000000E+00  0.00000000000E+00  0.45593999997E+02  0.45594000000E+02  0.51100000000E-03 0. -1.
         11   -1    0    0    0    0 -0.00000000000E+00 -0.00000000000E+00 -0.45593999997E+02  0.45594000000E+02  0.51100000000E-03 0.  1.
    9900012    2    1    2    0    0 -0.35801086310E+02  0.13543948394E+01 -0.24496352033E+02  0.47787269254E+02  0.19999991837E+02 0.  0.
         12    1    1    2    0    0  0.35801086310E+02 -0.13543948394E+01  0.24496352033E+02  0.43400730746E+02  0.00000000000E+00 0. -1.
         11    1    3    3    0    0 -0.62996982468E+01 -0.42401635941E+00 -0.64873548519E+01  0.90527211992E+01  0.51100000000E-03 0.  1.
        -11    1    3    3    0    0 -0.29011256523E+02  0.52660324482E+01 -0.12133305410E+02  0.31884184218E+02  0.51100000000E-03 0. -1.
         12    1    3    3    0    0 -0.49013153956E+00 -0.34876212494E+01 -0.58756917712E+01  0.68503638368E+01  0.00000000000E+00 0. -1.
</event>
<event>
 7    1  0.1246400E-009  0.4778727E+02  0.7816164E-02  0.1312668E+00
        -11   -1    0    0    0    0  0.00000000000E+00  0.00000000000E+00  0.45593999997E+02  0.45594000000E+02  0.51100000000E-03 0.  1.
         11   -1    0    0    0    0 -0.00000000000E+00 -0.00000000000E+00 -0.45593999997E+02  0.45594000000E+02  0.51100000000E-03 0. -1.
    9900012    2    1    2    0    0  0.37832886797E+02 -0.18087185505E+02  0.11187019288E+02  0.47787274160E+02  0.20000014206E+02 0.  0.
         12    1    1    2    0    0 -0.37832886797E+02  0.18087185505E+02 -0.11187019288E+02  0.43400725840E+02  0.00000000000E+00 0. -1.
         11    1    3    3    0    0  0.39766964471E+02 -0.16709446539E+02  0.12500636869E+02  0.44909720432E+02  0.51100000000E-03 0. -1.
        -11    1    3    3    0    0 -0.95964899412E+00 -0.12212952532E+01 -0.97640153549E+00  0.18346248954E+01  0.51100000000E-03 0.  1.
         12    1    3    3    0    0 -0.97442868038E+00 -0.15644371306E+00 -0.33721604568E+00  0.10429288326E+01  0.00000000000E+00 0. -1.
</event>
<event>
 7    1  0.1246400E-009  0.4778727E+02  0.7816164E-02  0.1312668E+00
        -11   -1    0    0    0    0  0.00000000000E+00  0.00000000000E+00  0.45593999997E+02  0.45594000000E+02  0.51100000000E-03 0. -1.
         11   -1    0    0    0    0 -0.00000000000E+00 -0.00000000000E+00 -0.45593999997E+02  0.45594000000E+02  0.51100000000E-03 0.  1.
    9900012    2    1    2    0    0 -0.34322387288E+01  0.11977304800E+02 -0.41573876834E+02  0.47787270421E+02  0.19999997159E+02 0.  0.
         12    1    1    2    0    0  0.34322387288E+01 -0.11977304800E+02  0.41573876834E+02  0.43400729579E+02  0.00000000000E+00 0. -1.
         11    1    3    3    0    0 -0.30934446079E+01  0.58233636520E+01 -0.31439543458E+02  0.32123602800E+02  0.51100000000E-03 0.  1.
        -11    1    3    3    0    0 -0.42104599444E+01  0.24001760744E+01 -0.88962203966E+01  0.10130723357E+02  0.51100000000E-03 0. -1.
        -12    1    3    3    0    0  0.38716658235E+01  0.37537650739E+01 -0.12381129791E+01  0.55329442639E+01  0.00000000000E+00 0.  1.
</event>
<event>
 7    1  0.1246400E-009  0.4778727E+02  0.7816164E-02  0.1312668E+00
        -11   -1    0    0    0    0  0.00000000000E+00  0.00000000000E+00  0.45593999997E+02  0.45594000000E+02  0.51100000000E-03 0. -1.
         11   -1    0    0    0    0 -0.00000000000E+00 -0.00000000000E+00 -0.45593999997E+02  0.45594000000E+02  0.51100000000E-03 0.  1.
    9900012    2    1    2    0    0 -0.13507656024E+02  0.40119071900E+02  0.95721796021E+01  0.47787270470E+02  0.19999997383E+02 0.  0.
         12    1    1    2    0    0  0.13507656024E+02 -0.40119071900E+02 -0.95721796021E+01  0.43400729530E+02  0.00000000000E+00 0. -1.
         11    1    3    3    0    0  0.35817347508E+00  0.11616700863E+02  0.33946150437E+01  0.12107825517E+02  0.51100000000E-03 0. -1.
        -11    1    3    3    0    0  0.22094201739E+01  0.99777425837E+01  0.42787576889E+01  0.11079018557E+02  0.51100000000E-03 0.  1.
         12    1    3    3    0    0 -0.16075249673E+02  0.18524628453E+02  0.18988068695E+01  0.24600426397E+02  0.00000000000E+00 0. -1.
</event>
<event>
 7    1  0.1246400E-009  0.4778727E+02  0.7816164E-02  0.1312668E+00
        -11   -1    0    0    0    0  0.00000000000E+00  0.00000000000E+00  0.45593999997E+02  0.45594000000E+02  0.51100000000E-03 0. -1.
         11   -1    0    0    0    0 -0.00000000000E+00 -0.00000000000E+00 -0.45593999997E+02  0.45594000000E+02  0.51100000000E-03 0.  1.
    9900012    2    1    2    0    0 -0.29025177120E+02  0.30408987812E+02 -0.10791457208E+02  0.47787274254E+02  0.20000014633E+02 0.  0.
         12    1    1    2    0    0  0.29025177120E+02 -0.30408987812E+02  0.10791457208E+02  0.43400725746E+02  0.00000000000E+00 0. -1.
         11    1    3    3    0    0 -0.18487128226E+02  0.30051386336E+02 -0.68929028776E+01  0.35949573587E+02  0.51100000000E-03 0.  1.
        -11    1    3    3    0    0 -0.43652170653E+01  0.11226130072E+01 -0.33055155888E+01  0.55894376784E+01  0.51100000000E-03 0. -1.
        -12    1    3    3    0    0 -0.61728318284E+01 -0.76501153049E+00 -0.59303874187E+00  0.62482629885E+01  0.00000000000E+00 0.  1.
</event>
<event>
 7    1  0.1246400E-009  0.4778727E+02  0.7816164E-02  0.1312668E+00
        -11   -1    0    0    0    0  0.00000000000E+00  0.00000000000E+00  0.45593999997E+02  0.45594000000E+02  0.51100000000E-03 0.  1.
         11   -1    0    0    0    0 -0.00000000000E+00 -0.00000000000E+00 -0.45593999997E+02  0.45594000000E+02  0.51100000000E-03 0. -1.
    9900012    2    1    2    0    0  0.24420886075E+02 -0.34139659400E+02  0.11033007572E+02  0.47787271011E+02  0.19999999849E+02 0.  0.
         12    1    1    2    0    0 -0.24420886075E+02  0.34139659400E+02 -0.11033007572E+02  0.43400728989E+02  0.00000000000E+00 0. -1.
         11    1    3    3    0    0  0.32329544164E+01  0.63589186550E+00  0.79562118157E+00  0.33895967383E+01  0.51100000000E-03 0. -1.
        -11    1    3    3    0    0 -0.73381137557E+00 -0.59756655210E+01 -0.17510206503E+01  0.62700184316E+01  0.51100000000E-03 0.  1.
        -12    1    3    3    0    0  0.21921743034E+02 -0.28799885745E+02  0.11988407041E+02  0.38127655841E+02  0.00000000000E+00 0.  1.
</event>
<event>
 7    1  0.1246400E-009  0.4778727E+02  0.7816164E-02  0.1312668E+00
        -11   -1    0    0    0    0  0.00000000000E+00  0.00000000000E+00  0.45593999997E+02  0.45594000000E+02  0.51100000000E-03 0.  1.
         11   -1    0    0    0    0 -0.00000000000E+00 -0.00000000000E+00 -0.45593999997E+02  0.45594000000E+02  0.51100000000E-03 0. -1.
    9900012    2    1    2    0    0 -0.19860731620E+02  0.37193709357E+02  0.10286036830E+02  0.47787271552E+02  0.20000002313E+02 0.  0.
         12    1    1    2    0    0  0.19860731620E+02 -0.37193709357E+02 -0.10286036830E+02  0.43400728448E+02  0.00000000000E+00 0. -1.
         11    1    3    3    0    0 -0.11618079676E+02  0.16140257011E+02 -0.21116328151E+00  0.19887992909E+02  0.51100000000E-03 0. -1.
        -11    1    3    3    0    0 -0.69385563106E+01  0.13221428275E+02  0.24688022096E+00  0.14933542092E+02  0.51100000000E-03 0.  1.
        -12    1    3    3    0    0 -0.13040956327E+01  0.78320240711E+01  0.10250319890E+02  0.12965736552E+02  0.00000000000E+00 0.  1.
</event>
<event>
 7    1  0.1246400E-009  0.4778727E+02  0.7816164E-02  0.1312668E+00
        -11   -1    0    0    0    0  0.00000000000E+00  0.00000000000E+00  0.45593999997E+02  0.45594000000E+02  0.51100000000E-03 0.  1.
         11   -1    0    0    0    0 -0.00000000000E+00 -0.00000000000E+00 -0.45593999997E+02  0.45594000000E+02  0.51100000000E-03 0. -1.
    9900012    2    1    2    0    0 -0.37630792471E+02  0.18399472838E+02  0.11358094550E+02  0.47787268963E+02  0.19999990512E+02 0.  0.
         12    1    1    2    0    0  0.37630792471E+02 -0.18399472838E+02 -0.11358094550E+02  0.43400731037E+02  0.00000000000E+00 0. -1.
         11    1    3    3    0    0 -0.16294372231E+02  0.46362121499E+01  0.55060243211E+01  0.17813403201E+02  0.51100000000E-03 0. -1.
        -11    1    3    3    0    0 -0.17470977457E+02  0.15073425975E+02  0.90528496675E+01  0.24787039180E+02  0.51100000000E-03 0.  1.
         12    1    3    3    0    0 -0.38654427831E+01 -0.13101652871E+01 -0.32007794388E+01  0.51868265832E+01  0.00000000000E+00 0. -1.
</event>
<event>
 7    1  0.1246400E-009  0.4778727E+02  0.7816164E-02  0.1312668E+00
        -11   -1    0    0    0    0  0.00000000000E+00  0.00000000000E+00  0.45593999997E+02  0.45594000000E+02  0.51100000000E-03 0. -1.
         11   -1    0    0    0    0 -0.00000000000E+00 -0.00000000000E+00 -0.45593999997E+02  0.45594000000E+02  0.51100000000E-03 0.  1.
    9900012    2    1    2    0    0  0.41989169631E+02  0.97121769789E+01 -0.51192009290E+01  0.47787274590E+02  0.20000016164E+02 0.  0.
         12    1    1    2    0    0 -0.41989169631E+02 -0.97121769789E+01  0.51192009290E+01  0.43400725410E+02  0.00000000000E+00 0. -1.
         11    1    3    3    0    0  0.40824381178E+01 -0.25199646481E+01  0.13071545161E+01  0.49724416541E+01  0.51100000000E-03 0. -1.
        -11    1    3    3    0    0  0.17337312000E+02  0.79071099513E+01 -0.99589800961E+01  0.21500838588E+02  0.51100000000E-03 0.  1.
         12    1    3    3    0    0  0.20569419514E+02  0.43250316757E+01  0.35326246510E+01  0.21313994348E+02  0.00000000000E+00 0. -1.
</event>
<event>
 7    1  0.1246400E-009  0.4778727E+02  0.7816164E-02  0.1312668E+00
        -11   -1    0    0    0    0  0.00000000000E+00  0.00000000000E+00  0.45593999997E+02  0.45594000000E+02  0.51100000000E-03 0.  1.
         11   -1    0    0    0    0 -0.00000000000E+00 -0.00000000000E+00 -0.45593999997E+02  0.45594000000E+02  0.51100000000E-03 0. -1.
    9900012    2    1    2    0    0 -0.23613245472E+02  0.28327638251E+02  0.22881930941E+02  0.47787271733E+02  0.20000003138E+02 0.  0.
         12    1    1    2    0    0  0.23613245472E+02 -0.28327638251E+02 -0.22881930941E+02  0.43400728267E+02  0.00000000000E+00 0. -1.
         11    1    3    3    0    0 -0.46402193074E+01  0.66921830155E+01 -0.27178341424E+01  0.85850784166E+01  0.51100000000E-03 0. -1.
        -11    1    3    3    0    0 -0.11779601130E+02  0.10851907268E+02  0.98450897492E+01  0.18800231024E+02  0.51100000000E-03 0.  1.
        -12    1    3    3    0    0 -0.71934250341E+01  0.10783547968E+02  0.15754675334E+02  0.20401962292E+02  0.00000000000E+00 0.  1.
</event>
<event>
 7    1  0.1246400E-009  0.4778727E+02  0.7816164E-02  0.1312668E+00
        -11   -1    0    0    0    0  0.00000000000E+00  0.00000000000E+00  0.45593999997E+02  0.45594000000E+02  0.51100000000E-03 0.  1.
         11   -1    0    0    0    0 -0.00000000000E+00 -0.00000000000E+00 -0.45593999997E+02  0.45594000000E+02  0.51100000000E-03 0. -1.
    9900012    2    1    2    0    0 -0.11215192122E+02  0.38741171532E+02  0.16030108170E+02  0.47787271044E+02  0.19999999999E+02 0.  0.
         12    1    1    2    0    0  0.11215192122E+02 -0.38741171532E+02 -0.16030108170E+02  0.43400728956E+02  0.00000000000E+00 0. -1.
         11    1    3    3    0    0  0.41168831298E-01  0.65450934175E+01 -0.28749571241E+01  0.71487986014E+01  0.51100000000E-03 0. -1.
        -11    1    3    3    0    0 -0.13431317340E+02  0.24223518367E+02  0.14125671210E+02  0.31092020117E+02  0.51100000000E-03 0.  1.
         12    1    3    3    0    0  0.21749563863E+01  0.79725597471E+01  0.47793940842E+01  0.95464523261E+01  0.00000000000E+00 0. -1.
</event>
<event>
 7    1  0.1246400E-009  0.4778721E+02  0.7816164E-02  0.1312668E+00
        -11   -1    0    0    0    0  0.00000000000E+00  0.00000000000E+00  0.45593999997E+02  0.45594000000E+02  0.51100000000E-03 0. -1.
         11   -1    0    0    0    0 -0.00000000000E+00 -0.00000000000E+00 -0.45593999997E+02  0.45594000000E+02  0.51100000000E-03 0.  1.
    9900012    2    1    2    0    0  0.12470103555E+02 -0.28022875664E+02 -0.30705760721E+02  0.47787207558E+02  0.19999710540E+02 0.  0.
         12    1    1    2    0    0 -0.12470103555E+02  0.28022875664E+02  0.30705760721E+02  0.43400792442E+02  0.00000000000E+00 0. -1.
         11    1    3    3    0    0 -0.15229267902E+01 -0.15790448358E+01 -0.25411444545E+01  0.33570975562E+01  0.51100000000E-03 0. -1.
        -11    1    3    3    0    0 -0.27219408191E+01 -0.11168324370E+02 -0.11937698047E+02  0.16572539515E+02  0.51100000000E-03 0.  1.
        -12    1    3    3    0    0  0.16714971164E+02 -0.15275506457E+02 -0.16226918219E+02  0.27857570487E+02  0.00000000000E+00 0.  1.
</event>
<event>
 7    1  0.1246400E-009  0.4778727E+02  0.7816164E-02  0.1312668E+00
        -11   -1    0    0    0    0  0.00000000000E+00  0.00000000000E+00  0.45593999997E+02  0.45594000000E+02  0.51100000000E-03 0.  1.
         11   -1    0    0    0    0 -0.00000000000E+00 -0.00000000000E+00 -0.45593999997E+02  0.45594000000E+02  0.51100000000E-03 0. -1.
    9900012    2    1    2    0    0  0.52672661007E+01 -0.82421583621E+01  0.42284108630E+02  0.47787272941E+02  0.20000008647E+02 0.  0.
         12    1    1    2    0    0 -0.52672661007E+01  0.82421583621E+01 -0.42284108630E+02  0.43400727059E+02  0.00000000000E+00 0. -1.
         11    1    3    3    0    0  0.91724507332E+01 -0.50048235767E+01  0.86209191751E+01  0.13546304263E+02  0.51100000000E-03 0. -1.
        -11    1    3    3    0    0  0.48479298270E+00  0.14015082889E+00  0.64560532198E+01  0.64757462836E+01  0.51100000000E-03 0.  1.
         12    1    3    3    0    0 -0.43899776152E+01 -0.33774856143E+01  0.27207136235E+02  0.27765222395E+02  0.00000000000E+00 0. -1.
</event>
<event>
 7    1  0.1246400E-009  0.4778727E+02  0.7816164E-02  0.1312668E+00
        -11   -1    0    0    0    0  0.00000000000E+00  0.00000000000E+00  0.45593999997E+02  0.45594000000E+02  0.51100000000E-03 0.  1.
         11   -1    0    0    0    0 -0.00000000000E+00 -0.00000000000E+00 -0.45593999997E+02  0.45594000000E+02  0.51100000000E-03 0. -1.
    9900012    2    1    2    0    0  0.36429444026E+02  0.11139653834E+02  0.20794881813E+02  0.47787269716E+02  0.19999993943E+02 0.  0.
         12    1    1    2    0    0 -0.36429444026E+02 -0.11139653834E+02 -0.20794881813E+02  0.43400730284E+02  0.00000000000E+00 0. -1.
         11    1    3    3    0    0  0.19158950068E+02  0.12628761424E+02  0.68422854524E+01  0.23945100821E+02  0.51100000000E-03 0. -1.
        -11    1    3    3    0    0  0.76991851293E+01  0.81390140117E+00  0.11208444816E+02  0.13622375806E+02  0.51100000000E-03 0.  1.
        -12    1    3    3    0    0  0.95713088279E+01 -0.23030089916E+01  0.27441515451E+01  0.10219793090E+02  0.00000000000E+00 0.  1.
</event>
<event>
 7    1  0.1246400E-009  0.4778727E+02  0.7816164E-02  0.1312668E+00
        -11   -1    0    0    0    0  0.00000000000E+00  0.00000000000E+00  0.45593999997E+02  0.45594000000E+02  0.51100000000E-03 0. -1.
         11   -1    0    0    0    0 -0.00000000000E+00 -0.00000000000E+00 -0.45593999997E+02  0.45594000000E+02  0.51100000000E-03 0.  1.
    9900012    2    1    2    0    0 -0.27454054466E+02  0.32753177485E+02  0.75582951994E+01  0.47787267653E+02  0.19999984536E+02 0.  0.
         12    1    1    2    0    0  0.27454054466E+02 -0.32753177485E+02 -0.75582951994E+01  0.43400732347E+02  0.00000000000E+00 0. -1.
         11    1    3    3    0    0 -0.48487409904E+00 -0.18751339063E+01 -0.99059133136E+00  0.21754313378E+01  0.51100000000E-03 0. -1.
        -11    1    3    3    0    0 -0.18021402721E+02  0.16032732669E+02  0.35735924450E+01  0.24384216947E+02  0.51100000000E-03 0.  1.
        -12    1    3    3    0    0 -0.89477776456E+01  0.18595578722E+02  0.49752940858E+01  0.21227619368E+02  0.00000000000E+00 0.  1.
</event>
<event>
 7    1  0.1246400E-009  0.4778727E+02  0.7816164E-02  0.1312668E+00
        -11   -1    0    0    0    0  0.00000000000E+00  0.00000000000E+00  0.45593999997E+02  0.45594000000E+02  0.51100000000E-03 0.  1.
         11   -1    0    0    0    0 -0.00000000000E+00 -0.00000000000E+00 -0.45593999997E+02  0.45594000000E+02  0.51100000000E-03 0. -1.
    9900012    2    1    2    0    0 -0.25534013964E+02 -0.34809357620E+02  0.44660927312E+01  0.47787271535E+02  0.20000002236E+02 0.  0.
         12    1    1    2    0    0  0.25534013964E+02  0.34809357620E+02 -0.44660927312E+01  0.43400728465E+02  0.00000000000E+00 0. -1.
         11    1    3    3    0    0 -0.16511546738E+00 -0.16382541926E+01 -0.42041433153E+01  0.45150815268E+01  0.51100000000E-03 0. -1.
        -11    1    3    3    0    0 -0.13461742290E+02 -0.21357207213E+02  0.23785695467E+01  0.25357570838E+02  0.51100000000E-03 0.  1.
        -12    1    3    3    0    0 -0.11907156206E+02 -0.11813896214E+02  0.62916664998E+01  0.17914619170E+02  0.00000000000E+00 0.  1.
</event>
<event>
 7    1  0.1246400E-009  0.4778727E+02  0.7816164E-02  0.1312668E+00
        -11   -1    0    0    0    0  0.00000000000E+00  0.00000000000E+00  0.45593999997E+02  0.45594000000E+02  0.51100000000E-03 0.  1.
         11   -1    0    0    0    0 -0.00000000000E+00 -0.00000000000E+00 -0.45593999997E+02  0.45594000000E+02  0.51100000000E-03 0. -1.
    9900012    2    1    2    0    0  0.48930272867E+01  0.17074054438E+02  0.39599979280E+02  0.47787269477E+02  0.19999992853E+02 0.  0.
         12    1    1    2    0    0 -0.48930272867E+01 -0.17074054438E+02 -0.39599979280E+02  0.43400730523E+02  0.00000000000E+00 0. -1.
         11    1    3    3    0    0  0.22165099738E+01  0.22778061989E+01  0.12631385154E+01  0.34200638464E+01  0.51100000000E-03 0. -1.
        -11    1    3    3    0    0 -0.49834253783E+01  0.81070699216E+01  0.29144745665E+02  0.30659016804E+02  0.51100000000E-03 0.  1.
        -12    1    3    3    0    0  0.76599426912E+01  0.66891783176E+01  0.91920950990E+01  0.13708188827E+02  0.00000000000E+00 0.  1.
</event>
<event>
 7    1  0.1246400E-009  0.4778727E+02  0.7816164E-02  0.1312668E+00
        -11   -1    0    0    0    0  0.00000000000E+00  0.00000000000E+00  0.45593999997E+02  0.45594000000E+02  0.51100000000E-03 0.  1.
         11   -1    0    0    0    0 -0.00000000000E+00 -0.00000000000E+00 -0.45593999997E+02  0.45594000000E+02  0.51100000000E-03 0. -1.
    9900012    2    1    2    0    0  0.82286046973E+01 -0.30696307628E+01  0.42502833215E+02  0.47787269596E+02  0.19999993398E+02 0.  0.
         12    1    1    2    0    0 -0.82286046973E+01  0.30696307628E+01 -0.42502833215E+02  0.43400730404E+02  0.00000000000E+00 0. -1.
         11    1    3    3    0    0  0.29376257657E+01 -0.26973892088E+01 -0.38325397715E+00  0.40065493327E+01  0.51100000000E-03 0. -1.
        -11    1    3    3    0    0  0.46586104003E+01  0.19059607756E+01  0.15589673206E+02  0.16382101461E+02  0.51100000000E-03 0.  1.
        -12    1    3    3    0    0  0.63236853128E+00 -0.22782023295E+01  0.27296413986E+02  0.27398618803E+02  0.00000000000E+00 0.  1.
</event>
<event>
 7    1  0.1246400E-009  0.4778725E+02  0.7816164E-02  0.1312668E+00
        -11   -1    0    0    0    0  0.00000000000E+00  0.00000000000E+00  0.45593999997E+02  0.45594000000E+02  0.51100000000E-03 0. -1.
         11   -1    0    0    0    0 -0.00000000000E+00 -0.00000000000E+00 -0.45593999997E+02  0.45594000000E+02  0.51100000000E-03 0.  1.
    9900012    2    1    2    0    0  0.13188152356E+02  0.29017614048E+02 -0.29456331098E+02  0.47787254277E+02  0.19999923549E+02 0.  0.
         12    1    1    2    0    0 -0.13188152356E+02 -0.29017614048E+02  0.29456331098E+02  0.43400745723E+02  0.00000000000E+00 0. -1.
         11    1    3    3    0    0  0.57225817517E+01  0.12219744999E+02 -0.17594351555E+02  0.22172760690E+02  0.51100000000E-03 0. -1.
        -11    1    3    3    0    0  0.89071636806E+01  0.14195986680E+02 -0.14092429432E+02  0.21896578961E+02  0.51100000000E-03 0.  1.
         12    1    3    3    0    0 -0.14415930762E+01  0.26018823681E+01  0.22304498882E+01  0.37179146250E+01  0.00000000000E+00 0. -1.
</event>
<event>
 7    1  0.1246400E-009  0.4778727E+02  0.7816164E-02  0.1312668E+00
        -11   -1    0    0    0    0  0.00000000000E+00  0.00000000000E+00  0.45593999997E+02  0.45594000000E+02  0.51100000000E-03 0.  1.
         11   -1    0    0    0    0 -0.00000000000E+00 -0.00000000000E+00 -0.45593999997E+02  0.45594000000E+02  0.51100000000E-03 0. -1.
    9900012    2    1    2    0    0  0.25221276958E+02  0.95184199347E+01  0.34013382733E+02  0.47787270347E+02  0.19999996821E+02 0.  0.
         12    1    1    2    0    0 -0.25221276958E+02 -0.95184199347E+01 -0.34013382733E+02  0.43400729653E+02  0.00000000000E+00 0. -1.
         11    1    3    3    0    0  0.10719900594E+01  0.52691638991E+01  0.92341986338E+01  0.10685676186E+02  0.51100000000E-03 0. -1.
        -11    1    3    3    0    0  0.12268134182E+02  0.83965033316E+01  0.15414753768E+02  0.21415485484E+02  0.51100000000E-03 0.  1.
        -12    1    3    3    0    0  0.11881152717E+02 -0.41472472960E+01  0.93644303306E+01  0.15686108678E+02  0.00000000000E+00 0.  1.
</event>
<event>
 7    1  0.1246400E-009  0.4778727E+02  0.7816164E-02  0.1312668E+00
        -11   -1    0    0    0    0  0.00000000000E+00  0.00000000000E+00  0.45593999997E+02  0.45594000000E+02  0.51100000000E-03 0. -1.
         11   -1    0    0    0    0 -0.00000000000E+00 -0.00000000000E+00 -0.45593999997E+02  0.45594000000E+02  0.51100000000E-03 0.  1.
    9900012    2    1    2    0    0  0.11969184324E+02  0.37117213731E+02 -0.19044002045E+02  0.47787274863E+02  0.20000017410E+02 0.  0.
         12    1    1    2    0    0 -0.11969184324E+02 -0.37117213731E+02  0.19044002045E+02  0.43400725137E+02  0.00000000000E+00 0. -1.
         11    1    3    3    0    0  0.39533374069E+01  0.77597706301E+01 -0.10260616954E+02  0.13458201121E+02  0.51100000000E-03 0. -1.
        -11    1    3    3    0    0  0.30671327335E+01  0.26886443405E+02 -0.96506248632E+01  0.28730170600E+02  0.51100000000E-03 0.  1.
         12    1    3    3    0    0  0.49487141836E+01  0.24709996957E+01  0.86723977256E+00  0.55989031417E+01  0.00000000000E+00 0. -1.
</event>
<event>
 7    1  0.1246400E-009  0.4778726E+02  0.7816164E-02  0.1312668E+00
        -11   -1    0    0    0    0  0.00000000000E+00  0.00000000000E+00  0.45593999997E+02  0.45594000000E+02  0.51100000000E-03 0.  1.
         11   -1    0    0    0    0 -0.00000000000E+00 -0.00000000000E+00 -0.45593999997E+02  0.45594000000E+02  0.51100000000E-03 0. -1.
    9900012    2    1    2    0    0 -0.56062252536E+01 -0.22410881019E+02  0.36741621499E+02  0.47787261527E+02  0.19999956605E+02 0.  0.
         12    1    1    2    0    0  0.56062252536E+01  0.22410881019E+02 -0.36741621499E+02  0.43400738473E+02  0.00000000000E+00 0. -1.
         11    1    3    3    0    0  0.11323170131E+01  0.25127540553E+01  0.24968843029E+00  0.27673849270E+01  0.51100000000E-03 0. -1.
        -11    1    3    3    0    0 -0.52569888555E+01 -0.13308276540E+02  0.16399679631E+02  0.21764550273E+02  0.51100000000E-03 0.  1.
        -12    1    3    3    0    0 -0.14815534112E+01 -0.11615358533E+02  0.20092253438E+02  0.23255326327E+02  0.00000000000E+00 0.  1.
</event>
<event>
 7    1  0.1246400E-009  0.4778727E+02  0.7816164E-02  0.1312668E+00
        -11   -1    0    0    0    0  0.00000000000E+00  0.00000000000E+00  0.45593999997E+02  0.45594000000E+02  0.51100000000E-03 0.  1.
         11   -1    0    0    0    0 -0.00000000000E+00 -0.00000000000E+00 -0.45593999997E+02  0.45594000000E+02  0.51100000000E-03 0. -1.
    9900012    2    1    2    0    0 -0.27233069430E+02 -0.21382101565E+02  0.26168473401E+02  0.47787270305E+02  0.19999996627E+02 0.  0.
         12    1    1    2    0    0  0.27233069430E+02  0.21382101565E+02 -0.26168473401E+02  0.43400729695E+02  0.00000000000E+00 0. -1.
         11    1    3    3    0    0 -0.59480329329E+01 -0.88355588486E-01  0.35039404756E+01  0.69039482616E+01  0.51100000000E-03 0. -1.
        -11    1    3    3    0    0 -0.17739840342E+02 -0.23713835575E+02  0.20874980293E+02  0.36232757769E+02  0.51100000000E-03 0.  1.
        -12    1    3    3    0    0 -0.35451961550E+01  0.24200895982E+01  0.17895526328E+01  0.46505642740E+01  0.00000000000E+00 0.  1.
</event>
<event>
 7    1  0.1246400E-009  0.4778726E+02  0.7816164E-02  0.1312668E+00
        -11   -1    0    0    0    0  0.00000000000E+00  0.00000000000E+00  0.45593999997E+02  0.45594000000E+02  0.51100000000E-03 0. -1.
         11   -1    0    0    0    0 -0.00000000000E+00 -0.00000000000E+00 -0.45593999997E+02  0.45594000000E+02  0.51100000000E-03 0.  1.
    9900012    2    1    2    0    0  0.30870791612E+01 -0.37727703194E+01 -0.43126102777E+02  0.47787255831E+02  0.19999930638E+02 0.  0.
         12    1    1    2    0    0 -0.30870791612E+01  0.37727703194E+01  0.43126102777E+02  0.43400744169E+02  0.00000000000E+00 0. -1.
         11    1    3    3    0    0  0.44629588355E+01  0.25262576137E+01 -0.10430732650E+02  0.11623259567E+02  0.51100000000E-03 0. -1.
        -11    1    3    3    0    0  0.48283253068E+01  0.15212234980E+01 -0.15203361304E+02  0.16024014522E+02  0.51100000000E-03 0.  1.
         12    1    3    3    0    0 -0.62042049811E+01 -0.78202514312E+01 -0.17492008824E+02  0.20139981742E+02  0.00000000000E+00 0. -1.
</event>
<event>
 7    1  0.1246400E-009  0.4778727E+02  0.7816164E-02  0.1312668E+00
        -11   -1    0    0    0    0  0.00000000000E+00  0.00000000000E+00  0.45593999997E+02  0.45594000000E+02  0.51100000000E-03 0.  1.
         11   -1    0    0    0    0 -0.00000000000E+00 -0.00000000000E+00 -0.45593999997E+02  0.45594000000E+02  0.51100000000E-03 0. -1.
    9900012    2    1    2    0    0 -0.12877412239E+02 -0.40960596568E+02  0.63265563787E+01  0.47787268062E+02  0.19999986400E+02 0.  0.
         12    1    1    2    0    0  0.12877412239E+02  0.40960596568E+02 -0.63265563787E+01  0.43400731938E+02  0.00000000000E+00 0. -1.
         11    1    3    3    0    0 -0.97777221598E+01 -0.28130512331E+02 -0.72755008784E+00  0.29790248472E+02  0.51100000000E-03 0. -1.
        -11    1    3    3    0    0 -0.43455962537E+01 -0.87209719090E+00  0.10338004895E+01  0.45512090727E+01  0.51100000000E-03 0.  1.
        -12    1    3    3    0    0  0.12459061749E+01 -0.11957987047E+02  0.60203059771E+01  0.13445810517E+02  0.00000000000E+00 0.  1.
</event>
<event>
 7    1  0.1246400E-009  0.4778727E+02  0.7816164E-02  0.1312668E+00
        -11   -1    0    0    0    0  0.00000000000E+00  0.00000000000E+00  0.45593999997E+02  0.45594000000E+02  0.51100000000E-03 0.  1.
         11   -1    0    0    0    0 -0.00000000000E+00 -0.00000000000E+00 -0.45593999997E+02  0.45594000000E+02  0.51100000000E-03 0. -1.
    9900012    2    1    2    0    0  0.11828238721E+01  0.30894915159E+02  0.30458629469E+02  0.47787274613E+02  0.20000016271E+02 0.  0.
         12    1    1    2    0    0 -0.11828238721E+01 -0.30894915159E+02 -0.30458629469E+02  0.43400725387E+02  0.00000000000E+00 0. -1.
         11    1    3    3    0    0 -0.21774654104E+01  0.60958162853E+01  0.17781067756E+02  0.18922650518E+02  0.51100000000E-03 0. -1.
        -11    1    3    3    0    0  0.30814984618E+01  0.65483753364E+01  0.12911927011E+01  0.73514645595E+01  0.51100000000E-03 0.  1.
        -12    1    3    3    0    0  0.27879082071E+00  0.18250723537E+02  0.11386369012E+02  0.21513159536E+02  0.00000000000E+00 0.  1.
</event>
<event>
 7    1  0.1246400E-009  0.4778727E+02  0.7816164E-02  0.1312668E+00
        -11   -1    0    0    0    0  0.00000000000E+00  0.00000000000E+00  0.45593999997E+02  0.45594000000E+02  0.51100000000E-03 0. -1.
         11   -1    0    0    0    0 -0.00000000000E+00 -0.00000000000E+00 -0.45593999997E+02  0.45594000000E+02  0.51100000000E-03 0.  1.
    9900012    2    1    2    0    0 -0.36354935230E+02  0.36276674741E+01  0.23426097588E+02  0.47787270339E+02  0.19999996784E+02 0.  0.
         12    1    1    2    0    0  0.36354935230E+02 -0.36276674741E+01 -0.23426097588E+02  0.43400729661E+02  0.00000000000E+00 0. -1.
         11    1    3    3    0    0 -0.23299337600E+02  0.72593945637E+00  0.10711863836E+02  0.25654047396E+02  0.51100000000E-03 0.  1.
        -11    1    3    3    0    0 -0.10897272510E+02  0.20095339048E+01  0.15142641596E+02  0.18764017945E+02  0.51100000000E-03 0. -1.
        -12    1    3    3    0    0 -0.21583251205E+01  0.89219411298E+00 -0.24284078444E+01  0.33692049982E+01  0.00000000000E+00 0.  1.
</event>
<event>
 7    1  0.1246400E-009  0.4778727E+02  0.7816164E-02  0.1312668E+00
        -11   -1    0    0    0    0  0.00000000000E+00  0.00000000000E+00  0.45593999997E+02  0.45594000000E+02  0.51100000000E-03 0.  1.
         11   -1    0    0    0    0 -0.00000000000E+00 -0.00000000000E+00 -0.45593999997E+02  0.45594000000E+02  0.51100000000E-03 0. -1.
    9900012    2    1    2    0    0  0.35840550369E+02 -0.62908382374E+01  0.23653822440E+02  0.47787274056E+02  0.20000013730E+02 0.  0.
         12    1    1    2    0    0 -0.35840550369E+02  0.62908382374E+01 -0.23653822440E+02  0.43400725944E+02  0.00000000000E+00 0. -1.
         11    1    3    3    0    0  0.16942301788E+02 -0.33492970998E+01  0.20009313606E+02  0.26431647928E+02  0.51100000000E-03 0.  1.
        -11    1    3    3    0    0  0.42338146156E-01  0.53331477460E+00  0.20470164264E+01  0.21157725961E+01  0.51100000000E-03 0. -1.
        -12    1    3    3    0    0  0.18855910434E+02 -0.34748559122E+01  0.15974924074E+01  0.19239853531E+02  0.00000000000E+00 0.  1.
</event>
<event>
 7    1  0.1246400E-009  0.4778728E+02  0.7816164E-02  0.1312668E+00
        -11   -1    0    0    0    0  0.00000000000E+00  0.00000000000E+00  0.45593999997E+02  0.45594000000E+02  0.51100000000E-03 0. -1.
         11   -1    0    0    0    0 -0.00000000000E+00 -0.00000000000E+00 -0.45593999997E+02  0.45594000000E+02  0.51100000000E-03 0.  1.
    9900012    2    1    2    0    0  0.30732973863E+02 -0.25373463702E+02 -0.17184115494E+02  0.47787283785E+02  0.20000058088E+02 0.  0.
         12    1    1    2    0    0 -0.30732973863E+02  0.25373463702E+02  0.17184115494E+02  0.43400716215E+02  0.00000000000E+00 0. -1.
         11    1    3    3    0    0  0.84726901237E+01 -0.16710084224E+01  0.50623714050E+00  0.86507238647E+01  0.51100000000E-03 0. -1.
        -11    1    3    3    0    0  0.11346318221E+02 -0.20540257238E+02 -0.10650193093E+02  0.25769511399E+02  0.51100000000E-03 0.  1.
         12    1    3    3    0    0  0.10913965518E+02 -0.31621980415E+01 -0.70401595412E+01  0.13367048521E+02  0.00000000000E+00 0. -1.
</event>
<event>
 7    1  0.1246400E-009  0.4778727E+02  0.7816164E-02  0.1312668E+00
        -11   -1    0    0    0    0  0.00000000000E+00  0.00000000000E+00  0.45593999997E+02  0.45594000000E+02  0.51100000000E-03 0.  1.
         11   -1    0    0    0    0 -0.00000000000E+00 -0.00000000000E+00 -0.45593999997E+02  0.45594000000E+02  0.51100000000E-03 0. -1.
    9900012    2    1    2    0    0 -0.25138267573E+02 -0.23678232209E+02  0.26287490547E+02  0.47787270324E+02  0.19999996717E+02 0.  0.
         12    1    1    2    0    0  0.25138267573E+02  0.23678232209E+02 -0.26287490547E+02  0.43400729676E+02  0.00000000000E+00 0. -1.
         11    1    3    3    0    0 -0.14760363073E+02 -0.13209196100E+02  0.25502488598E+02  0.32291300758E+02  0.51100000000E-03 0.  1.
        -11    1    3    3    0    0 -0.38356021511E+01 -0.24203160246E+01 -0.16770364496E+01  0.48355170391E+01  0.51100000000E-03 0. -1.
        -12    1    3    3    0    0 -0.65423023490E+01 -0.80487200842E+01  0.24620383985E+01  0.10660452528E+02  0.00000000000E+00 0.  1.
</event>
<event>
 7    1  0.1246400E-009  0.4778727E+02  0.7816164E-02  0.1312668E+00
        -11   -1    0    0    0    0  0.00000000000E+00  0.00000000000E+00  0.45593999997E+02  0.45594000000E+02  0.51100000000E-03 0.  1.
         11   -1    0    0    0    0 -0.00000000000E+00 -0.00000000000E+00 -0.45593999997E+02  0.45594000000E+02  0.51100000000E-03 0. -1.
    9900012    2    1    2    0    0 -0.11226701771E+02 -0.23888542193E+02  0.34451732426E+02  0.47787272496E+02  0.20000006616E+02 0.  0.
         12    1    1    2    0    0  0.11226701771E+02  0.23888542193E+02 -0.34451732426E+02  0.43400727504E+02  0.00000000000E+00 0. -1.
         11    1    3    3    0    0 -0.23157290372E+01 -0.37472196919E+01 -0.10310474183E+01  0.45240817226E+01  0.51100000000E-03 0. -1.
        -11    1    3    3    0    0 -0.10436184944E+02 -0.17614097799E+02  0.24691828992E+02  0.32075797990E+02  0.51100000000E-03 0.  1.
         12    1    3    3    0    0  0.15252122106E+01 -0.25272247025E+01  0.10790950853E+02  0.11187392783E+02  0.00000000000E+00 0. -1.
</event>
<event>
 7    1  0.1246400E-009  0.4778727E+02  0.7816164E-02  0.1312668E+00
        -11   -1    0    0    0    0  0.00000000000E+00  0.00000000000E+00  0.45593999997E+02  0.45594000000E+02  0.51100000000E-03 0.  1.
         11   -1    0    0    0    0 -0.00000000000E+00 -0.00000000000E+00 -0.45593999997E+02  0.45594000000E+02  0.51100000000E-03 0. -1.
    9900012    2    1    2    0    0  0.28600359433E+02 -0.31734175650E+02  0.76540714279E+01  0.47787271051E+02  0.20000000028E+02 0.  0.
         12    1    1    2    0    0 -0.28600359433E+02  0.31734175650E+02 -0.76540714279E+01  0.43400728949E+02  0.00000000000E+00 0. -1.
         11    1    3    3    0    0 -0.54424879450E+00 -0.16932673665E+01  0.17633243515E+01  0.25045307254E+01  0.51100000000E-03 0. -1.
        -11    1    3    3    0    0  0.22677436017E+02 -0.14634734372E+02 -0.14592069648E+01  0.27029073969E+02  0.51100000000E-03 0.  1.
        -12    1    3    3    0    0  0.64671722110E+01 -0.15406173912E+02  0.73499540413E+01  0.18253666356E+02  0.00000000000E+00 0.  1.
</event>
<event>
 7    1  0.1246400E-009  0.4778727E+02  0.7816164E-02  0.1312668E+00
        -11   -1    0    0    0    0  0.00000000000E+00  0.00000000000E+00  0.45593999997E+02  0.45594000000E+02  0.51100000000E-03 0. -1.
         11   -1    0    0    0    0 -0.00000000000E+00 -0.00000000000E+00 -0.45593999997E+02  0.45594000000E+02  0.51100000000E-03 0.  1.
    9900012    2    1    2    0    0  0.80669241194E+00 -0.40251658458E+02 -0.16210385237E+02  0.47787270158E+02  0.19999995959E+02 0.  0.
         12    1    1    2    0    0 -0.80669241194E+00  0.40251658458E+02  0.16210385237E+02  0.43400729842E+02  0.00000000000E+00 0. -1.
         11    1    3    3    0    0  0.34250997718E+01 -0.22415170571E+01  0.75082105941E+00  0.41616630917E+01  0.51100000000E-03 0. -1.
        -11    1    3    3    0    0 -0.57681162019E+01 -0.18503423344E+02 -0.34443630673E+01  0.19685311204E+02  0.51100000000E-03 0.  1.
         12    1    3    3    0    0  0.31497088421E+01 -0.19506718057E+02 -0.13516843229E+02  0.23940295863E+02  0.00000000000E+00 0. -1.
</event>
<event>
 7    1  0.1246400E-009  0.4778728E+02  0.7816164E-02  0.1312668E+00
        -11   -1    0    0    0    0  0.00000000000E+00  0.00000000000E+00  0.45593999997E+02  0.45594000000E+02  0.51100000000E-03 0.  1.
         11   -1    0    0    0    0 -0.00000000000E+00 -0.00000000000E+00 -0.45593999997E+02  0.45594000000E+02  0.51100000000E-03 0. -1.
    9900012    2    1    2    0    0 -0.39043779633E+02 -0.95426039568E+01  0.16375127810E+02  0.47787276168E+02  0.20000023362E+02 0.  0.
         12    1    1    2    0    0  0.39043779633E+02  0.95426039568E+01 -0.16375127810E+02  0.43400723832E+02  0.00000000000E+00 0. -1.
         11    1    3    3    0    0  0.91250001961E+00 -0.27985918311E+01  0.41784273437E+01  0.51111669754E+01  0.51100000000E-03 0. -1.
        -11    1    3    3    0    0 -0.15878488260E+02 -0.25023759243E+01  0.20462549629E+01  0.16204179532E+02  0.51100000000E-03 0.  1.
         12    1    3    3    0    0 -0.24077791393E+02 -0.42416362013E+01  0.10150445504E+02  0.26471929661E+02  0.00000000000E+00 0. -1.
</event>
<event>
 7    1  0.1246400E-009  0.4778727E+02  0.7816164E-02  0.1312668E+00
        -11   -1    0    0    0    0  0.00000000000E+00  0.00000000000E+00  0.45593999997E+02  0.45594000000E+02  0.51100000000E-03 0.  1.
         11   -1    0    0    0    0 -0.00000000000E+00 -0.00000000000E+00 -0.45593999997E+02  0.45594000000E+02  0.51100000000E-03 0. -1.
    9900012    2    1    2    0    0  0.43239802828E+02 -0.10678901196E+01  0.35780893502E+01  0.47787266581E+02  0.19999979648E+02 0.  0.
         12    1    1    2    0    0 -0.43239802828E+02  0.10678901196E+01 -0.35780893502E+01  0.43400733419E+02  0.00000000000E+00 0. -1.
         11    1    3    3    0    0  0.63021518050E+01 -0.41588246478E+00  0.42942707746E+01  0.76374627556E+01  0.51100000000E-03 0. -1.
        -11    1    3    3    0    0  0.18516181730E+02 -0.20271354369E+01  0.73085820085E+01  0.20009338699E+02  0.51100000000E-03 0.  1.
         12    1    3    3    0    0  0.18421469294E+02  0.13751277821E+01 -0.80247634328E+01  0.20140465126E+02  0.00000000000E+00 0. -1.
</event>
<event>
 7    1  0.1246400E-009  0.4778727E+02  0.7816164E-02  0.1312668E+00
        -11   -1    0    0    0    0  0.00000000000E+00  0.00000000000E+00  0.45593999997E+02  0.45594000000E+02  0.51100000000E-03 0.  1.
         11   -1    0    0    0    0 -0.00000000000E+00 -0.00000000000E+00 -0.45593999997E+02  0.45594000000E+02  0.51100000000E-03 0. -1.
    9900012    2    1    2    0    0  0.35676465960E+02 -0.24602149854E+02  0.23552448680E+01  0.47787272135E+02  0.20000004972E+02 0.  0.
         12    1    1    2    0    0 -0.35676465960E+02  0.24602149854E+02 -0.23552448680E+01  0.43400727865E+02  0.00000000000E+00 0. -1.
         11    1    3    3    0    0  0.15360480129E+02 -0.39748585208E+01  0.28707974487E+01  0.16124060540E+02  0.51100000000E-03 0. -1.
        -11    1    3    3    0    0  0.21577615679E+02 -0.20857117269E+02 -0.14982561023E+01  0.30047589101E+02  0.51100000000E-03 0.  1.
         12    1    3    3    0    0 -0.12616298477E+01  0.22982593562E+00  0.98270352159E+00  0.16156224945E+01  0.00000000000E+00 0. -1.
</event>
<event>
 7    1 -0.1673791E-009  0.4778727E+02  0.7816164E-02  0.1312668E+00
        -11   -1    0    0    0    0  0.00000000000E+00  0.00000000000E+00  0.45593999997E+02  0.45594000000E+02  0.51100000000E-03 0. -1.
         11   -1    0    0    0    0 -0.00000000000E+00 -0.00000000000E+00 -0.45593999997E+02  0.45594000000E+02  0.51100000000E-03 0.  1.
    9900012    2    1    2    0    0 -0.33445594433E+02 -0.27558958655E+02  0.23492870297E+01  0.47787272602E+02  0.20000007104E+02 0.  0.
         12    1    1    2    0    0  0.33445594433E+02  0.27558958655E+02 -0.23492870297E+01  0.43400727398E+02  0.00000000000E+00 0. -1.
         11    1    3    3    0    0 -0.52030644171E+01 -0.10625260197E+02 -0.50865455603E+01  0.12877926059E+02  0.51100000000E-03 0. -1.
        -11    1    3    3    0    0 -0.13537012244E+02 -0.49744471673E+01 -0.32940068585E+00  0.14425821647E+02  0.51100000000E-03 0.  1.
         12    1    3    3    0    0 -0.14705517772E+02 -0.11959251290E+02  0.77652332759E+01  0.20483524896E+02  0.00000000000E+00 0. -1.
</event>
<event>
 7    1  0.1246400E-009  0.4778727E+02  0.7816164E-02  0.1312668E+00
        -11   -1    0    0    0    0  0.00000000000E+00  0.00000000000E+00  0.45593999997E+02  0.45594000000E+02  0.51100000000E-03 0.  1.
         11   -1    0    0    0    0 -0.00000000000E+00 -0.00000000000E+00 -0.45593999997E+02  0.45594000000E+02  0.51100000000E-03 0. -1.
    9900012    2    1    2    0    0  0.40880502761E+02 -0.95046930438E+01  0.11048467567E+02  0.47787270381E+02  0.19999996977E+02 0.  0.
         12    1    1    2    0    0 -0.40880502761E+02  0.95046930438E+01 -0.11048467567E+02  0.43400729619E+02  0.00000000000E+00 0. -1.
         11    1    3    3    0    0  0.18208408150E+02 -0.23429545678E+01  0.91916661501E+01  0.20531008020E+02  0.51100000000E-03 0. -1.
        -11    1    3    3    0    0  0.22150503368E+02 -0.35654415480E+01 -0.12569117290E+01  0.22470803284E+02  0.51100000000E-03 0.  1.
        -12    1    3    3    0    0  0.52159124326E+00 -0.35962969280E+01  0.31137131463E+01  0.47854590769E+01  0.00000000000E+00 0.  1.
</event>
<event>
 7    1  0.1246400E-009  0.4778727E+02  0.7816164E-02  0.1312668E+00
        -11   -1    0    0    0    0  0.00000000000E+00  0.00000000000E+00  0.45593999997E+02  0.45594000000E+02  0.51100000000E-03 0.  1.
         11   -1    0    0    0    0 -0.00000000000E+00 -0.00000000000E+00 -0.45593999997E+02  0.45594000000E+02  0.51100000000E-03 0. -1.
    9900012    2    1    2    0    0  0.30069532911E+02 -0.10858287219E+02  0.29352074099E+02  0.47787268846E+02  0.19999989975E+02 0.  0.
         12    1    1    2    0    0 -0.30069532911E+02  0.10858287219E+02 -0.29352074099E+02  0.43400731154E+02  0.00000000000E+00 0. -1.
         11    1    3    3    0    0  0.18102893496E+02 -0.12672262459E+02  0.21296720946E+02  0.30689596154E+02  0.51100000000E-03 0. -1.
        -11    1    3    3    0    0  0.90497987135E+01  0.18565494566E+01  0.99825897289E+01  0.13601387084E+02  0.51100000000E-03 0.  1.
        -12    1    3    3    0    0  0.29168407010E+01 -0.42574216369E-01 -0.19272365753E+01  0.34962856085E+01  0.00000000000E+00 0.  1.
</event>
<event>
 7    1  0.1246400E-009  0.4778727E+02  0.7816164E-02  0.1312668E+00
        -11   -1    0    0    0    0  0.00000000000E+00  0.00000000000E+00  0.45593999997E+02  0.45594000000E+02  0.51100000000E-03 0. -1.
         11   -1    0    0    0    0 -0.00000000000E+00 -0.00000000000E+00 -0.45593999997E+02  0.45594000000E+02  0.51100000000E-03 0.  1.
    9900012    2    1    2    0    0 -0.38982884384E+02  0.35534588954E+01 -0.18743827988E+02  0.47787269215E+02  0.19999991658E+02 0.  0.
         12    1    1    2    0    0  0.38982884384E+02 -0.35534588954E+01  0.18743827988E+02  0.43400730785E+02  0.00000000000E+00 0. -1.
         11    1    3    3    0    0 -0.22504551401E+02  0.25732933520E+01 -0.11560835222E+02  0.25430878548E+02  0.51100000000E-03 0.  1.
        -11    1    3    3    0    0 -0.18701156123E+02 -0.94358484836E-01 -0.64045974763E+01  0.19767675962E+02  0.51100000000E-03 0. -1.
         12    1    3    3    0    0  0.22228231393E+01  0.10745240283E+01 -0.77839529013E+00  0.25887147050E+01  0.00000000000E+00 0. -1.
</event>
<event>
 7    1  0.1246400E-009  0.4778727E+02  0.7816164E-02  0.1312668E+00
        -11   -1    0    0    0    0  0.00000000000E+00  0.00000000000E+00  0.45593999997E+02  0.45594000000E+02  0.51100000000E-03 0.  1.
         11   -1    0    0    0    0 -0.00000000000E+00 -0.00000000000E+00 -0.45593999997E+02  0.45594000000E+02  0.51100000000E-03 0. -1.
    9900012    2    1    2    0    0  0.91322316098E+01 -0.75444499237E+01  0.41752925302E+02  0.47787272471E+02  0.20000006503E+02 0.  0.
         12    1    1    2    0    0 -0.91322316098E+01  0.75444499237E+01 -0.41752925302E+02  0.43400727529E+02  0.00000000000E+00 0. -1.
         11    1    3    3    0    0  0.48732539214E+01 -0.29619220190E+01  0.15408008518E+02  0.16429495201E+02  0.51100000000E-03 0. -1.
        -11    1    3    3    0    0 -0.45046516677E+01  0.29968707878E+01  0.89048708457E+01  0.10419685514E+02  0.51100000000E-03 0.  1.
        -12    1    3    3    0    0  0.87636293561E+01 -0.75793986926E+01  0.17440045938E+02  0.20938091756E+02  0.00000000000E+00 0.  1.
</event>
<event>
 7    1  0.1246400E-009  0.4778728E+02  0.7816164E-02  0.1312668E+00
        -11   -1    0    0    0    0  0.00000000000E+00  0.00000000000E+00  0.45593999997E+02  0.45594000000E+02  0.51100000000E-03 0.  1.
         11   -1    0    0    0    0 -0.00000000000E+00 -0.00000000000E+00 -0.45593999997E+02  0.45594000000E+02  0.51100000000E-03 0. -1.
    9900012    2    1    2    0    0 -0.32102674774E+02  0.94627359290E+01  0.27631463425E+02  0.47787275698E+02  0.20000021219E+02 0.  0.
         12    1    1    2    0    0  0.32102674774E+02 -0.94627359290E+01 -0.27631463425E+02  0.43400724302E+02  0.00000000000E+00 0. -1.
         11    1    3    3    0    0 -0.13219614789E+02 -0.29577001469E+00  0.12118054176E+02  0.17935800298E+02  0.51100000000E-03 0. -1.
        -11    1    3    3    0    0 -0.13622890064E+02  0.12111595268E+02  0.15741278916E+02  0.24084470844E+02  0.51100000000E-03 0.  1.
         12    1    3    3    0    0 -0.52601699209E+01 -0.23530893247E+01 -0.22786966731E+00  0.57670045563E+01  0.00000000000E+00 0. -1.
</event>
<event>
 7    1  0.1246400E-009  0.4778728E+02  0.7816164E-02  0.1312668E+00
        -11   -1    0    0    0    0  0.00000000000E+00  0.00000000000E+00  0.45593999997E+02  0.45594000000E+02  0.51100000000E-03 0.  1.
         11   -1    0    0    0    0 -0.00000000000E+00 -0.00000000000E+00 -0.45593999997E+02  0.45594000000E+02  0.51100000000E-03 0. -1.
    9900012    2    1    2    0    0  0.27907465587E+02  0.53228346981E+01  0.32809506484E+02  0.47787275116E+02  0.20000018566E+02 0.  0.
         12    1    1    2    0    0 -0.27907465587E+02 -0.53228346981E+01 -0.32809506484E+02  0.43400724884E+02  0.00000000000E+00 0. -1.
         11    1    3    3    0    0  0.50255735870E+01  0.47610427101E+01  0.19113511151E+01  0.71817254829E+01  0.51100000000E-03 0. -1.
        -11    1    3    3    0    0  0.45947062266E+01  0.46323720542E+01  0.34707288399E+01  0.73902743588E+01  0.51100000000E-03 0.  1.
        -12    1    3    3    0    0  0.18287185774E+02 -0.40705800663E+01  0.27427426529E+02  0.33215275275E+02  0.00000000000E+00 0.  1.
</event>
<event>
 7    1  0.1246400E-009  0.4778727E+02  0.7816164E-02  0.1312668E+00
        -11   -1    0    0    0    0  0.00000000000E+00  0.00000000000E+00  0.45593999997E+02  0.45594000000E+02  0.51100000000E-03 0.  1.
         11   -1    0    0    0    0 -0.00000000000E+00 -0.00000000000E+00 -0.45593999997E+02  0.45594000000E+02  0.51100000000E-03 0. -1.
    9900012    2    1    2    0    0 -0.73518078621E+01 -0.23840858652E+02  0.35513205465E+02  0.47787269793E+02  0.19999994294E+02 0.  0.
         12    1    1    2    0    0  0.73518078621E+01  0.23840858652E+02 -0.35513205465E+02  0.43400730207E+02  0.00000000000E+00 0. -1.
         11    1    3    3    0    0  0.18506842817E+00 -0.12107846828E+02  0.35570891473E+01  0.12620898882E+02  0.51100000000E-03 0. -1.
        -11    1    3    3    0    0 -0.13305165066E+01 -0.62390936566E+01  0.13220797391E+02  0.14679443033E+02  0.51100000000E-03 0.  1.
         12    1    3    3    0    0 -0.62063597837E+01 -0.54939181672E+01  0.18735318926E+02  0.20486927878E+02  0.00000000000E+00 0. -1.
</event>
<event>
 7    1  0.1246400E-009  0.4778727E+02  0.7816164E-02  0.1312668E+00
        -11   -1    0    0    0    0  0.00000000000E+00  0.00000000000E+00  0.45593999997E+02  0.45594000000E+02  0.51100000000E-03 0.  1.
         11   -1    0    0    0    0 -0.00000000000E+00 -0.00000000000E+00 -0.45593999997E+02  0.45594000000E+02  0.51100000000E-03 0. -1.
    9900012    2    1    2    0    0  0.14026720942E+02 -0.63120006067E+01  0.40583655263E+02  0.47787270438E+02  0.19999997234E+02 0.  0.
         12    1    1    2    0    0 -0.14026720942E+02  0.63120006067E+01 -0.40583655263E+02  0.43400729562E+02  0.00000000000E+00 0. -1.
         11    1    3    3    0    0  0.15035426243E+00 -0.64403576408E+01  0.87986324870E+01  0.10904895545E+02  0.51100000000E-03 0. -1.
        -11    1    3    3    0    0  0.11645200085E+02 -0.19005595659E+01  0.11857366233E+02  0.16727819521E+02  0.51100000000E-03 0.  1.
        -12    1    3    3    0    0  0.22311665941E+01  0.20289166000E+01  0.19927656543E+02  0.20154555371E+02  0.00000000000E+00 0.  1.
</event>
<event>
 7    1  0.1246400E-009  0.4778727E+02  0.7816164E-02  0.1312668E+00
        -11   -1    0    0    0    0  0.00000000000E+00  0.00000000000E+00  0.45593999997E+02  0.45594000000E+02  0.51100000000E-03 0.  1.
         11   -1    0    0    0    0 -0.00000000000E+00 -0.00000000000E+00 -0.45593999997E+02  0.45594000000E+02  0.51100000000E-03 0. -1.
    9900012    2    1    2    0    0 -0.29301831208E+01  0.26220379283E+02  0.34460539671E+02  0.47787273540E+02  0.20000011376E+02 0.  0.
         12    1    1    2    0    0  0.29301831208E+01 -0.26220379283E+02 -0.34460539671E+02  0.43400726460E+02  0.00000000000E+00 0. -1.
         11    1    3    3    0    0  0.11946146199E+01 -0.10736480966E+01  0.90986849640E+01  0.92393664643E+01  0.51100000000E-03 0. -1.
        -11    1    3    3    0    0 -0.52808480355E+01  0.10404512534E+02  0.71568594500E+01  0.13688019378E+02  0.51100000000E-03 0.  1.
        -12    1    3    3    0    0  0.11560502947E+01  0.16889514845E+02  0.18204995257E+02  0.24859887697E+02  0.00000000000E+00 0.  1.
</event>
<event>
 7    1  0.1246400E-009  0.4778727E+02  0.7816164E-02  0.1312668E+00
        -11   -1    0    0    0    0  0.00000000000E+00  0.00000000000E+00  0.45593999997E+02  0.45594000000E+02  0.51100000000E-03 0.  1.
         11   -1    0    0    0    0 -0.00000000000E+00 -0.00000000000E+00 -0.45593999997E+02  0.45594000000E+02  0.51100000000E-03 0. -1.
    9900012    2    1    2    0    0 -0.31317103013E+02  0.11950301863E+02  0.27569050264E+02  0.47787272032E+02  0.20000004500E+02 0.  0.
         12    1    1    2    0    0  0.31317103013E+02 -0.11950301863E+02 -0.27569050264E+02  0.43400727968E+02  0.00000000000E+00 0. -1.
         11    1    3    3    0    0 -0.10848102144E+02  0.11518432637E+02  0.52749167459E+01  0.16678739685E+02  0.51100000000E-03 0. -1.
        -11    1    3    3    0    0 -0.76511009847E+01 -0.25287177184E+01  0.54159741184E+01  0.97090955032E+01  0.51100000000E-03 0.  1.
        -12    1    3    3    0    0 -0.12817899884E+02  0.29605869448E+01  0.16878159400E+02  0.21399436843E+02  0.00000000000E+00 0.  1.
</event>
<event>
 7    1  0.1246400E-009  0.4778727E+02  0.7816164E-02  0.1312668E+00
        -11   -1    0    0    0    0  0.00000000000E+00  0.00000000000E+00  0.45593999997E+02  0.45594000000E+02  0.51100000000E-03 0. -1.
         11   -1    0    0    0    0 -0.00000000000E+00 -0.00000000000E+00 -0.45593999997E+02  0.45594000000E+02  0.51100000000E-03 0.  1.
    9900012    2    1    2    0    0 -0.23308480694E+02 -0.36171485901E+02  0.56534675516E+01  0.47787270053E+02  0.19999995479E+02 0.  0.
         12    1    1    2    0    0  0.23308480694E+02  0.36171485901E+02 -0.56534675516E+01  0.43400729947E+02  0.00000000000E+00 0. -1.
         11    1    3    3    0    0 -0.18681501223E+01 -0.13430453656E+02 -0.39861163910E+00  0.13565616896E+02  0.51100000000E-03 0. -1.
        -11    1    3    3    0    0 -0.12598072228E+02 -0.11840081487E+02 -0.29614881436E+01  0.17540506429E+02  0.51100000000E-03 0.  1.
        -12    1    3    3    0    0 -0.88422583439E+01 -0.10900950758E+02  0.90135673343E+01  0.16681146728E+02  0.00000000000E+00 0.  1.
</event>
<event>
 7    1  0.1246400E-009  0.4778727E+02  0.7816164E-02  0.1312668E+00
        -11   -1    0    0    0    0  0.00000000000E+00  0.00000000000E+00  0.45593999997E+02  0.45594000000E+02  0.51100000000E-03 0.  1.
         11   -1    0    0    0    0 -0.00000000000E+00 -0.00000000000E+00 -0.45593999997E+02  0.45594000000E+02  0.51100000000E-03 0. -1.
    9900012    2    1    2    0    0 -0.14064980138E+02 -0.15650406642E+02  0.37958725128E+02  0.47787266046E+02  0.19999977211E+02 0.  0.
         12    1    1    2    0    0  0.14064980138E+02  0.15650406642E+02 -0.37958725128E+02  0.43400733954E+02  0.00000000000E+00 0. -1.
         11    1    3    3    0    0 -0.79734974865E+00  0.17155772786E+01  0.13179985300E+01  0.23056652850E+01  0.51100000000E-03 0. -1.
        -11    1    3    3    0    0 -0.13710949693E+02 -0.18420909393E+02  0.25633521092E+02  0.34415075885E+02  0.51100000000E-03 0.  1.
        -12    1    3    3    0    0  0.44331930347E+00  0.10549254726E+01  0.11007205507E+02  0.11066524876E+02  0.00000000000E+00 0.  1.
</event>
<event>
 7    1  0.1246400E-009  0.4778729E+02  0.7816164E-02  0.1312668E+00
        -11   -1    0    0    0    0  0.00000000000E+00  0.00000000000E+00  0.45593999997E+02  0.45594000000E+02  0.51100000000E-03 0.  1.
         11   -1    0    0    0    0 -0.00000000000E+00 -0.00000000000E+00 -0.45593999997E+02  0.45594000000E+02  0.51100000000E-03 0. -1.
    9900012    2    1    2    0    0  0.33489774879E+02 -0.10956125911E+02  0.25338114582E+02  0.47787288405E+02  0.20000079152E+02 0.  0.
         12    1    1    2    0    0 -0.33489774879E+02  0.10956125911E+02 -0.25338114582E+02  0.43400711595E+02  0.00000000000E+00 0. -1.
         11    1    3    3    0    0  0.15616092650E+02  0.17977452507E-01  0.17560430231E+02  0.23499603890E+02  0.51100000000E-03 0. -1.
        -11    1    3    3    0    0  0.16526371112E+02 -0.55733548437E+01  0.57745459081E+01  0.18371951640E+02  0.51100000000E-03 0.  1.
        -12    1    3    3    0    0  0.13473111166E+01 -0.54007485199E+01  0.20031384425E+01  0.59157328743E+01  0.00000000000E+00 0.  1.
</event>
<event>
 7    1  0.1246400E-009  0.4778727E+02  0.7816164E-02  0.1312668E+00
        -11   -1    0    0    0    0  0.00000000000E+00  0.00000000000E+00  0.45593999997E+02  0.45594000000E+02  0.51100000000E-03 0. -1.
         11   -1    0    0    0    0 -0.00000000000E+00 -0.00000000000E+00 -0.45593999997E+02  0.45594000000E+02  0.51100000000E-03 0.  1.
    9900012    2    1    2    0    0 -0.22989089286E+02 -0.19816770057E+02 -0.31022912806E+02  0.47787265898E+02  0.19999976534E+02 0.  0.
         12    1    1    2    0    0  0.22989089286E+02  0.19816770057E+02  0.31022912806E+02  0.43400734102E+02  0.00000000000E+00 0. -1.
         11    1    3    3    0    0 -0.62521564858E+01 -0.40940712597E+01  0.92385718154E+00  0.75302319058E+01  0.51100000000E-03 0. -1.
        -11    1    3    3    0    0 -0.74279561576E+01 -0.28480213944E+01 -0.15305756802E+02  0.17249694203E+02  0.51100000000E-03 0.  1.
        -12    1    3    3    0    0 -0.93089766424E+01 -0.12874677403E+02 -0.16641013185E+02  0.23007339789E+02  0.00000000000E+00 0.  1.
</event>
<event>
 7    1  0.1246400E-009  0.4778727E+02  0.7816164E-02  0.1312668E+00
        -11   -1    0    0    0    0  0.00000000000E+00  0.00000000000E+00  0.45593999997E+02  0.45594000000E+02  0.51100000000E-03 0.  1.
         11   -1    0    0    0    0 -0.00000000000E+00 -0.00000000000E+00 -0.45593999997E+02  0.45594000000E+02  0.51100000000E-03 0. -1.
    9900012    2    1    2    0    0 -0.70103924633E+01 -0.30589540590E+02  0.29979287678E+02  0.47787270909E+02  0.19999999381E+02 0.  0.
         12    1    1    2    0    0  0.70103924633E+01  0.30589540590E+02 -0.29979287678E+02  0.43400729091E+02  0.00000000000E+00 0. -1.
         11    1    3    3    0    0 -0.87844067541E+01 -0.20848855510E+02  0.21810041542E+02  0.31424806927E+02  0.51100000000E-03 0. -1.
        -11    1    3    3    0    0  0.21763682151E+01 -0.11712146965E+02  0.57860567996E+01  0.13243467019E+02  0.51100000000E-03 0.  1.
         12    1    3    3    0    0 -0.40235392426E+00  0.19714618844E+01  0.23831893361E+01  0.31189969628E+01  0.00000000000E+00 0. -1.
</event>
<event>
 7    1  0.1246400E-009  0.4778728E+02  0.7816164E-02  0.1312668E+00
        -11   -1    0    0    0    0  0.00000000000E+00  0.00000000000E+00  0.45593999997E+02  0.45594000000E+02  0.51100000000E-03 0.  1.
         11   -1    0    0    0    0 -0.00000000000E+00 -0.00000000000E+00 -0.45593999997E+02  0.45594000000E+02  0.51100000000E-03 0. -1.
    9900012    2    1    2    0    0  0.24661172224E+02  0.15203909201E+02  0.32315475024E+02  0.47787283456E+02  0.20000056591E+02 0.  0.
         12    1    1    2    0    0 -0.24661172224E+02 -0.15203909201E+02 -0.32315475024E+02  0.43400716544E+02  0.00000000000E+00 0. -1.
         11    1    3    3    0    0  0.75095230843E+01  0.97572552727E+01  0.57094741333E+01  0.13571848163E+02  0.51100000000E-03 0. -1.
        -11    1    3    3    0    0  0.18225096868E+02  0.70770426360E+01  0.24483493706E+02  0.31331775447E+02  0.51100000000E-03 0.  1.
         12    1    3    3    0    0 -0.10734477290E+01 -0.16303887072E+01  0.21225071850E+01  0.28836598471E+01  0.00000000000E+00 0. -1.
</event>
<event>
 7    1  0.1246400E-009  0.4778727E+02  0.7816164E-02  0.1312668E+00
        -11   -1    0    0    0    0  0.00000000000E+00  0.00000000000E+00  0.45593999997E+02  0.45594000000E+02  0.51100000000E-03 0. -1.
         11   -1    0    0    0    0 -0.00000000000E+00 -0.00000000000E+00 -0.45593999997E+02  0.45594000000E+02  0.51100000000E-03 0.  1.
    9900012    2    1    2    0    0 -0.14580527319E+02 -0.26108013193E+02 -0.31454781451E+02  0.47787269523E+02  0.19999993064E+02 0.  0.
         12    1    1    2    0    0  0.14580527319E+02  0.26108013193E+02  0.31454781451E+02  0.43400730477E+02  0.00000000000E+00 0. -1.
         11    1    3    3    0    0 -0.13893826885E+01  0.11639960150E+01 -0.20305421069E+00  0.18238701301E+01  0.51100000000E-03 0. -1.
        -11    1    3    3    0    0 -0.14250412279E+02 -0.19988157421E+02 -0.29536347476E+02  0.38405683299E+02  0.51100000000E-03 0.  1.
        -12    1    3    3    0    0  0.10592676488E+01 -0.72838517878E+01 -0.17153797640E+01  0.75577160937E+01  0.00000000000E+00 0.  1.
</event>
<event>
 7    1  0.1246400E-009  0.4778728E+02  0.7816164E-02  0.1312668E+00
        -11   -1    0    0    0    0  0.00000000000E+00  0.00000000000E+00  0.45593999997E+02  0.45594000000E+02  0.51100000000E-03 0.  1.
         11   -1    0    0    0    0 -0.00000000000E+00 -0.00000000000E+00 -0.45593999997E+02  0.45594000000E+02  0.51100000000E-03 0. -1.
    9900012    2    1    2    0    0 -0.28625296890E+02  0.15213397563E+02  0.28857705419E+02  0.47787282846E+02  0.20000053806E+02 0.  0.
         12    1    1    2    0    0  0.28625296890E+02 -0.15213397563E+02 -0.28857705419E+02  0.43400717154E+02  0.00000000000E+00 0. -1.
         11    1    3    3    0    0  0.20258830927E+01  0.43600664169E+00  0.24019667397E+01  0.31723411822E+01  0.51100000000E-03 0. -1.
        -11    1    3    3    0    0 -0.15003431560E+02  0.12036747681E+02  0.19105376477E+02  0.27110914110E+02  0.51100000000E-03 0.  1.
         12    1    3    3    0    0 -0.15647748423E+02  0.27406432409E+01  0.73503622026E+01  0.17504027553E+02  0.00000000000E+00 0. -1.
</event>
<event>
 7    1  0.1246400E-009  0.4778727E+02  0.7816164E-02  0.1312668E+00
        -11   -1    0    0    0    0  0.00000000000E+00  0.00000000000E+00  0.45593999997E+02  0.45594000000E+02  0.51100000000E-03 0. -1.
         11   -1    0    0    0    0 -0.00000000000E+00 -0.00000000000E+00 -0.45593999997E+02  0.45594000000E+02  0.51100000000E-03 0.  1.
    9900012    2    1    2    0    0 -0.20080425712E+02 -0.37271338205E+02  0.95523383129E+01  0.47787270563E+02  0.19999997806E+02 0.  0.
         12    1    1    2    0    0  0.20080425712E+02  0.37271338205E+02 -0.95523383129E+01  0.43400729437E+02  0.00000000000E+00 0. -1.
         11    1    3    3    0    0 -0.74099682219E+01 -0.10269975882E+01  0.17066695917E+01  0.76730094782E+01  0.51100000000E-03 0. -1.
        -11    1    3    3    0    0 -0.14942731900E+01 -0.14799828872E+02  0.53321158571E+01  0.15801874787E+02  0.51100000000E-03 0.  1.
        -12    1    3    3    0    0 -0.11176184301E+02 -0.21444511745E+02  0.25135528642E+01  0.24312386298E+02  0.00000000000E+00 0.  1.
</event>
<event>
 7    1  0.1246400E-009  0.4778727E+02  0.7816164E-02  0.1312668E+00
        -11   -1    0    0    0    0  0.00000000000E+00  0.00000000000E+00  0.45593999997E+02  0.45594000000E+02  0.51100000000E-03 0.  1.
         11   -1    0    0    0    0 -0.00000000000E+00 -0.00000000000E+00 -0.45593999997E+02  0.45594000000E+02  0.51100000000E-03 0. -1.
    9900012    2    1    2    0    0  0.38259824787E+02  0.12834966482E+02  0.15971005242E+02  0.47787267681E+02  0.19999984667E+02 0.  0.
         12    1    1    2    0    0 -0.38259824787E+02 -0.12834966482E+02 -0.15971005242E+02  0.43400732319E+02  0.00000000000E+00 0. -1.
         11    1    3    3    0    0  0.14329191696E+02 -0.43748248571E+01  0.37374185778E+01  0.15441279904E+02  0.51100000000E-03 0. -1.
        -11    1    3    3    0    0  0.13352983043E+02  0.78834990545E+01  0.39913656003E+01  0.16011955318E+02  0.51100000000E-03 0.  1.
        -12    1    3    3    0    0  0.10577650049E+02  0.93262922848E+01  0.82422210635E+01  0.16334032460E+02  0.00000000000E+00 0.  1.
</event>
<event>
 7    1  0.1246400E-009  0.4778727E+02  0.7816164E-02  0.1312668E+00
        -11   -1    0    0    0    0  0.00000000000E+00  0.00000000000E+00  0.45593999997E+02  0.45594000000E+02  0.51100000000E-03 0.  1.
         11   -1    0    0    0    0 -0.00000000000E+00 -0.00000000000E+00 -0.45593999997E+02  0.45594000000E+02  0.51100000000E-03 0. -1.
    9900012    2    1    2    0    0 -0.64145687285E+00  0.25154284326E+02  0.35362039565E+02  0.47787270408E+02  0.19999997099E+02 0.  0.
         12    1    1    2    0    0  0.64145687285E+00 -0.25154284326E+02 -0.35362039565E+02  0.43400729592E+02  0.00000000000E+00 0. -1.
         11    1    3    3    0    0  0.19759898114E+01  0.26950426934E+01  0.28326488410E+00  0.33538082995E+01  0.51100000000E-03 0. -1.
        -11    1    3    3    0    0 -0.11868488097E-02  0.20054607115E+02  0.35582132541E+02  0.40844527472E+02  0.51100000000E-03 0.  1.
        -12    1    3    3    0    0 -0.26162598354E+01  0.24046345175E+01 -0.50335786035E+00  0.35889346364E+01  0.00000000000E+00 0.  1.
</event>
<event>
 7    1  0.1246400E-009  0.4778728E+02  0.7816164E-02  0.1312668E+00
        -11   -1    0    0    0    0  0.00000000000E+00  0.00000000000E+00  0.45593999997E+02  0.45594000000E+02  0.51100000000E-03 0. -1.
         11   -1    0    0    0    0 -0.00000000000E+00 -0.00000000000E+00 -0.45593999997E+02  0.45594000000E+02  0.51100000000E-03 0.  1.
    9900012    2    1    2    0    0 -0.26913767669E+02  0.31332623749E+02 -0.13324353999E+02  0.47787278685E+02  0.20000034836E+02 0.  0.
         12    1    1    2    0    0  0.26913767669E+02 -0.31332623749E+02  0.13324353999E+02  0.43400721315E+02  0.00000000000E+00 0. -1.
         11    1    3    3    0    0 -0.12717001596E+02  0.10324889167E+02  0.14362622632E+01  0.16443488543E+02  0.51100000000E-03 0. -1.
        -11    1    3    3    0    0  0.15428867019E+00  0.27814326387E+01 -0.58753795563E+01  0.65023270995E+01  0.51100000000E-03 0.  1.
         12    1    3    3    0    0 -0.14351054744E+02  0.18226301943E+02 -0.88852367064E+01  0.24841463043E+02  0.00000000000E+00 0. -1.
</event>
<event>
 7    1  0.1340325E-009  0.4778727E+02  0.7816164E-02  0.1312668E+00
        -11   -1    0    0    0    0  0.00000000000E+00  0.00000000000E+00  0.45593999997E+02  0.45594000000E+02  0.51100000000E-03 0.  1.
         11   -1    0    0    0    0 -0.00000000000E+00 -0.00000000000E+00 -0.45593999997E+02  0.45594000000E+02  0.51100000000E-03 0. -1.
    9900012    2    1    2    0    0 -0.84135828177E+01 -0.22774753905E+02  0.35974234779E+02  0.47787270062E+02  0.19999995519E+02 0.  0.
         12    1    1    2    0    0  0.84135828177E+01  0.22774753905E+02 -0.35974234779E+02  0.43400729938E+02  0.00000000000E+00 0. -1.
         11    1    3    3    0    0  0.18288496635E+01 -0.14207736650E+01 -0.78145940654E+00  0.24441701995E+01  0.51100000000E-03 0. -1.
        -11    1    3    3    0    0 -0.36600826956E+01 -0.50556500342E+01  0.20399392729E+02  0.21332862597E+02  0.51100000000E-03 0.  1.
        -12    1    3    3    0    0 -0.65823497856E+01 -0.16298330206E+02  0.16356301456E+02  0.24010237265E+02  0.00000000000E+00 0.  1.
</event>
<event>
 7    1  0.1246400E-009  0.4778727E+02  0.7816164E-02  0.1312668E+00
        -11   -1    0    0    0    0  0.00000000000E+00  0.00000000000E+00  0.45593999997E+02  0.45594000000E+02  0.51100000000E-03 0. -1.
         11   -1    0    0    0    0 -0.00000000000E+00 -0.00000000000E+00 -0.45593999997E+02  0.45594000000E+02  0.51100000000E-03 0.  1.
    9900012    2    1    2    0    0  0.27627644542E+01  0.16024445447E+02 -0.40239376565E+02  0.47787272521E+02  0.20000006733E+02 0.  0.
         12    1    1    2    0    0 -0.27627644542E+01 -0.16024445447E+02  0.40239376565E+02  0.43400727479E+02  0.00000000000E+00 0. -1.
         11    1    3    3    0    0 -0.76307400992E+00 -0.15780581548E+01 -0.37440864650E+00  0.17924094343E+01  0.51100000000E-03 0. -1.
        -11    1    3    3    0    0  0.91063640568E+01  0.11028702798E+02 -0.24030260780E+02  0.27964470050E+02  0.51100000000E-03 0.  1.
         12    1    3    3    0    0 -0.55805255927E+01  0.65738008041E+01 -0.15834707139E+02  0.18030393037E+02  0.00000000000E+00 0. -1.
</event>
<event>
 7    1  0.1246400E-009  0.4778728E+02  0.7816164E-02  0.1312668E+00
        -11   -1    0    0    0    0  0.00000000000E+00  0.00000000000E+00  0.45593999997E+02  0.45594000000E+02  0.51100000000E-03 0. -1.
         11   -1    0    0    0    0 -0.00000000000E+00 -0.00000000000E+00 -0.45593999997E+02  0.45594000000E+02  0.51100000000E-03 0.  1.
    9900012    2    1    2    0    0  0.23367594868E+02 -0.36386343490E+02  0.36894860013E+01  0.47787276625E+02  0.20000025446E+02 0.  0.
         12    1    1    2    0    0 -0.23367594868E+02  0.36386343490E+02 -0.36894860013E+01  0.43400723375E+02  0.00000000000E+00 0. -1.
         11    1    3    3    0    0 -0.19596465286E+01 -0.32403316677E+01  0.28863814941E+01  0.47614243903E+01  0.51100000000E-03 0. -1.
        -11    1    3    3    0    0  0.14952880933E+02 -0.26639156092E+02 -0.14100527233E+01  0.30581391964E+02  0.51100000000E-03 0.  1.
         12    1    3    3    0    0  0.10374360464E+02 -0.65068557300E+01  0.22131572304E+01  0.12444460271E+02  0.00000000000E+00 0. -1.
</event>
<event>
 7    1  0.1246400E-009  0.4778727E+02  0.7816164E-02  0.1312668E+00
        -11   -1    0    0    0    0  0.00000000000E+00  0.00000000000E+00  0.45593999997E+02  0.45594000000E+02  0.51100000000E-03 0. -1.
         11   -1    0    0    0    0 -0.00000000000E+00 -0.00000000000E+00 -0.45593999997E+02  0.45594000000E+02  0.51100000000E-03 0.  1.
    9900012    2    1    2    0    0 -0.24314967839E+02  0.10279941580E+02 -0.34448922341E+02  0.47787272928E+02  0.20000008590E+02 0.  0.
         12    1    1    2    0    0  0.24314967839E+02 -0.10279941580E+02  0.34448922341E+02  0.43400727072E+02  0.00000000000E+00 0. -1.
         11    1    3    3    0    0 -0.17216991247E+02 -0.31896699703E+01 -0.17756963954E+02  0.24938094378E+02  0.51100000000E-03 0. -1.
        -11    1    3    3    0    0 -0.50597324560E+01  0.62545577201E+01 -0.96461823068E+01  0.12560621727E+02  0.51100000000E-03 0.  1.
         12    1    3    3    0    0 -0.20382441357E+01  0.72150538303E+01 -0.70457760807E+01  0.10288556823E+02  0.00000000000E+00 0. -1.
</event>
<event>
 7    1  0.1246400E-009  0.4778724E+02  0.7816164E-02  0.1312668E+00
        -11   -1    0    0    0    0  0.00000000000E+00  0.00000000000E+00  0.45593999997E+02  0.45594000000E+02  0.51100000000E-03 0.  1.
         11   -1    0    0    0    0 -0.00000000000E+00 -0.00000000000E+00 -0.45593999997E+02  0.45594000000E+02  0.51100000000E-03 0. -1.
    9900012    2    1    2    0    0  0.19953068137E+02 -0.57869041311E+01  0.38105280541E+02  0.47787244331E+02  0.19999878203E+02 0.  0.
         12    1    1    2    0    0 -0.19953068137E+02  0.57869041311E+01 -0.38105280541E+02  0.43400755669E+02  0.00000000000E+00 0. -1.
         11    1    3    3    0    0  0.19011725651E+01  0.41768781645E+01  0.83870576342E+01  0.95605179956E+01  0.51100000000E-03 0. -1.
        -11    1    3    3    0    0  0.11944162604E+02  0.38078964277E+00  0.16383923307E+02  0.20279077007E+02  0.51100000000E-03 0.  1.
        -12    1    3    3    0    0  0.61077329684E+01 -0.10344571938E+02  0.13334299600E+02  0.17947649328E+02  0.00000000000E+00 0.  1.
</event>
<event>
 7    1  0.1246400E-009  0.4778727E+02  0.7816164E-02  0.1312668E+00
        -11   -1    0    0    0    0  0.00000000000E+00  0.00000000000E+00  0.45593999997E+02  0.45594000000E+02  0.51100000000E-03 0.  1.
         11   -1    0    0    0    0 -0.00000000000E+00 -0.00000000000E+00 -0.45593999997E+02  0.45594000000E+02  0.51100000000E-03 0. -1.
    9900012    2    1    2    0    0  0.98060392351E+01 -0.32510715696E+02  0.27028102537E+02  0.47787269969E+02  0.19999995095E+02 0.  0.
         12    1    1    2    0    0 -0.98060392351E+01  0.32510715696E+02 -0.27028102537E+02  0.43400730031E+02  0.00000000000E+00 0. -1.
         11    1    3    3    0    0 -0.80336506370E+00 -0.80839891319E+01  0.58462147352E+00  0.81448178763E+01  0.51100000000E-03 0. -1.
        -11    1    3    3    0    0  0.62613207643E+01 -0.23688407958E+02  0.19061244969E+02  0.31043129181E+02  0.51100000000E-03 0.  1.
        -12    1    3    3    0    0  0.43480835345E+01 -0.73831860540E+00  0.73822360942E+01  0.85993229115E+01  0.00000000000E+00 0.  1.
</event>
<event>
 7    1  0.1246400E-009  0.4778727E+02  0.7816164E-02  0.1312668E+00
        -11   -1    0    0    0    0  0.00000000000E+00  0.00000000000E+00  0.45593999997E+02  0.45594000000E+02  0.51100000000E-03 0.  1.
         11   -1    0    0    0    0 -0.00000000000E+00 -0.00000000000E+00 -0.45593999997E+02  0.45594000000E+02  0.51100000000E-03 0. -1.
    9900012    2    1    2    0    0  0.36182979635E+02 -0.23966846747E+02  0.75989257199E-01  0.47787268063E+02  0.19999986407E+02 0.  0.
         12    1    1    2    0    0 -0.36182979635E+02  0.23966846747E+02 -0.75989257199E-01  0.43400731937E+02  0.00000000000E+00 0. -1.
         11    1    3    3    0    0  0.15277171220E+01  0.12632633709E+01 -0.16843228595E+01  0.26012877014E+01  0.51100000000E-03 0. -1.
        -11    1    3    3    0    0  0.12852645135E+02 -0.25638468648E+01 -0.28149043190E+01  0.13404756033E+02  0.51100000000E-03 0.  1.
        -12    1    3    3    0    0  0.21802617378E+02 -0.22666263254E+02  0.45752164357E+01  0.31781224329E+02  0.00000000000E+00 0.  1.
</event>
<event>
 7    1  0.1246400E-009  0.4778727E+02  0.7816164E-02  0.1312668E+00
        -11   -1    0    0    0    0  0.00000000000E+00  0.00000000000E+00  0.45593999997E+02  0.45594000000E+02  0.51100000000E-03 0.  1.
         11   -1    0    0    0    0 -0.00000000000E+00 -0.00000000000E+00 -0.45593999997E+02  0.45594000000E+02  0.51100000000E-03 0. -1.
    9900012    2    1    2    0    0 -0.68212204482E+01 -0.64603374012E+01  0.42371665164E+02  0.47787274010E+02  0.20000013521E+02 0.  0.
         12    1    1    2    0    0  0.68212204482E+01  0.64603374012E+01 -0.42371665164E+02  0.43400725990E+02  0.00000000000E+00 0. -1.
         11    1    3    3    0    0 -0.73641098226E+01 -0.41812372331E+01  0.16902671225E+02  0.18905373656E+02  0.51100000000E-03 0. -1.
        -11    1    3    3    0    0 -0.14663335493E+01  0.53406118773E+01  0.13013457147E+02  0.14142925316E+02  0.51100000000E-03 0.  1.
         12    1    3    3    0    0  0.20092229237E+01 -0.76197120454E+01  0.12455536791E+02  0.14738975038E+02  0.00000000000E+00 0. -1.
</event>
<event>
 7    1  0.1246400E-009  0.4778728E+02  0.7816164E-02  0.1312668E+00
        -11   -1    0    0    0    0  0.00000000000E+00  0.00000000000E+00  0.45593999997E+02  0.45594000000E+02  0.51100000000E-03 0.  1.
         11   -1    0    0    0    0 -0.00000000000E+00 -0.00000000000E+00 -0.45593999997E+02  0.45594000000E+02  0.51100000000E-03 0. -1.
    9900012    2    1    2    0    0  0.24760863808E+02  0.23046033181E+02  0.27191957486E+02  0.47787279110E+02  0.20000036773E+02 0.  0.
         12    1    1    2    0    0 -0.24760863808E+02 -0.23046033181E+02 -0.27191957486E+02  0.43400720890E+02  0.00000000000E+00 0. -1.
         11    1    3    3    0    0  0.58038997625E+01  0.59883242104E+01  0.99765626362E+01  0.13002964339E+02  0.51100000000E-03 0. -1.
        -11    1    3    3    0    0  0.25131715081E+01  0.10665755005E+02  0.12293294663E+02  0.16468134526E+02  0.51100000000E-03 0.  1.
         12    1    3    3    0    0  0.16443792537E+02  0.63919539656E+01  0.49221001872E+01  0.18316180245E+02  0.00000000000E+00 0. -1.
</event>
<event>
 7    1  0.1246400E-009  0.4778727E+02  0.7816164E-02  0.1312668E+00
        -11   -1    0    0    0    0  0.00000000000E+00  0.00000000000E+00  0.45593999997E+02  0.45594000000E+02  0.51100000000E-03 0.  1.
         11   -1    0    0    0    0 -0.00000000000E+00 -0.00000000000E+00 -0.45593999997E+02  0.45594000000E+02  0.51100000000E-03 0. -1.
    9900012    2    1    2    0    0  0.14989225579E+02  0.31676703919E+02  0.25603375741E+02  0.47787270698E+02  0.19999998420E+02 0.  0.
         12    1    1    2    0    0 -0.14989225579E+02 -0.31676703919E+02 -0.25603375741E+02  0.43400729302E+02  0.00000000000E+00 0. -1.
         11    1    3    3    0    0  0.35001909287E+00  0.12689874658E+02  0.64717294523E+01  0.14249165399E+02  0.51100000000E-03 0. -1.
        -11    1    3    3    0    0  0.89764300747E+01  0.58826650970E+01  0.14760104878E+01  0.10833312178E+02  0.51100000000E-03 0.  1.
         12    1    3    3    0    0  0.56627764119E+01  0.13104164164E+02  0.17655635801E+02  0.22704793121E+02  0.00000000000E+00 0. -1.
</event>
<event>
 7    1  0.1246400E-009  0.4778727E+02  0.7816164E-02  0.1312668E+00
        -11   -1    0    0    0    0  0.00000000000E+00  0.00000000000E+00  0.45593999997E+02  0.45594000000E+02  0.51100000000E-03 0.  1.
         11   -1    0    0    0    0 -0.00000000000E+00 -0.00000000000E+00 -0.45593999997E+02  0.45594000000E+02  0.51100000000E-03 0. -1.
    9900012    2    1    2    0    0  0.13896464368E+02  0.32852819104E+02  0.24722534009E+02  0.47787272670E+02  0.20000007410E+02 0.  0.
         12    1    1    2    0    0 -0.13896464368E+02 -0.32852819104E+02 -0.24722534009E+02  0.43400727330E+02  0.00000000000E+00 0. -1.
         11    1    3    3    0    0  0.84550864427E+01  0.19937426744E+02  0.43196701871E+01  0.22082776608E+02  0.51100000000E-03 0. -1.
        -11    1    3    3    0    0 -0.13750825307E+01  0.49052920133E+01  0.60220375682E+01  0.78878183572E+01  0.51100000000E-03 0.  1.
         12    1    3    3    0    0  0.68164604556E+01  0.80101003465E+01  0.14380826253E+02  0.17816677705E+02  0.00000000000E+00 0. -1.
</event>
<event>
 7    1  0.1246400E-009  0.4778727E+02  0.7816164E-02  0.1312668E+00
        -11   -1    0    0    0    0  0.00000000000E+00  0.00000000000E+00  0.45593999997E+02  0.45594000000E+02  0.51100000000E-03 0.  1.
         11   -1    0    0    0    0 -0.00000000000E+00 -0.00000000000E+00 -0.45593999997E+02  0.45594000000E+02  0.51100000000E-03 0. -1.
    9900012    2    1    2    0    0  0.14508748849E+02 -0.26781013702E+02  0.30917579947E+02  0.47787271459E+02  0.20000001892E+02 0.  0.
         12    1    1    2    0    0 -0.14508748849E+02  0.26781013702E+02 -0.30917579947E+02  0.43400728541E+02  0.00000000000E+00 0. -1.
         11    1    3    3    0    0  0.85490448594E+00 -0.16190397759E+01  0.85670332608E+01  0.87604914605E+01  0.51100000000E-03 0.  1.
        -11    1    3    3    0    0  0.14057924014E+02 -0.11353250232E+02  0.11066565365E+02  0.21189393282E+02  0.51100000000E-03 0. -1.
        -12    1    3    3    0    0 -0.40407965148E+00 -0.13808723695E+02  0.11283981321E+02  0.17837386717E+02  0.00000000000E+00 0.  1.
</event>
<event>
 7    1  0.1246400E-009  0.4778728E+02  0.7816164E-02  0.1312668E+00
        -11   -1    0    0    0    0  0.00000000000E+00  0.00000000000E+00  0.45593999997E+02  0.45594000000E+02  0.51100000000E-03 0.  1.
         11   -1    0    0    0    0 -0.00000000000E+00 -0.00000000000E+00 -0.45593999997E+02  0.45594000000E+02  0.51100000000E-03 0. -1.
    9900012    2    1    2    0    0  0.33753629802E+02  0.17994387584E+02  0.20506507986E+02  0.47787281353E+02  0.20000047001E+02 0.  0.
         12    1    1    2    0    0 -0.33753629802E+02 -0.17994387584E+02 -0.20506507986E+02  0.43400718647E+02  0.00000000000E+00 0. -1.
         11    1    3    3    0    0  0.24741659390E+02  0.54282232046E+01  0.11659464903E+02  0.27884734867E+02  0.51100000000E-03 0. -1.
        -11    1    3    3    0    0 -0.17117904729E+00  0.30685017744E+00  0.37396767726E+01  0.37561472179E+01  0.51100000000E-03 0.  1.
         12    1    3    3    0    0  0.91831494587E+01  0.12259314202E+02  0.51073663102E+01  0.16146399268E+02  0.00000000000E+00 0. -1.
</event>
<event>
 7    1  0.1246400E-009  0.4778727E+02  0.7816164E-02  0.1312668E+00
        -11   -1    0    0    0    0  0.00000000000E+00  0.00000000000E+00  0.45593999997E+02  0.45594000000E+02  0.51100000000E-03 0.  1.
         11   -1    0    0    0    0 -0.00000000000E+00 -0.00000000000E+00 -0.45593999997E+02  0.45594000000E+02  0.51100000000E-03 0. -1.
    9900012    2    1    2    0    0  0.24004169842E+02  0.28644706124E+02  0.22065898833E+02  0.47787271319E+02  0.20000001253E+02 0.  0.
         12    1    1    2    0    0 -0.24004169842E+02 -0.28644706124E+02 -0.22065898833E+02  0.43400728681E+02  0.00000000000E+00 0. -1.
         11    1    3    3    0    0 -0.12922335211E+00  0.15855874298E+01 -0.12336871655E+01  0.20131493874E+01  0.51100000000E-03 0. -1.
        -11    1    3    3    0    0  0.26275254826E+02  0.24435208965E+02  0.20166365756E+02  0.41160062699E+02  0.51100000000E-03 0.  1.
        -12    1    3    3    0    0 -0.21418616320E+01  0.26239097289E+01  0.31332202430E+01  0.46140592331E+01  0.00000000000E+00 0.  1.
</event>
<event>
 7    1  0.1246400E-009  0.4778727E+02  0.7816164E-02  0.1312668E+00
        -11   -1    0    0    0    0  0.00000000000E+00  0.00000000000E+00  0.45593999997E+02  0.45594000000E+02  0.51100000000E-03 0. -1.
         11   -1    0    0    0    0 -0.00000000000E+00 -0.00000000000E+00 -0.45593999997E+02  0.45594000000E+02  0.51100000000E-03 0.  1.
    9900012    2    1    2    0    0  0.13318705146E+02 -0.36277180230E+02 -0.19753514268E+02  0.47787273760E+02  0.20000012382E+02 0.  0.
         12    1    1    2    0    0 -0.13318705146E+02  0.36277180230E+02  0.19753514268E+02  0.43400726240E+02  0.00000000000E+00 0. -1.
         11    1    3    3    0    0  0.60185614302E+01 -0.10895238779E+02 -0.12529132282E+02  0.17660930489E+02  0.51100000000E-03 0. -1.
        -11    1    3    3    0    0  0.87145382276E+01 -0.90336424567E+01 -0.10572193089E+01  0.12596332223E+02  0.51100000000E-03 0.  1.
         12    1    3    3    0    0 -0.14143945116E+01 -0.16348298995E+02 -0.61671626766E+01  0.17530011048E+02  0.00000000000E+00 0. -1.
</event>
<event>
 7    1  0.1246400E-009  0.4778727E+02  0.7816164E-02  0.1312668E+00
        -11   -1    0    0    0    0  0.00000000000E+00  0.00000000000E+00  0.45593999997E+02  0.45594000000E+02  0.51100000000E-03 0.  1.
         11   -1    0    0    0    0 -0.00000000000E+00 -0.00000000000E+00 -0.45593999997E+02  0.45594000000E+02  0.51100000000E-03 0. -1.
    9900012    2    1    2    0    0  0.32163453405E+02  0.13067954055E+02  0.26045423877E+02  0.47787271169E+02  0.20000000569E+02 0.  0.
         12    1    1    2    0    0 -0.32163453405E+02 -0.13067954055E+02 -0.26045423877E+02  0.43400728831E+02  0.00000000000E+00 0. -1.
         11    1    3    3    0    0  0.63857097307E+01  0.93750948743E+01  0.20106184955E+01  0.11520081582E+02  0.51100000000E-03 0. -1.
        -11    1    3    3    0    0  0.11996061160E+02  0.55383713154E+01  0.12718778262E+02  0.18339748115E+02  0.51100000000E-03 0.  1.
        -12    1    3    3    0    0  0.13781682514E+02 -0.18455121345E+01  0.11316027119E+02  0.17927441472E+02  0.00000000000E+00 0.  1.
</event>
<event>
 7    1  0.1246400E-009  0.4778728E+02  0.7816164E-02  0.1312668E+00
        -11   -1    0    0    0    0  0.00000000000E+00  0.00000000000E+00  0.45593999997E+02  0.45594000000E+02  0.51100000000E-03 0.  1.
         11   -1    0    0    0    0 -0.00000000000E+00 -0.00000000000E+00 -0.45593999997E+02  0.45594000000E+02  0.51100000000E-03 0. -1.
    9900012    2    1    2    0    0  0.36617944995E+01 -0.75279119369E+01  0.42585733643E+02  0.47787275271E+02  0.20000019270E+02 0.  0.
         12    1    1    2    0    0 -0.36617944995E+01  0.75279119369E+01 -0.42585733643E+02  0.43400724729E+02  0.00000000000E+00 0. -1.
         11    1    3    3    0    0  0.53048365341E+01  0.10713447826E+01  0.33199053093E+01  0.63490819668E+01  0.51100000000E-03 0. -1.
        -11    1    3    3    0    0  0.11923876577E+01 -0.87509429609E+01  0.18739648737E+02  0.20716544743E+02  0.51100000000E-03 0.  1.
        -12    1    3    3    0    0 -0.28354296923E+01  0.15168624134E+00  0.20526179596E+02  0.20721648561E+02  0.00000000000E+00 0.  1.
</event>
<event>
 7    1  0.1246400E-009  0.4778727E+02  0.7816164E-02  0.1312668E+00
        -11   -1    0    0    0    0  0.00000000000E+00  0.00000000000E+00  0.45593999997E+02  0.45594000000E+02  0.51100000000E-03 0.  1.
         11   -1    0    0    0    0 -0.00000000000E+00 -0.00000000000E+00 -0.45593999997E+02  0.45594000000E+02  0.51100000000E-03 0. -1.
    9900012    2    1    2    0    0 -0.54336226978E+01 -0.21115926192E+02  0.37526214008E+02  0.47787270371E+02  0.19999996927E+02 0.  0.
         12    1    1    2    0    0  0.54336226978E+01  0.21115926192E+02 -0.37526214008E+02  0.43400729629E+02  0.00000000000E+00 0. -1.
         11    1    3    3    0    0 -0.15552603790E+01 -0.12315871567E+02  0.14382364364E+02  0.18998735017E+02  0.51100000000E-03 0.  1.
        -11    1    3    3    0    0 -0.85137145748E+01 -0.60759866903E+01  0.19974704671E+02  0.22547500462E+02  0.51100000000E-03 0. -1.
         12    1    3    3    0    0  0.46353522561E+01 -0.27240679351E+01  0.31691449727E+01  0.62410348910E+01  0.00000000000E+00 0. -1.
</event>
<event>
 7    1  0.1246400E-009  0.4778727E+02  0.7816164E-02  0.1312668E+00
        -11   -1    0    0    0    0  0.00000000000E+00  0.00000000000E+00  0.45593999997E+02  0.45594000000E+02  0.51100000000E-03 0.  1.
         11   -1    0    0    0    0 -0.00000000000E+00 -0.00000000000E+00 -0.45593999997E+02  0.45594000000E+02  0.51100000000E-03 0. -1.
    9900012    2    1    2    0    0  0.39412756352E+02  0.14468994633E+02  0.10995732565E+02  0.47787270702E+02  0.19999998438E+02 0.  0.
         12    1    1    2    0    0 -0.39412756352E+02 -0.14468994633E+02 -0.10995732565E+02  0.43400729298E+02  0.00000000000E+00 0. -1.
         11    1    3    3    0    0  0.26551040284E+02  0.93199446833E+01  0.11178828338E+02  0.30278462846E+02  0.51100000000E-03 0. -1.
        -11    1    3    3    0    0  0.10652364147E+01  0.34115899368E+01  0.35268985052E+01  0.50212237396E+01  0.51100000000E-03 0.  1.
         12    1    3    3    0    0  0.11796479654E+02  0.17374600125E+01 -0.37099942776E+01  0.12487584116E+02  0.00000000000E+00 0. -1.
</event>
<event>
 7    1  0.1246400E-009  0.4778727E+02  0.7816164E-02  0.1312668E+00
        -11   -1    0    0    0    0  0.00000000000E+00  0.00000000000E+00  0.45593999997E+02  0.45594000000E+02  0.51100000000E-03 0. -1.
         11   -1    0    0    0    0 -0.00000000000E+00 -0.00000000000E+00 -0.45593999997E+02  0.45594000000E+02  0.51100000000E-03 0.  1.
    9900012    2    1    2    0    0  0.27844745598E+02 -0.20595423478E+01 -0.33227272879E+02  0.47787271492E+02  0.20000002038E+02 0.  0.
         12    1    1    2    0    0 -0.27844745598E+02  0.20595423478E+01  0.33227272879E+02  0.43400728508E+02  0.00000000000E+00 0. -1.
         11    1    3    3    0    0  0.98146006984E+00  0.10825470981E+01  0.18438990377E+01  0.23526869767E+01  0.51100000000E-03 0. -1.
        -11    1    3    3    0    0  0.15578394007E+02 -0.36963189488E+01 -0.12940294559E+02  0.20586411954E+02  0.51100000000E-03 0.  1.
        -12    1    3    3    0    0  0.11284891521E+02  0.55422950293E+00 -0.22130877358E+02  0.24848172561E+02  0.00000000000E+00 0.  1.
</event>
<event>
 7    1  0.1246400E-009  0.4778727E+02  0.7816164E-02  0.1312668E+00
        -11   -1    0    0    0    0  0.00000000000E+00  0.00000000000E+00  0.45593999997E+02  0.45594000000E+02  0.51100000000E-03 0. -1.
         11   -1    0    0    0    0 -0.00000000000E+00 -0.00000000000E+00 -0.45593999997E+02  0.45594000000E+02  0.51100000000E-03 0.  1.
    9900012    2    1    2    0    0  0.37586502437E+02 -0.18806666874E+02 -0.10825307922E+02  0.47787272173E+02  0.20000005143E+02 0.  0.
         12    1    1    2    0    0 -0.37586502437E+02  0.18806666874E+02  0.10825307922E+02  0.43400727827E+02  0.00000000000E+00 0. -1.
         11    1    3    3    0    0  0.18427246251E+01  0.19278848694E+01 -0.49768135158E+00  0.27129432545E+01  0.51100000000E-03 0. -1.
        -11    1    3    3    0    0  0.23678890551E+02 -0.19949700186E+02 -0.11263823225E+02  0.32947748165E+02  0.51100000000E-03 0.  1.
         12    1    3    3    0    0  0.12064887261E+02 -0.78485155743E+00  0.93619665496E+00  0.12126580753E+02  0.00000000000E+00 0. -1.
</event>
<event>
 7    1  0.1246400E-009  0.4778726E+02  0.7816164E-02  0.1312668E+00
        -11   -1    0    0    0    0  0.00000000000E+00  0.00000000000E+00  0.45593999997E+02  0.45594000000E+02  0.51100000000E-03 0.  1.
         11   -1    0    0    0    0 -0.00000000000E+00 -0.00000000000E+00 -0.45593999997E+02  0.45594000000E+02  0.51100000000E-03 0. -1.
    9900012    2    1    2    0    0 -0.40616753402E+02  0.12392443207E+02  0.89627300244E+01  0.47787264580E+02  0.19999970525E+02 0.  0.
         12    1    1    2    0    0  0.40616753402E+02 -0.12392443207E+02 -0.89627300244E+01  0.43400735420E+02  0.00000000000E+00 0. -1.
         11    1    3    3    0    0 -0.29305073829E+02  0.10646231605E+02  0.23811007073E+01  0.31269781584E+02  0.51100000000E-03 0. -1.
        -11    1    3    3    0    0 -0.12868682637E+02  0.13637702511E+01  0.41218616700E+01  0.13581332998E+02  0.51100000000E-03 0.  1.
        -12    1    3    3    0    0  0.15570030644E+01  0.38244135075E+00  0.24597676472E+01  0.29361499974E+01  0.00000000000E+00 0.  1.
</event>
<event>
 7    1  0.1246400E-009  0.4778728E+02  0.7816164E-02  0.1312668E+00
        -11   -1    0    0    0    0  0.00000000000E+00  0.00000000000E+00  0.45593999997E+02  0.45594000000E+02  0.51100000000E-03 0.  1.
         11   -1    0    0    0    0 -0.00000000000E+00 -0.00000000000E+00 -0.45593999997E+02  0.45594000000E+02  0.51100000000E-03 0. -1.
    9900012    2    1    2    0    0 -0.42377021039E+02  0.38975270495E+01 -0.85217089629E+01  0.47787283959E+02  0.20000058881E+02 0.  0.
         12    1    1    2    0    0  0.42377021039E+02 -0.38975270495E+01  0.85217089629E+01  0.43400716041E+02  0.00000000000E+00 0. -1.
         11    1    3    3    0    0 -0.10024837852E+01 -0.18541550131E+01  0.28049404948E+01  0.35086401914E+01  0.51100000000E-03 0. -1.
        -11    1    3    3    0    0 -0.19732051173E+02  0.40721866260E+01 -0.10096909956E+02  0.22536284927E+02  0.51100000000E-03 0.  1.
        -12    1    3    3    0    0 -0.21642486081E+02  0.16794954366E+01 -0.12297395019E+01  0.21742358840E+02  0.00000000000E+00 0.  1.
</event>
<event>
 7    1  0.1246400E-009  0.4778727E+02  0.7816164E-02  0.1312668E+00
        -11   -1    0    0    0    0  0.00000000000E+00  0.00000000000E+00  0.45593999997E+02  0.45594000000E+02  0.51100000000E-03 0. -1.
         11   -1    0    0    0    0 -0.00000000000E+00 -0.00000000000E+00 -0.45593999997E+02  0.45594000000E+02  0.51100000000E-03 0.  1.
    9900012    2    1    2    0    0 -0.38758632871E+02  0.19407473025E+02  0.21775163174E+01  0.47787271797E+02  0.20000003432E+02 0.  0.
         12    1    1    2    0    0  0.38758632871E+02 -0.19407473025E+02 -0.21775163174E+01  0.43400728203E+02  0.00000000000E+00 0. -1.
         11    1    3    3    0    0 -0.70654691214E+01  0.76083931613E+01  0.31092456653E+01  0.10838630415E+02  0.51100000000E-03 0. -1.
        -11    1    3    3    0    0 -0.28530169277E+02  0.44427893286E+01  0.10598509807E+00  0.28874212874E+02  0.51100000000E-03 0.  1.
         12    1    3    3    0    0 -0.31629944727E+01  0.73562905346E+01 -0.10377144460E+01  0.80744285082E+01  0.00000000000E+00 0. -1.
</event>
<event>
 7    1  0.1246400E-009  0.4778726E+02  0.7816164E-02  0.1312668E+00
        -11   -1    0    0    0    0  0.00000000000E+00  0.00000000000E+00  0.45593999997E+02  0.45594000000E+02  0.51100000000E-03 0.  1.
         11   -1    0    0    0    0 -0.00000000000E+00 -0.00000000000E+00 -0.45593999997E+02  0.45594000000E+02  0.51100000000E-03 0. -1.
    9900012    2    1    2    0    0  0.16783830599E+02 -0.32916919629E+02  0.22768473359E+02  0.47787263295E+02  0.19999964665E+02 0.  0.
         12    1    1    2    0    0 -0.16783830599E+02  0.32916919629E+02 -0.22768473359E+02  0.43400736705E+02  0.00000000000E+00 0. -1.
         11    1    3    3    0    0  0.12903391590E+01 -0.81510175780E+01  0.13753643255E+02  0.16039537579E+02  0.51100000000E-03 0.  1.
        -11    1    3    3    0    0  0.42770970524E+01 -0.99846367331E+01 -0.54276504421E+00  0.10875712576E+02  0.51100000000E-03 0. -1.
        -12    1    3    3    0    0  0.11216394388E+02 -0.14781265318E+02  0.95575951486E+01  0.20872013139E+02  0.00000000000E+00 0.  1.
</event>
<event>
 7    1  0.1246400E-009  0.4778727E+02  0.7816164E-02  0.1312668E+00
        -11   -1    0    0    0    0  0.00000000000E+00  0.00000000000E+00  0.45593999997E+02  0.45594000000E+02  0.51100000000E-03 0.  1.
         11   -1    0    0    0    0 -0.00000000000E+00 -0.00000000000E+00 -0.45593999997E+02  0.45594000000E+02  0.51100000000E-03 0. -1.
    9900012    2    1    2    0    0  0.15980377707E+01 -0.41835706866E+02  0.11438689629E+02  0.47787265973E+02  0.19999976876E+02 0.  0.
         12    1    1    2    0    0 -0.15980377707E+01  0.41835706866E+02 -0.11438689629E+02  0.43400734027E+02  0.00000000000E+00 0. -1.
         11    1    3    3    0    0 -0.12678960043E+01  0.76388800599E+00  0.16690486057E+01  0.22308762119E+01  0.51100000000E-03 0. -1.
        -11    1    3    3    0    0  0.49206112912E+01 -0.65120931971E+01  0.19753785808E+00  0.81644837408E+01  0.51100000000E-03 0.  1.
        -12    1    3    3    0    0 -0.20546775163E+01 -0.36087501675E+02  0.95721031654E+01  0.37391906020E+02  0.00000000000E+00 0.  1.
</event>
<event>
 7    1  0.1246400E-009  0.4778727E+02  0.7816164E-02  0.1312668E+00
        -11   -1    0    0    0    0  0.00000000000E+00  0.00000000000E+00  0.45593999997E+02  0.45594000000E+02  0.51100000000E-03 0.  1.
         11   -1    0    0    0    0 -0.00000000000E+00 -0.00000000000E+00 -0.45593999997E+02  0.45594000000E+02  0.51100000000E-03 0. -1.
    9900012    2    1    2    0    0  0.57407719635E+01  0.94677875633E+01  0.41964602796E+02  0.47787270145E+02  0.19999995899E+02 0.  0.
         12    1    1    2    0    0 -0.57407719635E+01 -0.94677875633E+01 -0.41964602796E+02  0.43400729855E+02  0.00000000000E+00 0. -1.
         11    1    3    3    0    0  0.17723175758E+01 -0.12064287460E+01  0.41474572052E+01  0.46688308428E+01  0.51100000000E-03 0.  1.
        -11    1    3    3    0    0 -0.22448765967E+01  0.30687840802E+01  0.30835166016E+02  0.31068704031E+02  0.51100000000E-03 0. -1.
         12    1    3    3    0    0  0.62133309844E+01  0.76054322291E+01  0.69819795748E+01  0.12049735271E+02  0.00000000000E+00 0. -1.
</event>
<event>
 7    1  0.1246400E-009  0.4778727E+02  0.7816164E-02  0.1312668E+00
        -11   -1    0    0    0    0  0.00000000000E+00  0.00000000000E+00  0.45593999997E+02  0.45594000000E+02  0.51100000000E-03 0.  1.
         11   -1    0    0    0    0 -0.00000000000E+00 -0.00000000000E+00 -0.45593999997E+02  0.45594000000E+02  0.51100000000E-03 0. -1.
    9900012    2    1    2    0    0  0.92693440111E+01  0.10851553008E+02  0.40987147205E+02  0.47787272159E+02  0.20000005084E+02 0.  0.
         12    1    1    2    0    0 -0.92693440111E+01 -0.10851553008E+02 -0.40987147205E+02  0.43400727841E+02  0.00000000000E+00 0. -1.
         11    1    3    3    0    0 -0.20954624943E+01  0.56007699020E+01  0.27699151968E+02  0.28337300622E+02  0.51100000000E-03 0. -1.
        -11    1    3    3    0    0  0.15520127767E+01  0.35602878665E+01  0.19032821198E+01  0.43251446727E+01  0.51100000000E-03 0.  1.
         12    1    3    3    0    0  0.98127937287E+01  0.16904952395E+01  0.11384713118E+02  0.15124826865E+02  0.00000000000E+00 0. -1.
</event>
<event>
 7    1  0.1246400E-009  0.4778727E+02  0.7816164E-02  0.1312668E+00
        -11   -1    0    0    0    0  0.00000000000E+00  0.00000000000E+00  0.45593999997E+02  0.45594000000E+02  0.51100000000E-03 0. -1.
         11   -1    0    0    0    0 -0.00000000000E+00 -0.00000000000E+00 -0.45593999997E+02  0.45594000000E+02  0.51100000000E-03 0.  1.
    9900012    2    1    2    0    0  0.77560047948E+01 -0.42666821723E+02  0.17349087597E+01  0.47787271957E+02  0.20000004159E+02 0.  0.
         12    1    1    2    0    0 -0.77560047948E+01  0.42666821723E+02 -0.17349087597E+01  0.43400728043E+02  0.00000000000E+00 0. -1.
         11    1    3    3    0    0 -0.20436315845E+01 -0.15865733537E+02 -0.40441747645E+01  0.16500099409E+02  0.51100000000E-03 0. -1.
        -11    1    3    3    0    0  0.83207331199E+01 -0.14460534473E+02 -0.17187479132E+01  0.16771873823E+02  0.51100000000E-03 0.  1.
         12    1    3    3    0    0  0.14789032594E+01 -0.12340553713E+02  0.74978314374E+01  0.14515298725E+02  0.00000000000E+00 0. -1.
</event>
<event>
 7    1  0.1246400E-009  0.4778727E+02  0.7816164E-02  0.1312668E+00
        -11   -1    0    0    0    0  0.00000000000E+00  0.00000000000E+00  0.45593999997E+02  0.45594000000E+02  0.51100000000E-03 0.  1.
         11   -1    0    0    0    0 -0.00000000000E+00 -0.00000000000E+00 -0.45593999997E+02  0.45594000000E+02  0.51100000000E-03 0. -1.
    9900012    2    1    2    0    0 -0.55135679925E+01  0.36592038175E+02  0.22677004325E+02  0.47787271723E+02  0.20000003094E+02 0.  0.
         12    1    1    2    0    0  0.55135679925E+01 -0.36592038175E+02 -0.22677004325E+02  0.43400728277E+02  0.00000000000E+00 0. -1.
         11    1    3    3    0    0  0.38467543130E+01  0.44718233494E+01  0.65410332659E+01  0.88079418287E+01  0.51100000000E-03 0. -1.
        -11    1    3    3    0    0 -0.38959416519E+01  0.26882921129E+02  0.15752231564E+02  0.31400678485E+02  0.51100000000E-03 0.  1.
         12    1    3    3    0    0 -0.54643806535E+01  0.52372936961E+01  0.38373949527E+00  0.75786514094E+01  0.00000000000E+00 0. -1.
</event>
<event>
 7    1  0.1246400E-009  0.4778725E+02  0.7816164E-02  0.1312668E+00
        -11   -1    0    0    0    0  0.00000000000E+00  0.00000000000E+00  0.45593999997E+02  0.45594000000E+02  0.51100000000E-03 0.  1.
         11   -1    0    0    0    0 -0.00000000000E+00 -0.00000000000E+00 -0.45593999997E+02  0.45594000000E+02  0.51100000000E-03 0. -1.
    9900012    2    1    2    0    0  0.29200620813E+02 -0.31884815080E+02  0.37824639579E+01  0.47787254360E+02  0.19999923927E+02 0.  0.
         12    1    1    2    0    0 -0.29200620813E+02  0.31884815080E+02 -0.37824639579E+01  0.43400745640E+02  0.00000000000E+00 0. -1.
         11    1    3    3    0    0  0.77422694737E+01 -0.97706607231E+01 -0.26663862636E+01  0.12748261197E+02  0.51100000000E-03 0. -1.
        -11    1    3    3    0    0  0.31385386376E+01 -0.14077679297E+02  0.22433397766E+01  0.14596713767E+02  0.51100000000E-03 0.  1.
         12    1    3    3    0    0  0.18319812702E+02 -0.80364750597E+01  0.42055104449E+01  0.20442279396E+02  0.00000000000E+00 0. -1.
</event>
<event>
 7    1  0.1246400E-009  0.4778727E+02  0.7816164E-02  0.1312668E+00
        -11   -1    0    0    0    0  0.00000000000E+00  0.00000000000E+00  0.45593999997E+02  0.45594000000E+02  0.51100000000E-03 0. -1.
         11   -1    0    0    0    0 -0.00000000000E+00 -0.00000000000E+00 -0.45593999997E+02  0.45594000000E+02  0.51100000000E-03 0.  1.
    9900012    2    1    2    0    0  0.19102101209E+02 -0.89264268782E+01 -0.37934844226E+02  0.47787265284E+02  0.19999973736E+02 0.  0.
         12    1    1    2    0    0 -0.19102101209E+02  0.89264268782E+01  0.37934844226E+02  0.43400734716E+02  0.00000000000E+00 0. -1.
         11    1    3    3    0    0 -0.46113165243E+00 -0.12969387661E+00 -0.38056034342E+01  0.38356330198E+01  0.51100000000E-03 0. -1.
        -11    1    3    3    0    0  0.92153193166E+01 -0.12876548055E+02 -0.24850441969E+02  0.29466456628E+02  0.51100000000E-03 0.  1.
        -12    1    3    3    0    0  0.10347913545E+02  0.40798150531E+01 -0.92787988233E+01  0.14485175636E+02  0.00000000000E+00 0.  1.
</event>
<event>
 7    1  0.1246400E-009  0.4778724E+02  0.7816164E-02  0.1312668E+00
        -11   -1    0    0    0    0  0.00000000000E+00  0.00000000000E+00  0.45593999997E+02  0.45594000000E+02  0.51100000000E-03 0.  1.
         11   -1    0    0    0    0 -0.00000000000E+00 -0.00000000000E+00 -0.45593999997E+02  0.45594000000E+02  0.51100000000E-03 0. -1.
    9900012    2    1    2    0    0 -0.55447768454E+01  0.18967069048E+02  0.38641057732E+02  0.47787244232E+02  0.19999877752E+02 0.  0.
         12    1    1    2    0    0  0.55447768454E+01 -0.18967069048E+02 -0.38641057732E+02  0.43400755768E+02  0.00000000000E+00 0. -1.
         11    1    3    3    0    0 -0.11825474131E+01  0.12626567894E+01  0.10436505650E+02  0.10578911617E+02  0.51100000000E-03 0. -1.
        -11    1    3    3    0    0 -0.34396186986E+01  0.12431401177E+02  0.57457049372E+01  0.14120334185E+02  0.51100000000E-03 0.  1.
        -12    1    3    3    0    0 -0.92261073362E+00  0.52730110818E+01  0.22458847145E+02  0.23087998430E+02  0.00000000000E+00 0.  1.
</event>
<event>
 7    1  0.1246400E-009  0.4778727E+02  0.7816164E-02  0.1312668E+00
        -11   -1    0    0    0    0  0.00000000000E+00  0.00000000000E+00  0.45593999997E+02  0.45594000000E+02  0.51100000000E-03 0.  1.
         11   -1    0    0    0    0 -0.00000000000E+00 -0.00000000000E+00 -0.45593999997E+02  0.45594000000E+02  0.51100000000E-03 0. -1.
    9900012    2    1    2    0    0 -0.22925532539E+02  0.33624218575E+02  0.15081616612E+02  0.47787271013E+02  0.19999999855E+02 0.  0.
         12    1    1    2    0    0  0.22925532539E+02 -0.33624218575E+02 -0.15081616612E+02  0.43400728987E+02  0.00000000000E+00 0. -1.
         11    1    3    3    0    0 -0.27689133968E+00  0.13870365583E+02  0.77726792318E+01  0.15902146174E+02  0.51100000000E-03 0. -1.
        -11    1    3    3    0    0 -0.42420552263E+00  0.24037764923E+01 -0.76326636938E+00  0.25574728859E+01  0.51100000000E-03 0.  1.
        -12    1    3    3    0    0 -0.22224435677E+02  0.17350076499E+02  0.80722037498E+01  0.29327651953E+02  0.00000000000E+00 0.  1.
</event>
<event>
 7    1  0.1246400E-009  0.4778727E+02  0.7816164E-02  0.1312668E+00
        -11   -1    0    0    0    0  0.00000000000E+00  0.00000000000E+00  0.45593999997E+02  0.45594000000E+02  0.51100000000E-03 0.  1.
         11   -1    0    0    0    0 -0.00000000000E+00 -0.00000000000E+00 -0.45593999997E+02  0.45594000000E+02  0.51100000000E-03 0. -1.
    9900012    2    1    2    0    0 -0.12785080498E+02  0.28594894030E+02  0.30041584151E+02  0.47787273898E+02  0.20000013009E+02 0.  0.
         12    1    1    2    0    0  0.12785080498E+02 -0.28594894030E+02 -0.30041584151E+02  0.43400726102E+02  0.00000000000E+00 0. -1.
         11    1    3    3    0    0 -0.55283210277E+00  0.28239456818E+01  0.19405832652E+01  0.34707572974E+01  0.51100000000E-03 0. -1.
        -11    1    3    3    0    0 -0.15569547017E+02  0.12291102713E+02  0.12575937805E+02  0.23486937053E+02  0.51100000000E-03 0.  1.
        -12    1    3    3    0    0  0.33372986222E+01  0.13479845635E+02  0.15525063081E+02  0.20829579547E+02  0.00000000000E+00 0.  1.
</event>
<event>
 7    1  0.1246400E-009  0.4778727E+02  0.7816164E-02  0.1312668E+00
        -11   -1    0    0    0    0  0.00000000000E+00  0.00000000000E+00  0.45593999997E+02  0.45594000000E+02  0.51100000000E-03 0.  1.
         11   -1    0    0    0    0 -0.00000000000E+00 -0.00000000000E+00 -0.45593999997E+02  0.45594000000E+02  0.51100000000E-03 0. -1.
    9900012    2    1    2    0    0  0.24620061411E+01  0.19303783080E+01  0.43287818455E+02  0.47787273494E+02  0.20000011169E+02 0.  0.
         12    1    1    2    0    0 -0.24620061411E+01 -0.19303783080E+01 -0.43287818455E+02  0.43400726506E+02  0.00000000000E+00 0. -1.
         11    1    3    3    0    0 -0.69972685259E-01 -0.23444458763E+01  0.10002525146E+02  0.10273842134E+02  0.51100000000E-03 0. -1.
        -11    1    3    3    0    0  0.12069242208E+01  0.48163178813E+01  0.34959714151E+02  0.35310553632E+02  0.51100000000E-03 0.  1.
         12    1    3    3    0    0  0.13250546055E+01 -0.54149369703E+00 -0.16744208415E+01  0.22028777284E+01  0.00000000000E+00 0. -1.
</event>
<event>
 7    1  0.1246400E-009  0.4778727E+02  0.7816164E-02  0.1312668E+00
        -11   -1    0    0    0    0  0.00000000000E+00  0.00000000000E+00  0.45593999997E+02  0.45594000000E+02  0.51100000000E-03 0. -1.
         11   -1    0    0    0    0 -0.00000000000E+00 -0.00000000000E+00 -0.45593999997E+02  0.45594000000E+02  0.51100000000E-03 0.  1.
    9900012    2    1    2    0    0  0.46257145012E+01  0.35936594324E+02 -0.23891147622E+02  0.47787274419E+02  0.20000015385E+02 0.  0.
         12    1    1    2    0    0 -0.46257145012E+01 -0.35936594324E+02  0.23891147622E+02  0.43400725581E+02  0.00000000000E+00 0. -1.
         11    1    3    3    0    0 -0.12696330588E+01  0.14558900801E+02 -0.98762391107E+01  0.17638414324E+02  0.51100000000E-03 0.  1.
        -11    1    3    3    0    0  0.14306886781E+01  0.75229853441E+01  0.25741648152E+01  0.80788924573E+01  0.51100000000E-03 0. -1.
         12    1    3    3    0    0  0.44646588819E+01  0.13854708179E+02 -0.16589073327E+02  0.22069967637E+02  0.00000000000E+00 0. -1.
</event>
<event>
 7    1  0.1246400E-009  0.4778727E+02  0.7816164E-02  0.1312668E+00
        -11   -1    0    0    0    0  0.00000000000E+00  0.00000000000E+00  0.45593999997E+02  0.45594000000E+02  0.51100000000E-03 0. -1.
         11   -1    0    0    0    0 -0.00000000000E+00 -0.00000000000E+00 -0.45593999997E+02  0.45594000000E+02  0.51100000000E-03 0.  1.
    9900012    2    1    2    0    0 -0.23783428538E+02  0.35190881793E+02 -0.89204071985E+01  0.47787270755E+02  0.19999998681E+02 0.  0.
         12    1    1    2    0    0  0.23783428538E+02 -0.35190881793E+02  0.89204071985E+01  0.43400729245E+02  0.00000000000E+00 0. -1.
         11    1    3    3    0    0 -0.45965941117E+01  0.36457305369E+01 -0.64225557211E+01  0.86988074371E+01  0.51100000000E-03 0. -1.
        -11    1    3    3    0    0 -0.10930190056E+02  0.24257691485E+02 -0.64690837330E+01  0.27381630621E+02  0.51100000000E-03 0.  1.
         12    1    3    3    0    0 -0.82566443707E+01  0.72874597710E+01  0.39712322556E+01  0.11706832697E+02  0.00000000000E+00 0. -1.
</event>
<event>
 7    1  0.1246400E-009  0.4778727E+02  0.7816164E-02  0.1312668E+00
        -11   -1    0    0    0    0  0.00000000000E+00  0.00000000000E+00  0.45593999997E+02  0.45594000000E+02  0.51100000000E-03 0.  1.
         11   -1    0    0    0    0 -0.00000000000E+00 -0.00000000000E+00 -0.45593999997E+02  0.45594000000E+02  0.51100000000E-03 0. -1.
    9900012    2    1    2    0    0  0.16671159939E+01  0.24159430486E+02  0.36016187805E+02  0.47787272573E+02  0.20000006972E+02 0.  0.
         12    1    1    2    0    0 -0.16671159939E+01 -0.24159430486E+02 -0.36016187805E+02  0.43400727427E+02  0.00000000000E+00 0. -1.
         11    1    3    3    0    0  0.62423400708E+01  0.73810166588E+01  0.46529893317E+01  0.10728304920E+02  0.51100000000E-03 0. -1.
        -11    1    3    3    0    0 -0.51672164318E+01  0.77019382534E+01  0.90298689238E+01  0.12944439407E+02  0.51100000000E-03 0.  1.
        -12    1    3    3    0    0  0.59199235490E+00  0.90764755739E+01  0.22333329549E+02  0.24114528247E+02  0.00000000000E+00 0.  1.
</event>
<event>
 7    1  0.1246400E-009  0.4778727E+02  0.7816164E-02  0.1312668E+00
        -11   -1    0    0    0    0  0.00000000000E+00  0.00000000000E+00  0.45593999997E+02  0.45594000000E+02  0.51100000000E-03 0.  1.
         11   -1    0    0    0    0 -0.00000000000E+00 -0.00000000000E+00 -0.45593999997E+02  0.45594000000E+02  0.51100000000E-03 0. -1.
    9900012    2    1    2    0    0  0.10482283461E+02  0.34848678545E+02  0.23649829688E+02  0.47787272965E+02  0.20000008758E+02 0.  0.
         12    1    1    2    0    0 -0.10482283461E+02 -0.34848678545E+02 -0.23649829688E+02  0.43400727035E+02  0.00000000000E+00 0. -1.
         11    1    3    3    0    0 -0.37794635670E+01  0.68415645219E+01  0.54603809986E+01  0.95345220579E+01  0.51100000000E-03 0. -1.
        -11    1    3    3    0    0  0.72513617361E+01  0.17513077042E+02  0.17197101320E+02  0.25593561858E+02  0.51100000000E-03 0.  1.
         12    1    3    3    0    0  0.70103852916E+01  0.10494036981E+02  0.99234736981E+00  0.12659189050E+02  0.00000000000E+00 0. -1.
</event>
<event>
 7    1  0.1246400E-009  0.4778727E+02  0.7816164E-02  0.1312668E+00
        -11   -1    0    0    0    0  0.00000000000E+00  0.00000000000E+00  0.45593999997E+02  0.45594000000E+02  0.51100000000E-03 0.  1.
         11   -1    0    0    0    0 -0.00000000000E+00 -0.00000000000E+00 -0.45593999997E+02  0.45594000000E+02  0.51100000000E-03 0. -1.
    9900012    2    1    2    0    0 -0.19520749334E+02  0.25661946976E+02  0.29052156533E+02  0.47787274471E+02  0.20000015624E+02 0.  0.
         12    1    1    2    0    0  0.19520749334E+02 -0.25661946976E+02 -0.29052156533E+02  0.43400725529E+02  0.00000000000E+00 0. -1.
         11    1    3    3    0    0  0.24199763619E+00 -0.12151620486E+01  0.73600295598E+00  0.14411392274E+01  0.51100000000E-03 0. -1.
        -11    1    3    3    0    0 -0.11579065268E+02  0.74619944638E+01  0.43729949375E+01  0.14452653695E+02  0.51100000000E-03 0.  1.
        -12    1    3    3    0    0 -0.81836817023E+01  0.19415114561E+02  0.23943158640E+02  0.31893481548E+02  0.00000000000E+00 0.  1.
</event>
<event>
 7    1  0.1246400E-009  0.4778727E+02  0.7816164E-02  0.1312668E+00
        -11   -1    0    0    0    0  0.00000000000E+00  0.00000000000E+00  0.45593999997E+02  0.45594000000E+02  0.51100000000E-03 0.  1.
         11   -1    0    0    0    0 -0.00000000000E+00 -0.00000000000E+00 -0.45593999997E+02  0.45594000000E+02  0.51100000000E-03 0. -1.
    9900012    2    1    2    0    0  0.31584621713E+02 -0.15070353029E+02  0.25669426983E+02  0.47787270159E+02  0.19999995961E+02 0.  0.
         12    1    1    2    0    0 -0.31584621713E+02  0.15070353029E+02 -0.25669426983E+02  0.43400729841E+02  0.00000000000E+00 0. -1.
         11    1    3    3    0    0  0.19299070255E+02 -0.81414915770E+01  0.21014638144E+02  0.29670743408E+02  0.51100000000E-03 0.  1.
        -11    1    3    3    0    0 -0.27037592848E+00 -0.43351069235E+01  0.27854325871E+01  0.51599312146E+01  0.51100000000E-03 0. -1.
        -12    1    3    3    0    0  0.12555927387E+02 -0.25937545283E+01  0.18693562512E+01  0.12956595536E+02  0.00000000000E+00 0.  1.
</event>
<event>
 7    1  0.1246400E-009  0.4778727E+02  0.7816164E-02  0.1312668E+00
        -11   -1    0    0    0    0  0.00000000000E+00  0.00000000000E+00  0.45593999997E+02  0.45594000000E+02  0.51100000000E-03 0.  1.
         11   -1    0    0    0    0 -0.00000000000E+00 -0.00000000000E+00 -0.45593999997E+02  0.45594000000E+02  0.51100000000E-03 0. -1.
    9900012    2    1    2    0    0 -0.54889328104E+01  0.80699189574E+01  0.42289138658E+02  0.47787271622E+02  0.20000002631E+02 0.  0.
         12    1    1    2    0    0  0.54889328104E+01 -0.80699189574E+01 -0.42289138658E+02  0.43400728378E+02  0.00000000000E+00 0. -1.
         11    1    3    3    0    0  0.42403750946E+01 -0.19728465512E+00  0.11936089126E+02  0.12668461866E+02  0.51100000000E-03 0. -1.
        -11    1    3    3    0    0 -0.44200456425E+01  0.80260998753E+01  0.27705130845E+02  0.29180975962E+02  0.51100000000E-03 0.  1.
         12    1    3    3    0    0 -0.53092622624E+01  0.24110373719E+00  0.26479186866E+01  0.59378337930E+01  0.00000000000E+00 0. -1.
</event>
<event>
 7    1  0.1246400E-009  0.4778727E+02  0.7816164E-02  0.1312668E+00
        -11   -1    0    0    0    0  0.00000000000E+00  0.00000000000E+00  0.45593999997E+02  0.45594000000E+02  0.51100000000E-03 0.  1.
         11   -1    0    0    0    0 -0.00000000000E+00 -0.00000000000E+00 -0.45593999997E+02  0.45594000000E+02  0.51100000000E-03 0. -1.
    9900012    2    1    2    0    0 -0.48235462832E+00 -0.34868392713E+02  0.25837684381E+02  0.47787269470E+02  0.19999992822E+02 0.  0.
         12    1    1    2    0    0  0.48235462832E+00  0.34868392713E+02 -0.25837684381E+02  0.43400730530E+02  0.00000000000E+00 0. -1.
         11    1    3    3    0    0 -0.11467299752E+01 -0.64271471507E+01  0.50182384468E+01  0.82344354696E+01  0.51100000000E-03 0. -1.
        -11    1    3    3    0    0 -0.24385293896E+01 -0.10722603599E+02  0.18354493034E+02  0.21396449900E+02  0.51100000000E-03 0.  1.
         12    1    3    3    0    0  0.31029047366E+01 -0.17718641963E+02  0.24649529009E+01  0.18156384101E+02  0.00000000000E+00 0. -1.
</event>
<event>
 7    1  0.1246400E-009  0.4778727E+02  0.7816164E-02  0.1312668E+00
        -11   -1    0    0    0    0  0.00000000000E+00  0.00000000000E+00  0.45593999997E+02  0.45594000000E+02  0.51100000000E-03 0.  1.
         11   -1    0    0    0    0 -0.00000000000E+00 -0.00000000000E+00 -0.45593999997E+02  0.45594000000E+02  0.51100000000E-03 0. -1.
    9900012    2    1    2    0    0  0.25829196522E+01 -0.28908396645E+02  0.32268509929E+02  0.47787267246E+02  0.19999982683E+02 0.  0.
         12    1    1    2    0    0 -0.25829196522E+01  0.28908396645E+02 -0.32268509929E+02  0.43400732754E+02  0.00000000000E+00 0. -1.
         11    1    3    3    0    0  0.38371540062E+01 -0.55358160437E+01  0.42634300389E+01  0.79715648461E+01  0.51100000000E-03 0. -1.
        -11    1    3    3    0    0 -0.15677521730E+01 -0.11850668683E+02  0.25291799521E+02  0.27974476195E+02  0.51100000000E-03 0.  1.
        -12    1    3    3    0    0  0.31351781898E+00 -0.11521911919E+02  0.27132803683E+01  0.11841226205E+02  0.00000000000E+00 0.  1.
</event>
<event>
 7    1  0.1246400E-009  0.4778727E+02  0.7816164E-02  0.1312668E+00
        -11   -1    0    0    0    0  0.00000000000E+00  0.00000000000E+00  0.45593999997E+02  0.45594000000E+02  0.51100000000E-03 0.  1.
         11   -1    0    0    0    0 -0.00000000000E+00 -0.00000000000E+00 -0.45593999997E+02  0.45594000000E+02  0.51100000000E-03 0. -1.
    9900012    2    1    2    0    0  0.36911971272E+02  0.20044497780E+02  0.10924632580E+02  0.47787272916E+02  0.20000008532E+02 0.  0.
         12    1    1    2    0    0 -0.36911971272E+02 -0.20044497780E+02 -0.10924632580E+02  0.43400727084E+02  0.00000000000E+00 0. -1.
         11    1    3    3    0    0  0.24754589983E+02  0.20792457630E+02  0.72403533822E+01  0.33129122187E+02  0.51100000000E-03 0. -1.
        -11    1    3    3    0    0  0.10679427634E+02  0.68749409338E+00  0.53910224484E+01  0.11982735331E+02  0.51100000000E-03 0.  1.
         12    1    3    3    0    0  0.14779536544E+01 -0.14354539429E+01 -0.17067432503E+01  0.26754153975E+01  0.00000000000E+00 0. -1.
</event>
<event>
 7    1  0.1246400E-009  0.4778727E+02  0.7816164E-02  0.1312668E+00
        -11   -1    0    0    0    0  0.00000000000E+00  0.00000000000E+00  0.45593999997E+02  0.45594000000E+02  0.51100000000E-03 0.  1.
         11   -1    0    0    0    0 -0.00000000000E+00 -0.00000000000E+00 -0.45593999997E+02  0.45594000000E+02  0.51100000000E-03 0. -1.
    9900012    2    1    2    0    0  0.10291185361E+02 -0.43335224239E+01  0.41939663969E+02  0.47787270438E+02  0.19999997234E+02 0.  0.
         12    1    1    2    0    0 -0.10291185361E+02  0.43335224239E+01 -0.41939663969E+02  0.43400729562E+02  0.00000000000E+00 0. -1.
         11    1    3    3    0    0  0.55921493316E+01  0.32905338433E+01  0.86304753999E+01  0.10797446597E+02  0.51100000000E-03 0. -1.
        -11    1    3    3    0    0  0.23268431561E+01 -0.11445313076E+01  0.28408192729E+02  0.28526296033E+02  0.51100000000E-03 0.  1.
         12    1    3    3    0    0  0.23721928733E+01 -0.64795249596E+01  0.49009958396E+01  0.84635278076E+01  0.00000000000E+00 0. -1.
</event>
<event>
 7    1  0.1246400E-009  0.4778727E+02  0.7816164E-02  0.1312668E+00
        -11   -1    0    0    0    0  0.00000000000E+00  0.00000000000E+00  0.45593999997E+02  0.45594000000E+02  0.51100000000E-03 0. -1.
         11   -1    0    0    0    0 -0.00000000000E+00 -0.00000000000E+00 -0.45593999997E+02  0.45594000000E+02  0.51100000000E-03 0.  1.
    9900012    2    1    2    0    0 -0.72353335860E+01 -0.26235210805E+02 -0.33808088806E+02  0.47787271817E+02  0.20000003524E+02 0.  0.
         12    1    1    2    0    0  0.72353335860E+01  0.26235210805E+02  0.33808088806E+02  0.43400728183E+02  0.00000000000E+00 0. -1.
         11    1    3    3    0    0 -0.65731757057E+01 -0.14392836530E+02 -0.18413852869E+02  0.24278186917E+02  0.51100000000E-03 0. -1.
        -11    1    3    3    0    0  0.59578979238E+01 -0.37464419165E+01 -0.82484025035E+01  0.10842901771E+02  0.51100000000E-03 0.  1.
         12    1    3    3    0    0 -0.66200558041E+01 -0.80959323587E+01 -0.71458334335E+01  0.12666183129E+02  0.00000000000E+00 0. -1.
</event>
<event>
 7    1  0.1246400E-009  0.4778727E+02  0.7816164E-02  0.1312668E+00
        -11   -1    0    0    0    0  0.00000000000E+00  0.00000000000E+00  0.45593999997E+02  0.45594000000E+02  0.51100000000E-03 0. -1.
         11   -1    0    0    0    0 -0.00000000000E+00 -0.00000000000E+00 -0.45593999997E+02  0.45594000000E+02  0.51100000000E-03 0.  1.
    9900012    2    1    2    0    0  0.28596236139E+02 -0.93684555149E+01 -0.31274761257E+02  0.47787269917E+02  0.19999994858E+02 0.  0.
         12    1    1    2    0    0 -0.28596236139E+02  0.93684555149E+01  0.31274761257E+02  0.43400730083E+02  0.00000000000E+00 0. -1.
         11    1    3    3    0    0  0.52617959200E+01  0.13767127876E+01 -0.34182436977E+01  0.64238792518E+01  0.51100000000E-03 0. -1.
        -11    1    3    3    0    0  0.25733935921E+02 -0.10914419611E+02 -0.26838694630E+02  0.38751458594E+02  0.51100000000E-03 0.  1.
         12    1    3    3    0    0 -0.23994957021E+01  0.16925130822E+00 -0.10178229297E+01  0.26119320714E+01  0.00000000000E+00 0. -1.
</event>
<event>
 7    1  0.1246400E-009  0.4778729E+02  0.7816164E-02  0.1312668E+00
        -11   -1    0    0    0    0  0.00000000000E+00  0.00000000000E+00  0.45593999997E+02  0.45594000000E+02  0.51100000000E-03 0. -1.
         11   -1    0    0    0    0 -0.00000000000E+00 -0.00000000000E+00 -0.45593999997E+02  0.45594000000E+02  0.51100000000E-03 0.  1.
    9900012    2    1    2    0    0 -0.29798654232E+02  0.22648819720E+02 -0.21970278427E+02  0.47787286147E+02  0.20000068860E+02 0.  0.
         12    1    1    2    0    0  0.29798654232E+02 -0.22648819720E+02  0.21970278427E+02  0.43400713853E+02  0.00000000000E+00 0. -1.
         11    1    3    3    0    0 -0.44706634673E+01 -0.10942215683E+01 -0.38697244596E+01  0.60132287777E+01  0.51100000000E-03 0. -1.
        -11    1    3    3    0    0  0.10860870277E+01 -0.92376291788E+00 -0.12579465599E+01  0.19014081016E+01  0.51100000000E-03 0.  1.
        -12    1    3    3    0    0 -0.26414077793E+02  0.24666804206E+02 -0.16842607407E+02  0.39872649268E+02  0.00000000000E+00 0.  1.
</event>
<event>
 7    1  0.1246400E-009  0.4778727E+02  0.7816164E-02  0.1312668E+00
        -11   -1    0    0    0    0  0.00000000000E+00  0.00000000000E+00  0.45593999997E+02  0.45594000000E+02  0.51100000000E-03 0. -1.
         11   -1    0    0    0    0 -0.00000000000E+00 -0.00000000000E+00 -0.45593999997E+02  0.45594000000E+02  0.51100000000E-03 0.  1.
    9900012    2    1    2    0    0  0.23664618841E+02 -0.36379189277E+02 -0.40461721695E+00  0.47787270600E+02  0.19999997976E+02 0.  0.
         12    1    1    2    0    0 -0.23664618841E+02  0.36379189277E+02  0.40461721695E+00  0.43400729400E+02  0.00000000000E+00 0. -1.
         11    1    3    3    0    0 -0.11801006107E+01 -0.96386728215E+01  0.21382852323E+00  0.97130002630E+01  0.51100000000E-03 0. -1.
        -11    1    3    3    0    0  0.11184094447E+02 -0.91610927966E+01 -0.51640686423E+01  0.15351781493E+02  0.51100000000E-03 0.  1.
         12    1    3    3    0    0  0.13660625005E+02 -0.17579423658E+02  0.45456229021E+01  0.22722488844E+02  0.00000000000E+00 0. -1.
</event>
<event>
 7    1  0.1246400E-009  0.4778728E+02  0.7816164E-02  0.1312668E+00
        -11   -1    0    0    0    0  0.00000000000E+00  0.00000000000E+00  0.45593999997E+02  0.45594000000E+02  0.51100000000E-03 0.  1.
         11   -1    0    0    0    0 -0.00000000000E+00 -0.00000000000E+00 -0.45593999997E+02  0.45594000000E+02  0.51100000000E-03 0. -1.
    9900012    2    1    2    0    0 -0.72817326564E+00 -0.58968830780E+01  0.42992080786E+02  0.47787280228E+02  0.20000041874E+02 0.  0.
         12    1    1    2    0    0  0.72817326564E+00  0.58968830780E+01 -0.42992080786E+02  0.43400719772E+02  0.00000000000E+00 0. -1.
         11    1    3    3    0    0  0.34447129874E+01 -0.27480778365E+01  0.10170394313E+02  0.11083992967E+02  0.51100000000E-03 0. -1.
        -11    1    3    3    0    0 -0.70815972255E+01 -0.57413834768E+01  0.31161897777E+02  0.32468082432E+02  0.51100000000E-03 0.  1.
         12    1    3    3    0    0  0.29087109725E+01  0.25925782353E+01  0.16597886969E+01  0.42352048293E+01  0.00000000000E+00 0. -1.
</event>
<event>
 7    1  0.1246400E-009  0.4778727E+02  0.7816164E-02  0.1312668E+00
        -11   -1    0    0    0    0  0.00000000000E+00  0.00000000000E+00  0.45593999997E+02  0.45594000000E+02  0.51100000000E-03 0.  1.
         11   -1    0    0    0    0 -0.00000000000E+00 -0.00000000000E+00 -0.45593999997E+02  0.45594000000E+02  0.51100000000E-03 0. -1.
    9900012    2    1    2    0    0  0.16756477386E+02 -0.39178871806E+02  0.82377039415E+01  0.47787270782E+02  0.19999998803E+02 0.  0.
         12    1    1    2    0    0 -0.16756477386E+02  0.39178871806E+02 -0.82377039415E+01  0.43400729218E+02  0.00000000000E+00 0. -1.
         11    1    3    3    0    0  0.78585095361E+01 -0.13108021070E+02 -0.47483120465E+01  0.16003838791E+02  0.51100000000E-03 0.  1.
        -11    1    3    3    0    0 -0.17820063341E+01 -0.57249585946E+01  0.33288383814E+01  0.68579780340E+01  0.51100000000E-03 0. -1.
        -12    1    3    3    0    0  0.10679974184E+02 -0.20345892142E+02  0.96571776065E+01  0.24925453957E+02  0.00000000000E+00 0.  1.
</event>
<event>
 7    1  0.1246400E-009  0.4778727E+02  0.7816164E-02  0.1312668E+00
        -11   -1    0    0    0    0  0.00000000000E+00  0.00000000000E+00  0.45593999997E+02  0.45594000000E+02  0.51100000000E-03 0.  1.
         11   -1    0    0    0    0 -0.00000000000E+00 -0.00000000000E+00 -0.45593999997E+02  0.45594000000E+02  0.51100000000E-03 0. -1.
    9900012    2    1    2    0    0 -0.39530518133E+02 -0.17785862317E+02  0.21504723325E+01  0.47787270818E+02  0.19999998968E+02 0.  0.
         12    1    1    2    0    0  0.39530518133E+02  0.17785862317E+02 -0.21504723325E+01  0.43400729182E+02  0.00000000000E+00 0. -1.
         11    1    3    3    0    0 -0.11381895430E+02  0.27218707479E+01  0.53831753872E+00  0.11715199955E+02  0.51100000000E-03 0. -1.
        -11    1    3    3    0    0 -0.17237809404E+02 -0.88457574273E+01  0.43797495368E+01  0.19863829031E+02  0.51100000000E-03 0.  1.
         12    1    3    3    0    0 -0.10910813299E+02 -0.11661975638E+02 -0.27675947430E+01  0.16208241832E+02  0.00000000000E+00 0. -1.
</event>
<event>
 7    1  0.1246400E-009  0.4778728E+02  0.7816164E-02  0.1312668E+00
        -11   -1    0    0    0    0  0.00000000000E+00  0.00000000000E+00  0.45593999997E+02  0.45594000000E+02  0.51100000000E-03 0. -1.
         11   -1    0    0    0    0 -0.00000000000E+00 -0.00000000000E+00 -0.45593999997E+02  0.45594000000E+02  0.51100000000E-03 0.  1.
    9900012    2    1    2    0    0  0.40440231731E+02 -0.14080469698E+02  0.70675549825E+01  0.47787282232E+02  0.20000051009E+02 0.  0.
         12    1    1    2    0    0 -0.40440231731E+02  0.14080469698E+02 -0.70675549825E+01  0.43400717768E+02  0.00000000000E+00 0. -1.
         11    1    3    3    0    0 -0.87718006202E+00 -0.26797720223E+01 -0.15946648683E+01  0.32393794554E+01  0.51100000000E-03 0. -1.
        -11    1    3    3    0    0  0.66428780225E+01 -0.77134051904E+00  0.44595432967E+01  0.80380545715E+01  0.51100000000E-03 0.  1.
        -12    1    3    3    0    0  0.34674533770E+02 -0.10629357156E+02  0.42026765541E+01  0.36509848205E+02  0.00000000000E+00 0.  1.
</event>
<event>
 7    1  0.1246400E-009  0.4778727E+02  0.7816164E-02  0.1312668E+00
        -11   -1    0    0    0    0  0.00000000000E+00  0.00000000000E+00  0.45593999997E+02  0.45594000000E+02  0.51100000000E-03 0.  1.
         11   -1    0    0    0    0 -0.00000000000E+00 -0.00000000000E+00 -0.45593999997E+02  0.45594000000E+02  0.51100000000E-03 0. -1.
    9900012    2    1    2    0    0  0.30138806583E+02  0.20693288091E+02  0.23389388653E+02  0.47787270330E+02  0.19999996745E+02 0.  0.
         12    1    1    2    0    0 -0.30138806583E+02 -0.20693288091E+02 -0.23389388653E+02  0.43400729670E+02  0.00000000000E+00 0. -1.
         11    1    3    3    0    0  0.24885186182E+01  0.64652729463E+01  0.12354885147E+02  0.14164591997E+02  0.51100000000E-03 0.  1.
        -11    1    3    3    0    0  0.69676523169E+01  0.22791277273E+01  0.48141583204E-01  0.73310926798E+01  0.51100000000E-03 0. -1.
        -12    1    3    3    0    0  0.20682635648E+02  0.11948887418E+02  0.10986361922E+02  0.26291585653E+02  0.00000000000E+00 0.  1.
</event>
<event>
 7    1  0.1246400E-009  0.4778727E+02  0.7816164E-02  0.1312668E+00
        -11   -1    0    0    0    0  0.00000000000E+00  0.00000000000E+00  0.45593999997E+02  0.45594000000E+02  0.51100000000E-03 0. -1.
         11   -1    0    0    0    0 -0.00000000000E+00 -0.00000000000E+00 -0.45593999997E+02  0.45594000000E+02  0.51100000000E-03 0.  1.
    9900012    2    1    2    0    0  0.29296561545E+02  0.93867502255E+01 -0.30614104158E+02  0.47787274528E+02  0.20000015881E+02 0.  0.
         12    1    1    2    0    0 -0.29296561545E+02 -0.93867502255E+01  0.30614104158E+02  0.43400725472E+02  0.00000000000E+00 0. -1.
         11    1    3    3    0    0  0.45182173013E+01  0.44731990130E+01 -0.11173976059E+02  0.12856186768E+02  0.51100000000E-03 0. -1.
        -11    1    3    3    0    0  0.16284562273E+02  0.32561578132E+01 -0.20308061544E+02  0.26233697720E+02  0.51100000000E-03 0.  1.
         12    1    3    3    0    0  0.84937819703E+01  0.16573933993E+01  0.86793344470E+00  0.86973900397E+01  0.00000000000E+00 0. -1.
</event>
<event>
 7    1  0.1246400E-009  0.4778727E+02  0.7816164E-02  0.1312668E+00
        -11   -1    0    0    0    0  0.00000000000E+00  0.00000000000E+00  0.45593999997E+02  0.45594000000E+02  0.51100000000E-03 0.  1.
         11   -1    0    0    0    0 -0.00000000000E+00 -0.00000000000E+00 -0.45593999997E+02  0.45594000000E+02  0.51100000000E-03 0. -1.
    9900012    2    1    2    0    0 -0.24792634553E+02 -0.22070636683E+02  0.27961321548E+02  0.47787271499E+02  0.20000002074E+02 0.  0.
         12    1    1    2    0    0  0.24792634553E+02  0.22070636683E+02 -0.27961321548E+02  0.43400728501E+02  0.00000000000E+00 0. -1.
         11    1    3    3    0    0 -0.20281207732E+01 -0.55854585002E+01  0.13505849033E+00  0.59438086767E+01  0.51100000000E-03 0. -1.
        -11    1    3    3    0    0 -0.42419540060E+01 -0.25898460923E+01 -0.78992011618E+00  0.50324398279E+01  0.51100000000E-03 0.  1.
        -12    1    3    3    0    0 -0.18522559774E+02 -0.13895332090E+02  0.28616183174E+02  0.36811022995E+02  0.00000000000E+00 0.  1.
</event>
<event>
 7    1  0.1246400E-009  0.4778728E+02  0.7816164E-02  0.1312668E+00
        -11   -1    0    0    0    0  0.00000000000E+00  0.00000000000E+00  0.45593999997E+02  0.45594000000E+02  0.51100000000E-03 0. -1.
         11   -1    0    0    0    0 -0.00000000000E+00 -0.00000000000E+00 -0.45593999997E+02  0.45594000000E+02  0.51100000000E-03 0.  1.
    9900012    2    1    2    0    0  0.20542409904E+02  0.33295103342E+02  0.18790102904E+02  0.47787280210E+02  0.20000041787E+02 0.  0.
         12    1    1    2    0    0 -0.20542409904E+02 -0.33295103342E+02 -0.18790102904E+02  0.43400719790E+02  0.00000000000E+00 0. -1.
         11    1    3    3    0    0  0.58288188691E+01 -0.30450864891E+00  0.16909189556E+01  0.60767641144E+01  0.51100000000E-03 0. -1.
        -11    1    3    3    0    0  0.13330499707E+02  0.18098182003E+02  0.98128327741E+01  0.24526273699E+02  0.51100000000E-03 0.  1.
        -12    1    3    3    0    0  0.13830913272E+01  0.15501429988E+02  0.72863511740E+01  0.17184242396E+02  0.00000000000E+00 0.  1.
</event>
<event>
 7    1  0.1246400E-009  0.4778727E+02  0.7816164E-02  0.1312668E+00
        -11   -1    0    0    0    0  0.00000000000E+00  0.00000000000E+00  0.45593999997E+02  0.45594000000E+02  0.51100000000E-03 0.  1.
         11   -1    0    0    0    0 -0.00000000000E+00 -0.00000000000E+00 -0.45593999997E+02  0.45594000000E+02  0.51100000000E-03 0. -1.
    9900012    2    1    2    0    0  0.69029084933E+01  0.16053493244E+02  0.39727300534E+02  0.47787271910E+02  0.20000003949E+02 0.  0.
         12    1    1    2    0    0 -0.69029084933E+01 -0.16053493244E+02 -0.39727300534E+02  0.43400728090E+02  0.00000000000E+00 0. -1.
         11    1    3    3    0    0 -0.17964957709E+01 -0.13795218403E+01  0.35336044097E+01  0.41972417071E+01  0.51100000000E-03 0. -1.
        -11    1    3    3    0    0  0.27796849116E+00  0.53131121671E+01  0.23588851590E+02  0.24181404983E+02  0.51100000000E-03 0.  1.
         12    1    3    3    0    0  0.84214357730E+01  0.12119902917E+02  0.12604844534E+02  0.19408625220E+02  0.00000000000E+00 0. -1.
</event>
<event>
 7    1  0.1246400E-009  0.4778726E+02  0.7816164E-02  0.1312668E+00
        -11   -1    0    0    0    0  0.00000000000E+00  0.00000000000E+00  0.45593999997E+02  0.45594000000E+02  0.51100000000E-03 0.  1.
         11   -1    0    0    0    0 -0.00000000000E+00 -0.00000000000E+00 -0.45593999997E+02  0.45594000000E+02  0.51100000000E-03 0. -1.
    9900012    2    1    2    0    0  0.16475089550E+02  0.20392852736E+02  0.34587968038E+02  0.47787256326E+02  0.19999932895E+02 0.  0.
         12    1    1    2    0    0 -0.16475089550E+02 -0.20392852736E+02 -0.34587968038E+02  0.43400743674E+02  0.00000000000E+00 0. -1.
         11    1    3    3    0    0  0.13607008956E+02  0.95982303675E+01  0.10068395593E+02  0.19458913356E+02  0.51100000000E-03 0. -1.
        -11    1    3    3    0    0  0.53590812690E+01  0.45569466962E+01  0.16010613018E+02  0.17487859924E+02  0.51100000000E-03 0.  1.
        -12    1    3    3    0    0 -0.24910006746E+01  0.62376756723E+01  0.85089594271E+01  0.10840483047E+02  0.00000000000E+00 0.  1.
</event>
<event>
 7    1  0.1246400E-009  0.4778727E+02  0.7816164E-02  0.1312668E+00
        -11   -1    0    0    0    0  0.00000000000E+00  0.00000000000E+00  0.45593999997E+02  0.45594000000E+02  0.51100000000E-03 0. -1.
         11   -1    0    0    0    0 -0.00000000000E+00 -0.00000000000E+00 -0.45593999997E+02  0.45594000000E+02  0.51100000000E-03 0.  1.
    9900012    2    1    2    0    0  0.65217917486E+01  0.11080814394E+02 -0.41452442861E+02  0.47787271499E+02  0.20000002073E+02 0.  0.
         12    1    1    2    0    0 -0.65217917486E+01 -0.11080814394E+02  0.41452442861E+02  0.43400728501E+02  0.00000000000E+00 0. -1.
         11    1    3    3    0    0 -0.33656256633E+01  0.40354354743E+01 -0.48866949101E+01  0.71757900595E+01  0.51100000000E-03 0. -1.
        -11    1    3    3    0    0  0.67427612512E+01  0.53922495862E+00 -0.55051659002E+01  0.87213786007E+01  0.51100000000E-03 0.  1.
         12    1    3    3    0    0  0.31446561607E+01  0.65061539609E+01 -0.31060582051E+02  0.31890102839E+02  0.00000000000E+00 0. -1.
</event>
<event>
 7    1  0.1246400E-009  0.4778727E+02  0.7816164E-02  0.1312668E+00
        -11   -1    0    0    0    0  0.00000000000E+00  0.00000000000E+00  0.45593999997E+02  0.45594000000E+02  0.51100000000E-03 0.  1.
         11   -1    0    0    0    0 -0.00000000000E+00 -0.00000000000E+00 -0.45593999997E+02  0.45594000000E+02  0.51100000000E-03 0. -1.
    9900012    2    1    2    0    0  0.34283579523E+02  0.77834196469E+01  0.25449518219E+02  0.47787269316E+02  0.19999992121E+02 0.  0.
         12    1    1    2    0    0 -0.34283579523E+02 -0.77834196469E+01 -0.25449518219E+02  0.43400730684E+02  0.00000000000E+00 0. -1.
         11    1    3    3    0    0  0.47224447435E+01  0.47893035651E+00 -0.39789556696E+00  0.47633160493E+01  0.51100000000E-03 0. -1.
        -11    1    3    3    0    0  0.16772931043E+02  0.78354726381E+01  0.61010074593E+01  0.19492258451E+02  0.51100000000E-03 0.  1.
        -12    1    3    3    0    0  0.12788203736E+02 -0.53098334775E+00  0.19746406327E+02  0.23531694816E+02  0.00000000000E+00 0.  1.
</event>
<event>
 7    1  0.1246400E-009  0.4778728E+02  0.7816164E-02  0.1312668E+00
        -11   -1    0    0    0    0  0.00000000000E+00  0.00000000000E+00  0.45593999997E+02  0.45594000000E+02  0.51100000000E-03 0.  1.
         11   -1    0    0    0    0 -0.00000000000E+00 -0.00000000000E+00 -0.45593999997E+02  0.45594000000E+02  0.51100000000E-03 0. -1.
    9900012    2    1    2    0    0  0.26058590623E+02 -0.30071739896E+02  0.17328103561E+02  0.47787275828E+02  0.20000021809E+02 0.  0.
         12    1    1    2    0    0 -0.26058590623E+02  0.30071739896E+02 -0.17328103561E+02  0.43400724172E+02  0.00000000000E+00 0. -1.
         11    1    3    3    0    0  0.70053692824E+01 -0.76258413084E+00  0.63774983671E+01  0.95041685077E+01  0.51100000000E-03 0. -1.
        -11    1    3    3    0    0  0.32501459680E+01 -0.12830145406E+02  0.74391173128E+01  0.15182771374E+02  0.51100000000E-03 0.  1.
         12    1    3    3    0    0  0.15803075373E+02 -0.16479010359E+02  0.35114878810E+01  0.23100335946E+02  0.00000000000E+00 0. -1.
</event>
<event>
 7    1  0.1246400E-009  0.4778727E+02  0.7816164E-02  0.1312668E+00
        -11   -1    0    0    0    0  0.00000000000E+00  0.00000000000E+00  0.45593999997E+02  0.45594000000E+02  0.51100000000E-03 0. -1.
         11   -1    0    0    0    0 -0.00000000000E+00 -0.00000000000E+00 -0.45593999997E+02  0.45594000000E+02  0.51100000000E-03 0.  1.
    9900012    2    1    2    0    0  0.56122401008E-01 -0.13610562204E+02 -0.41211318476E+02  0.47787270469E+02  0.19999997378E+02 0.  0.
         12    1    1    2    0    0 -0.56122401008E-01  0.13610562204E+02  0.41211318476E+02  0.43400729531E+02  0.00000000000E+00 0. -1.
         11    1    3    3    0    0  0.72732808672E+01  0.44992835594E+00 -0.10787258019E+02  0.13017987015E+02  0.51100000000E-03 0. -1.
        -11    1    3    3    0    0 -0.23094943503E+00 -0.33980827701E+01 -0.30468771083E+01  0.45698757673E+01  0.51100000000E-03 0.  1.
        -12    1    3    3    0    0 -0.69862090312E+01 -0.10662407790E+02 -0.27377183349E+02  0.30199407687E+02  0.00000000000E+00 0.  1.
</event>
<event>
 7    1  0.1246400E-009  0.4778727E+02  0.7816164E-02  0.1312668E+00
        -11   -1    0    0    0    0  0.00000000000E+00  0.00000000000E+00  0.45593999997E+02  0.45594000000E+02  0.51100000000E-03 0. -1.
         11   -1    0    0    0    0 -0.00000000000E+00 -0.00000000000E+00 -0.45593999997E+02  0.45594000000E+02  0.51100000000E-03 0.  1.
    9900012    2    1    2    0    0 -0.42111394762E+02  0.10261792536E+02  0.22247007735E+01  0.47787271338E+02  0.20000001337E+02 0.  0.
         12    1    1    2    0    0  0.42111394762E+02 -0.10261792536E+02 -0.22247007735E+01  0.43400728662E+02  0.00000000000E+00 0. -1.
         11    1    3    3    0    0 -0.13679035751E+02  0.59380194393E+00 -0.24331786266E+01  0.13906436579E+02  0.51100000000E-03 0. -1.
        -11    1    3    3    0    0 -0.48748697205E+01 -0.39979009566E+01  0.13364077411E+01  0.64446530366E+01  0.51100000000E-03 0.  1.
        -12    1    3    3    0    0 -0.23557489291E+02  0.13665891549E+02  0.33214716590E+01  0.27436181722E+02  0.00000000000E+00 0.  1.
</event>
<event>
 7    1  0.1246400E-009  0.4778729E+02  0.7816164E-02  0.1312668E+00
        -11   -1    0    0    0    0  0.00000000000E+00  0.00000000000E+00  0.45593999997E+02  0.45594000000E+02  0.51100000000E-03 0.  1.
         11   -1    0    0    0    0 -0.00000000000E+00 -0.00000000000E+00 -0.45593999997E+02  0.45594000000E+02  0.51100000000E-03 0. -1.
    9900012    2    1    2    0    0  0.15061597764E+02  0.64405059370E+01  0.40190673014E+02  0.47787285245E+02  0.20000064747E+02 0.  0.
         12    1    1    2    0    0 -0.15061597764E+02 -0.64405059370E+01 -0.40190673014E+02  0.43400714755E+02  0.00000000000E+00 0. -1.
         11    1    3    3    0    0  0.16156549730E+02 -0.15919737114E+01  0.21143616986E+02  0.26657475856E+02  0.51100000000E-03 0.  1.
        -11    1    3    3    0    0 -0.15120098782E+01  0.52482401451E+00  0.40085494671E+01  0.43162580100E+01  0.51100000000E-03 0. -1.
         12    1    3    3    0    0  0.41705791188E+00  0.75076556339E+01  0.15038506561E+02  0.16813551379E+02  0.00000000000E+00 0. -1.
</event>
<event>
 7    1  0.1246400E-009  0.4778728E+02  0.7816164E-02  0.1312668E+00
        -11   -1    0    0    0    0  0.00000000000E+00  0.00000000000E+00  0.45593999997E+02  0.45594000000E+02  0.51100000000E-03 0.  1.
         11   -1    0    0    0    0 -0.00000000000E+00 -0.00000000000E+00 -0.45593999997E+02  0.45594000000E+02  0.51100000000E-03 0. -1.
    9900012    2    1    2    0    0  0.38432313854E+02  0.27582348101E+01 -0.19974288341E+02  0.47787276479E+02  0.20000024779E+02 0.  0.
         12    1    1    2    0    0 -0.38432313854E+02 -0.27582348101E+01  0.19974288341E+02  0.43400723521E+02  0.00000000000E+00 0. -1.
         11    1    3    3    0    0  0.20445405421E+02 -0.31221843071E+01 -0.29371934303E+01  0.20889943590E+02  0.51100000000E-03 0. -1.
        -11    1    3    3    0    0  0.15907107802E+02  0.16402305980E+01 -0.12005324621E+02  0.19996356032E+02  0.51100000000E-03 0.  1.
         12    1    3    3    0    0  0.20798006303E+01  0.42401885192E+01 -0.50317702895E+01  0.69009768574E+01  0.00000000000E+00 0. -1.
</event>
<event>
 7    1  0.1246400E-009  0.4778727E+02  0.7816164E-02  0.1312668E+00
        -11   -1    0    0    0    0  0.00000000000E+00  0.00000000000E+00  0.45593999997E+02  0.45594000000E+02  0.51100000000E-03 0.  1.
         11   -1    0    0    0    0 -0.00000000000E+00 -0.00000000000E+00 -0.45593999997E+02  0.45594000000E+02  0.51100000000E-03 0. -1.
    9900012    2    1    2    0    0 -0.84446992519E+01 -0.11502061275E+02  0.40987961964E+02  0.47787269765E+02  0.19999994164E+02 0.  0.
         12    1    1    2    0    0  0.84446992519E+01  0.11502061275E+02 -0.40987961964E+02  0.43400730235E+02  0.00000000000E+00 0. -1.
         11    1    3    3    0    0 -0.36354301725E+01  0.30922860874E+01  0.65420632516E+01  0.80979736746E+01  0.51100000000E-03 0. -1.
        -11    1    3    3    0    0  0.28639265194E+01 -0.54034508906E+01  0.20067397517E+02  0.20978555717E+02  0.51100000000E-03 0.  1.
        -12    1    3    3    0    0 -0.76731955987E+01 -0.91908964722E+01  0.14378501195E+02  0.18710740372E+02  0.00000000000E+00 0.  1.
</event>
<event>
 7    1  0.1246400E-009  0.4778727E+02  0.7816164E-02  0.1312668E+00
        -11   -1    0    0    0    0  0.00000000000E+00  0.00000000000E+00  0.45593999997E+02  0.45594000000E+02  0.51100000000E-03 0.  1.
         11   -1    0    0    0    0 -0.00000000000E+00 -0.00000000000E+00 -0.45593999997E+02  0.45594000000E+02  0.51100000000E-03 0. -1.
    9900012    2    1    2    0    0 -0.47288600604E+00  0.22830895952E+02  0.36907316541E+02  0.47787269068E+02  0.19999990990E+02 0.  0.
         12    1    1    2    0    0  0.47288600604E+00 -0.22830895952E+02 -0.36907316541E+02  0.43400730932E+02  0.00000000000E+00 0. -1.
         11    1    3    3    0    0  0.23593994352E+01  0.23150097214E+01  0.19635675523E+02  0.19911950914E+02  0.51100000000E-03 0. -1.
        -11    1    3    3    0    0  0.78130848427E+00  0.58544210569E+01  0.16144973351E+01  0.61230132096E+01  0.51100000000E-03 0.  1.
        -12    1    3    3    0    0 -0.36135939255E+01  0.14661465173E+02  0.15657143683E+02  0.21752304945E+02  0.00000000000E+00 0.  1.
</event>
<event>
 7    1  0.1246400E-009  0.4778727E+02  0.7816164E-02  0.1312668E+00
        -11   -1    0    0    0    0  0.00000000000E+00  0.00000000000E+00  0.45593999997E+02  0.45594000000E+02  0.51100000000E-03 0.  1.
         11   -1    0    0    0    0 -0.00000000000E+00 -0.00000000000E+00 -0.45593999997E+02  0.45594000000E+02  0.51100000000E-03 0. -1.
    9900012    2    1    2    0    0  0.16427427055E+02 -0.22724223855E+02  0.33126613014E+02  0.47787271904E+02  0.20000003919E+02 0.  0.
         12    1    1    2    0    0 -0.16427427055E+02  0.22724223855E+02 -0.33126613014E+02  0.43400728096E+02  0.00000000000E+00 0. -1.
         11    1    3    3    0    0  0.80899223145E+01 -0.12112568445E+02  0.91914922816E+01  0.17223376209E+02  0.51100000000E-03 0. -1.
        -11    1    3    3    0    0  0.28305715715E+01 -0.12176892855E+02  0.12010272040E+02  0.17335959441E+02  0.51100000000E-03 0.  1.
        -12    1    3    3    0    0  0.55069331691E+01  0.15652374454E+01  0.11924848693E+02  0.13227936254E+02  0.00000000000E+00 0.  1.
</event>
<event>
 7    1  0.1246400E-009  0.4778727E+02  0.7816164E-02  0.1312668E+00
        -11   -1    0    0    0    0  0.00000000000E+00  0.00000000000E+00  0.45593999997E+02  0.45594000000E+02  0.51100000000E-03 0.  1.
         11   -1    0    0    0    0 -0.00000000000E+00 -0.00000000000E+00 -0.45593999997E+02  0.45594000000E+02  0.51100000000E-03 0. -1.
    9900012    2    1    2    0    0  0.20317820557E+02  0.10108061062E+01  0.38337809893E+02  0.47787271566E+02  0.20000002380E+02 0.  0.
         12    1    1    2    0    0 -0.20317820557E+02 -0.10108061062E+01 -0.38337809893E+02  0.43400728434E+02  0.00000000000E+00 0. -1.
         11    1    3    3    0    0  0.10739277385E+02  0.44942809091E+01  0.21803753159E+02  0.24717085016E+02  0.51100000000E-03 0. -1.
        -11    1    3    3    0    0  0.10039553383E+02  0.14059598090E-02  0.54110189874E+01  0.11404900739E+02  0.51100000000E-03 0.  1.
         12    1    3    3    0    0 -0.46101021131E+00 -0.34848807627E+01  0.11123037747E+02  0.11665285812E+02  0.00000000000E+00 0. -1.
</event>
<event>
 7    1  0.1246400E-009  0.4778728E+02  0.7816164E-02  0.1312668E+00
        -11   -1    0    0    0    0  0.00000000000E+00  0.00000000000E+00  0.45593999997E+02  0.45594000000E+02  0.51100000000E-03 0. -1.
         11   -1    0    0    0    0 -0.00000000000E+00 -0.00000000000E+00 -0.45593999997E+02  0.45594000000E+02  0.51100000000E-03 0.  1.
    9900012    2    1    2    0    0  0.43342127212E+02  0.19652383980E+01  0.11047663065E+01  0.47787278096E+02  0.20000032150E+02 0.  0.
         12    1    1    2    0    0 -0.43342127212E+02 -0.19652383980E+01 -0.11047663065E+01  0.43400721904E+02  0.00000000000E+00 0. -1.
         11    1    3    3    0    0  0.16441930116E+02  0.34320553830E+01 -0.46219246009E+01  0.17420627353E+02  0.51100000000E-03 0. -1.
        -11    1    3    3    0    0  0.21519542658E+02 -0.62833635636E+01  0.28718644284E+01  0.22601304817E+02  0.51100000000E-03 0.  1.
         12    1    3    3    0    0  0.53806544377E+01  0.48165465787E+01  0.28548264789E+01  0.77653459258E+01  0.00000000000E+00 0. -1.
</event>
<event>
 7    1  0.1246400E-009  0.4778727E+02  0.7816164E-02  0.1312668E+00
        -11   -1    0    0    0    0  0.00000000000E+00  0.00000000000E+00  0.45593999997E+02  0.45594000000E+02  0.51100000000E-03 0.  1.
         11   -1    0    0    0    0 -0.00000000000E+00 -0.00000000000E+00 -0.45593999997E+02  0.45594000000E+02  0.51100000000E-03 0. -1.
    9900012    2    1    2    0    0 -0.52182134575E+01  0.44026490780E+01  0.42860358815E+02  0.47787269265E+02  0.19999991887E+02 0.  0.
         12    1    1    2    0    0  0.52182134575E+01 -0.44026490780E+01 -0.42860358815E+02  0.43400730735E+02  0.00000000000E+00 0. -1.
         11    1    3    3    0    0 -0.25375636248E+01 -0.31098553547E+01  0.15781708316E+01  0.43128937978E+01  0.51100000000E-03 0. -1.
        -11    1    3    3    0    0 -0.41310953218E+01  0.73936168108E+01  0.15598580298E+02  0.17749569732E+02  0.51100000000E-03 0.  1.
        -12    1    3    3    0    0  0.14504454890E+01  0.11888762188E+00  0.25683607685E+02  0.25724805735E+02  0.00000000000E+00 0.  1.
</event>
<event>
 7    1  0.1246400E-009  0.4778728E+02  0.7816164E-02  0.1312668E+00
        -11   -1    0    0    0    0  0.00000000000E+00  0.00000000000E+00  0.45593999997E+02  0.45594000000E+02  0.51100000000E-03 0.  1.
         11   -1    0    0    0    0 -0.00000000000E+00 -0.00000000000E+00 -0.45593999997E+02  0.45594000000E+02  0.51100000000E-03 0. -1.
    9900012    2    1    2    0    0  0.21916666625E+02 -0.37458380509E+02 -0.39016588634E+00  0.47787276783E+02  0.20000026165E+02 0.  0.
         12    1    1    2    0    0 -0.21916666625E+02  0.37458380509E+02  0.39016588634E+00  0.43400723217E+02  0.00000000000E+00 0. -1.
         11    1    3    3    0    0  0.49334727573E+01 -0.15320237746E+02 -0.78229376708E+01  0.17895451716E+02  0.51100000000E-03 0. -1.
        -11    1    3    3    0    0  0.56985338861E+01 -0.23893734237E+01  0.10502192289E+01  0.62678030042E+01  0.51100000000E-03 0.  1.
        -12    1    3    3    0    0  0.11284659982E+02 -0.19748769339E+02  0.63825525555E+01  0.23624022063E+02  0.00000000000E+00 0.  1.
</event>
<event>
 7    1  0.1246400E-009  0.4778727E+02  0.7816164E-02  0.1312668E+00
        -11   -1    0    0    0    0  0.00000000000E+00  0.00000000000E+00  0.45593999997E+02  0.45594000000E+02  0.51100000000E-03 0. -1.
         11   -1    0    0    0    0 -0.00000000000E+00 -0.00000000000E+00 -0.45593999997E+02  0.45594000000E+02  0.51100000000E-03 0.  1.
    9900012    2    1    2    0    0 -0.17683936057E+02  0.39634033912E+02  0.21232588626E+00  0.47787270503E+02  0.19999997532E+02 0.  0.
         12    1    1    2    0    0  0.17683936057E+02 -0.39634033912E+02 -0.21232588626E+00  0.43400729497E+02  0.00000000000E+00 0. -1.
         11    1    3    3    0    0 -0.14747099278E+01 -0.93237894570E+00 -0.99685020341E+00  0.20094303817E+01  0.51100000000E-03 0. -1.
        -11    1    3    3    0    0 -0.59051053617E+01  0.58163200771E+01 -0.39241389346E+01  0.91705351649E+01  0.51100000000E-03 0.  1.
        -12    1    3    3    0    0 -0.10304120767E+02  0.34750092780E+02  0.51333150243E+01  0.36607304956E+02  0.00000000000E+00 0.  1.
</event>
<event>
 7    1  0.1246400E-009  0.4778724E+02  0.7816164E-02  0.1312668E+00
        -11   -1    0    0    0    0  0.00000000000E+00  0.00000000000E+00  0.45593999997E+02  0.45594000000E+02  0.51100000000E-03 0. -1.
         11   -1    0    0    0    0 -0.00000000000E+00 -0.00000000000E+00 -0.45593999997E+02  0.45594000000E+02  0.51100000000E-03 0.  1.
    9900012    2    1    2    0    0 -0.61494449065E+01 -0.78010948724E+01 -0.42248704972E+02  0.47787241647E+02  0.19999865963E+02 0.  0.
         12    1    1    2    0    0  0.61494449065E+01  0.78010948724E+01  0.42248704972E+02  0.43400758353E+02  0.00000000000E+00 0. -1.
         11    1    3    3    0    0  0.28228934522E+01 -0.22321560199E+01 -0.29149146616E+01  0.46311959238E+01  0.51100000000E-03 0. -1.
        -11    1    3    3    0    0 -0.68312495325E+01 -0.28821446058E+01 -0.39006516898E+02  0.39704925242E+02  0.51100000000E-03 0.  1.
         12    1    3    3    0    0 -0.21410888262E+01 -0.26867942467E+01 -0.32727341217E+00  0.34511204807E+01  0.00000000000E+00 0. -1.
</event>
<event>
 7    1  0.1246400E-009  0.4778727E+02  0.7816164E-02  0.1312668E+00
        -11   -1    0    0    0    0  0.00000000000E+00  0.00000000000E+00  0.45593999997E+02  0.45594000000E+02  0.51100000000E-03 0.  1.
         11   -1    0    0    0    0 -0.00000000000E+00 -0.00000000000E+00 -0.45593999997E+02  0.45594000000E+02  0.51100000000E-03 0. -1.
    9900012    2    1    2    0    0  0.26277937240E+02  0.34108930036E+02 -0.54473807155E+01  0.47787273618E+02  0.20000011735E+02 0.  0.
         12    1    1    2    0    0 -0.26277937240E+02 -0.34108930036E+02  0.54473807155E+01  0.43400726382E+02  0.00000000000E+00 0. -1.
         11    1    3    3    0    0  0.33456661024E+01  0.11512080578E+02 -0.88306259304E+01  0.14889641886E+02  0.51100000000E-03 0. -1.
        -11    1    3    3    0    0  0.71224234496E+01  0.10909993832E+02  0.20795338729E+01  0.13193988881E+02  0.51100000000E-03 0.  1.
         12    1    3    3    0    0  0.15809847688E+02  0.11686855626E+02  0.13037113420E+01  0.19703642851E+02  0.00000000000E+00 0. -1.
</event>
<event>
 7    1  0.1246400E-009  0.4778727E+02  0.7816164E-02  0.1312668E+00
        -11   -1    0    0    0    0  0.00000000000E+00  0.00000000000E+00  0.45593999997E+02  0.45594000000E+02  0.51100000000E-03 0.  1.
         11   -1    0    0    0    0 -0.00000000000E+00 -0.00000000000E+00 -0.45593999997E+02  0.45594000000E+02  0.51100000000E-03 0. -1.
    9900012    2    1    2    0    0  0.52862573912E+01  0.24985923105E+00  0.43076864310E+02  0.47787272061E+02  0.20000004634E+02 0.  0.
         12    1    1    2    0    0 -0.52862573912E+01 -0.24985923105E+00 -0.43076864310E+02  0.43400727939E+02  0.00000000000E+00 0. -1.
         11    1    3    3    0    0  0.34774398486E+01 -0.56963112872E+01  0.54125507528E+01  0.85928025751E+01  0.51100000000E-03 0. -1.
        -11    1    3    3    0    0  0.19204421372E+01  0.50915774429E+01  0.90002372913E+01  0.10517439347E+02  0.51100000000E-03 0.  1.
        -12    1    3    3    0    0 -0.11162459460E+00  0.85459307542E+00  0.28664076266E+02  0.28677030139E+02  0.00000000000E+00 0.  1.
</event>
<event>
 7    1  0.1246400E-009  0.4778727E+02  0.7816164E-02  0.1312668E+00
        -11   -1    0    0    0    0  0.00000000000E+00  0.00000000000E+00  0.45593999997E+02  0.45594000000E+02  0.51100000000E-03 0. -1.
         11   -1    0    0    0    0 -0.00000000000E+00 -0.00000000000E+00 -0.45593999997E+02  0.45594000000E+02  0.51100000000E-03 0.  1.
    9900012    2    1    2    0    0  0.12330031709E+02 -0.32299583410E+02 -0.26236056769E+02  0.47787269071E+02  0.19999991002E+02 0.  0.
         12    1    1    2    0    0 -0.12330031709E+02  0.32299583410E+02  0.26236056769E+02  0.43400730929E+02  0.00000000000E+00 0. -1.
         11    1    3    3    0    0  0.58676239779E+01 -0.96812950430E+01 -0.35089695918E+01  0.11851976743E+02  0.51100000000E-03 0. -1.
        -11    1    3    3    0    0 -0.41587650123E+01 -0.62219225392E+01 -0.10480469763E+02  0.12878194486E+02  0.51100000000E-03 0.  1.
        -12    1    3    3    0    0  0.10621172744E+02 -0.16396365827E+02 -0.12246617415E+02  0.23057097842E+02  0.00000000000E+00 0.  1.
</event>
<event>
 7    1  0.1246400E-009  0.4778727E+02  0.7816164E-02  0.1312668E+00
        -11   -1    0    0    0    0  0.00000000000E+00  0.00000000000E+00  0.45593999997E+02  0.45594000000E+02  0.51100000000E-03 0. -1.
         11   -1    0    0    0    0 -0.00000000000E+00 -0.00000000000E+00 -0.45593999997E+02  0.45594000000E+02  0.51100000000E-03 0.  1.
    9900012    2    1    2    0    0  0.28587465429E+02 -0.38749511086E+01 -0.32424753787E+02  0.47787273233E+02  0.20000009976E+02 0.  0.
         12    1    1    2    0    0 -0.28587465429E+02  0.38749511086E+01  0.32424753787E+02  0.43400726767E+02  0.00000000000E+00 0. -1.
         11    1    3    3    0    0  0.55681077442E+01  0.51648930437E+01 -0.10497181135E+01  0.76669323971E+01  0.51100000000E-03 0. -1.
        -11    1    3    3    0    0  0.55055766255E+01 -0.39121149782E+01 -0.82504844070E+01  0.10662387668E+02  0.51100000000E-03 0.  1.
         12    1    3    3    0    0  0.17513781060E+02 -0.51277291741E+01 -0.23124551267E+02  0.29457953167E+02  0.00000000000E+00 0. -1.
</event>
<event>
 7    1  0.1246400E-009  0.4778729E+02  0.7816164E-02  0.1312668E+00
        -11   -1    0    0    0    0  0.00000000000E+00  0.00000000000E+00  0.45593999997E+02  0.45594000000E+02  0.51100000000E-03 0.  1.
         11   -1    0    0    0    0 -0.00000000000E+00 -0.00000000000E+00 -0.45593999997E+02  0.45594000000E+02  0.51100000000E-03 0. -1.
    9900012    2    1    2    0    0  0.19806756627E+02  0.12643606248E+02  0.36489083015E+02  0.47787290717E+02  0.20000089693E+02 0.  0.
         12    1    1    2    0    0 -0.19806756627E+02 -0.12643606248E+02 -0.36489083015E+02  0.43400709283E+02  0.00000000000E+00 0. -1.
         11    1    3    3    0    0 -0.29883154285E+01 -0.10374831679E+00  0.28391414417E+01  0.41232896091E+01  0.51100000000E-03 0. -1.
        -11    1    3    3    0    0  0.99344574519E+01  0.83807763433E+01  0.10029139774E+02  0.16416896840E+02  0.51100000000E-03 0.  1.
        -12    1    3    3    0    0  0.12860614604E+02  0.43665782218E+01  0.23620801799E+02  0.27247104268E+02  0.00000000000E+00 0.  1.
</event>
<event>
 7    1  0.1246400E-009  0.4778726E+02  0.7816164E-02  0.1312668E+00
        -11   -1    0    0    0    0  0.00000000000E+00  0.00000000000E+00  0.45593999997E+02  0.45594000000E+02  0.51100000000E-03 0. -1.
         11   -1    0    0    0    0 -0.00000000000E+00 -0.00000000000E+00 -0.45593999997E+02  0.45594000000E+02  0.51100000000E-03 0.  1.
    9900012    2    1    2    0    0  0.41658198626E+02 -0.10101432334E+02 -0.67955711508E+01  0.47787259969E+02  0.19999949504E+02 0.  0.
         12    1    1    2    0    0 -0.41658198626E+02  0.10101432334E+02  0.67955711508E+01  0.43400740031E+02  0.00000000000E+00 0. -1.
         11    1    3    3    0    0  0.73294066811E+01 -0.22330206927E+01 -0.57458843768E+01  0.95771483879E+01  0.51100000000E-03 0. -1.
        -11    1    3    3    0    0  0.12004595669E+02 -0.67655477811E+01 -0.64513862551E+01  0.15215233775E+02  0.51100000000E-03 0.  1.
         12    1    3    3    0    0  0.22324196276E+02 -0.11028638598E+01  0.54016994811E+01  0.22994877807E+02  0.00000000000E+00 0. -1.
</event>
<event>
 7    1  0.1246400E-009  0.4778727E+02  0.7816164E-02  0.1312668E+00
        -11   -1    0    0    0    0  0.00000000000E+00  0.00000000000E+00  0.45593999997E+02  0.45594000000E+02  0.51100000000E-03 0.  1.
         11   -1    0    0    0    0 -0.00000000000E+00 -0.00000000000E+00 -0.45593999997E+02  0.45594000000E+02  0.51100000000E-03 0. -1.
    9900012    2    1    2    0    0 -0.11722243507E+02  0.20572544482E+02  0.36372829330E+02  0.47787270826E+02  0.19999999005E+02 0.  0.
         12    1    1    2    0    0  0.11722243507E+02 -0.20572544482E+02 -0.36372829330E+02  0.43400729174E+02  0.00000000000E+00 0. -1.
         11    1    3    3    0    0 -0.75504525970E+01  0.10163870274E+02  0.20589704895E+02  0.24171254442E+02  0.51100000000E-03 0.  1.
        -11    1    3    3    0    0  0.11949428836E+01  0.98701798692E+01  0.15238292341E+02  0.18194886449E+02  0.51100000000E-03 0. -1.
        -12    1    3    3    0    0 -0.53667337939E+01  0.53849433889E+00  0.54483209407E+00  0.54211299356E+01  0.00000000000E+00 0.  1.
</event>
<event>
 7    1  0.1246400E-009  0.4778727E+02  0.7816164E-02  0.1312668E+00
        -11   -1    0    0    0    0  0.00000000000E+00  0.00000000000E+00  0.45593999997E+02  0.45594000000E+02  0.51100000000E-03 0.  1.
         11   -1    0    0    0    0 -0.00000000000E+00 -0.00000000000E+00 -0.45593999997E+02  0.45594000000E+02  0.51100000000E-03 0. -1.
    9900012    2    1    2    0    0 -0.91441149339E+01 -0.22434560857E+02  0.36009704487E+02  0.47787272172E+02  0.20000005140E+02 0.  0.
         12    1    1    2    0    0  0.91441149339E+01  0.22434560857E+02 -0.36009704487E+02  0.43400727828E+02  0.00000000000E+00 0. -1.
         11    1    3    3    0    0 -0.28552391387E+00  0.80183265594E+00  0.42460024790E+00  0.95118092136E+00  0.51100000000E-03 0. -1.
        -11    1    3    3    0    0  0.22485537747E+01 -0.16797910663E+02  0.15315287626E+02  0.22842588121E+02  0.51100000000E-03 0.  1.
         12    1    3    3    0    0 -0.11107144795E+02 -0.64384828499E+01  0.20269816613E+02  0.23993503129E+02  0.00000000000E+00 0. -1.
</event>
<event>
 7    1  0.1246400E-009  0.4778728E+02  0.7816164E-02  0.1312668E+00
        -11   -1    0    0    0    0  0.00000000000E+00  0.00000000000E+00  0.45593999997E+02  0.45594000000E+02  0.51100000000E-03 0. -1.
         11   -1    0    0    0    0 -0.00000000000E+00 -0.00000000000E+00 -0.45593999997E+02  0.45594000000E+02  0.51100000000E-03 0.  1.
    9900012    2    1    2    0    0  0.14790102598E+02 -0.85827148629E+01 -0.39890006271E+02  0.47787277315E+02  0.20000028591E+02 0.  0.
         12    1    1    2    0    0 -0.14790102598E+02  0.85827148629E+01  0.39890006271E+02  0.43400722685E+02  0.00000000000E+00 0. -1.
         11    1    3    3    0    0  0.80677068882E+01 -0.54687884833E+01 -0.76785352704E+01  0.12407878387E+02  0.51100000000E-03 0. -1.
        -11    1    3    3    0    0 -0.29726280728E+01  0.14156187007E+01 -0.12768502940E+02  0.13186173120E+02  0.51100000000E-03 0.  1.
        -12    1    3    3    0    0  0.96950237821E+01 -0.45295450803E+01 -0.19442968061E+02  0.22193225808E+02  0.00000000000E+00 0.  1.
</event>
<event>
 7    1  0.1246400E-009  0.4778727E+02  0.7816164E-02  0.1312668E+00
        -11   -1    0    0    0    0  0.00000000000E+00  0.00000000000E+00  0.45593999997E+02  0.45594000000E+02  0.51100000000E-03 0. -1.
         11   -1    0    0    0    0 -0.00000000000E+00 -0.00000000000E+00 -0.45593999997E+02  0.45594000000E+02  0.51100000000E-03 0.  1.
    9900012    2    1    2    0    0 -0.31339642019E+02  0.14427364267E+02  0.26330615035E+02  0.47787270862E+02  0.19999999170E+02 0.  0.
         12    1    1    2    0    0  0.31339642019E+02 -0.14427364267E+02 -0.26330615035E+02  0.43400729138E+02  0.00000000000E+00 0. -1.
         11    1    3    3    0    0 -0.46371515190E+00  0.26634095732E+01  0.31351636053E+01  0.41398107916E+01  0.51100000000E-03 0. -1.
        -11    1    3    3    0    0 -0.28552166279E+02  0.49484596654E+01  0.14643159280E+02  0.32467453954E+02  0.51100000000E-03 0.  1.
        -12    1    3    3    0    0 -0.23237605873E+01  0.68154950286E+01  0.85522921502E+01  0.11180006117E+02  0.00000000000E+00 0.  1.
</event>
<event>
 7    1  0.1246400E-009  0.4778727E+02  0.7816164E-02  0.1312668E+00
        -11   -1    0    0    0    0  0.00000000000E+00  0.00000000000E+00  0.45593999997E+02  0.45594000000E+02  0.51100000000E-03 0.  1.
         11   -1    0    0    0    0 -0.00000000000E+00 -0.00000000000E+00 -0.45593999997E+02  0.45594000000E+02  0.51100000000E-03 0. -1.
    9900012    2    1    2    0    0 -0.12921504179E+02  0.31343163172E+02  0.27097313154E+02  0.47787268117E+02  0.19999986651E+02 0.  0.
         12    1    1    2    0    0  0.12921504179E+02 -0.31343163172E+02 -0.27097313154E+02  0.43400731883E+02  0.00000000000E+00 0. -1.
         11    1    3    3    0    0 -0.52161244041E+01  0.14328888298E+02  0.10295550710E+02  0.18399004276E+02  0.51100000000E-03 0. -1.
        -11    1    3    3    0    0 -0.62832709957E+01  0.14374738990E+02  0.39311252392E+01  0.16173013367E+02  0.51100000000E-03 0.  1.
        -12    1    3    3    0    0 -0.14221087789E+01  0.26395358838E+01  0.12870637204E+02  0.13215250474E+02  0.00000000000E+00 0.  1.
</event>
<event>
 7    1  0.1246400E-009  0.4778727E+02  0.7816164E-02  0.1312668E+00
        -11   -1    0    0    0    0  0.00000000000E+00  0.00000000000E+00  0.45593999997E+02  0.45594000000E+02  0.51100000000E-03 0.  1.
         11   -1    0    0    0    0 -0.00000000000E+00 -0.00000000000E+00 -0.45593999997E+02  0.45594000000E+02  0.51100000000E-03 0. -1.
    9900012    2    1    2    0    0  0.18392057906E+02  0.37170461659E+02 -0.12795026763E+02  0.47787265861E+02  0.19999976367E+02 0.  0.
         12    1    1    2    0    0 -0.18392057906E+02 -0.37170461659E+02  0.12795026763E+02  0.43400734139E+02  0.00000000000E+00 0. -1.
         11    1    3    3    0    0  0.61816382706E+01  0.38256952149E+01 -0.34595417974E+01  0.80509021417E+01  0.51100000000E-03 0. -1.
        -11    1    3    3    0    0  0.10186068643E+02  0.32326662674E+02 -0.42373576811E+01  0.34157346419E+02  0.51100000000E-03 0.  1.
        -12    1    3    3    0    0  0.20243509925E+01  0.10181037698E+01 -0.50981272845E+01  0.55790173002E+01  0.00000000000E+00 0.  1.
</event>
<event>
 7    1  0.1246400E-009  0.4778726E+02  0.7816164E-02  0.1312668E+00
        -11   -1    0    0    0    0  0.00000000000E+00  0.00000000000E+00  0.45593999997E+02  0.45594000000E+02  0.51100000000E-03 0.  1.
         11   -1    0    0    0    0 -0.00000000000E+00 -0.00000000000E+00 -0.45593999997E+02  0.45594000000E+02  0.51100000000E-03 0. -1.
    9900012    2    1    2    0    0 -0.41564005350E+02 -0.95063415066E+01 -0.81047388299E+01  0.47787264279E+02  0.19999969155E+02 0.  0.
         12    1    1    2    0    0  0.41564005350E+02  0.95063415066E+01  0.81047388299E+01  0.43400735721E+02  0.00000000000E+00 0. -1.
         11    1    3    3    0    0 -0.12731683710E+02  0.13225020589E+01 -0.49933247741E+01  0.13739653357E+02  0.51100000000E-03 0. -1.
        -11    1    3    3    0    0 -0.23979454167E+02 -0.67625411575E+01  0.31860998595E+01  0.25117671422E+02  0.51100000000E-03 0.  1.
         12    1    3    3    0    0 -0.48528674724E+01 -0.40663024080E+01 -0.62975139153E+01  0.89299395010E+01  0.00000000000E+00 0. -1.
</event>
<event>
 7    1  0.1246400E-009  0.4778727E+02  0.7816164E-02  0.1312668E+00
        -11   -1    0    0    0    0  0.00000000000E+00  0.00000000000E+00  0.45593999997E+02  0.45594000000E+02  0.51100000000E-03 0.  1.
         11   -1    0    0    0    0 -0.00000000000E+00 -0.00000000000E+00 -0.45593999997E+02  0.45594000000E+02  0.51100000000E-03 0. -1.
    9900012    2    1    2    0    0 -0.60871475910E+01  0.30217164659E+02  0.30553115672E+02  0.47787270939E+02  0.19999999518E+02 0.  0.
         12    1    1    2    0    0  0.60871475910E+01 -0.30217164659E+02 -0.30553115672E+02  0.43400729061E+02  0.00000000000E+00 0. -1.
         11    1    3    3    0    0 -0.83423242566E+01  0.18137496433E+02  0.12831899653E+02  0.23732273381E+02  0.51100000000E-03 0. -1.
        -11    1    3    3    0    0  0.36485108092E+01  0.99072215845E+01  0.18550253441E+02  0.21344239824E+02  0.51100000000E-03 0.  1.
         12    1    3    3    0    0 -0.13933341436E+01  0.21724466411E+01 -0.82903742259E+00  0.27107577339E+01  0.00000000000E+00 0. -1.
</event>
<event>
 7    1  0.1246400E-009  0.4778727E+02  0.7816164E-02  0.1312668E+00
        -11   -1    0    0    0    0  0.00000000000E+00  0.00000000000E+00  0.45593999997E+02  0.45594000000E+02  0.51100000000E-03 0.  1.
         11   -1    0    0    0    0 -0.00000000000E+00 -0.00000000000E+00 -0.45593999997E+02  0.45594000000E+02  0.51100000000E-03 0. -1.
    9900012    2    1    2    0    0  0.33091511208E+02 -0.34974345852E+01  0.27862936270E+02  0.47787269819E+02  0.19999994412E+02 0.  0.
         12    1    1    2    0    0 -0.33091511208E+02  0.34974345852E+01 -0.27862936270E+02  0.43400730181E+02  0.00000000000E+00 0. -1.
         11    1    3    3    0    0  0.10658770718E+01  0.71643289572E+00 -0.12629171441E+01  0.18012023763E+01  0.51100000000E-03 0. -1.
        -11    1    3    3    0    0  0.23161420615E+02 -0.86979277112E+01  0.25170027628E+02  0.35293563753E+02  0.51100000000E-03 0.  1.
         12    1    3    3    0    0  0.88642135209E+01  0.44840602303E+01  0.39558257862E+01  0.10692503689E+02  0.00000000000E+00 0. -1.
</event>
<event>
 7    1  0.1246400E-009  0.4778727E+02  0.7816164E-02  0.1312668E+00
        -11   -1    0    0    0    0  0.00000000000E+00  0.00000000000E+00  0.45593999997E+02  0.45594000000E+02  0.51100000000E-03 0.  1.
         11   -1    0    0    0    0 -0.00000000000E+00 -0.00000000000E+00 -0.45593999997E+02  0.45594000000E+02  0.51100000000E-03 0. -1.
    9900012    2    1    2    0    0  0.19695405641E+02  0.19319738724E+02  0.33503164906E+02  0.47787269978E+02  0.19999995136E+02 0.  0.
         12    1    1    2    0    0 -0.19695405641E+02 -0.19319738724E+02 -0.33503164906E+02  0.43400730022E+02  0.00000000000E+00 0. -1.
         11    1    3    3    0    0  0.20269834578E+01  0.50579105004E+01  0.20190328613E+02  0.20912687305E+02  0.51100000000E-03 0. -1.
        -11    1    3    3    0    0  0.97779472812E+01  0.10143062951E+02  0.10392492760E+02  0.17506966759E+02  0.51100000000E-03 0.  1.
         12    1    3    3    0    0  0.78904749019E+01  0.41187652728E+01  0.29203435333E+01  0.93676159135E+01  0.00000000000E+00 0. -1.
</event>
<event>
 7    1  0.1246400E-009  0.4778727E+02  0.7816164E-02  0.1312668E+00
        -11   -1    0    0    0    0  0.00000000000E+00  0.00000000000E+00  0.45593999997E+02  0.45594000000E+02  0.51100000000E-03 0.  1.
         11   -1    0    0    0    0 -0.00000000000E+00 -0.00000000000E+00 -0.45593999997E+02  0.45594000000E+02  0.51100000000E-03 0. -1.
    9900012    2    1    2    0    0  0.30682516320E+02 -0.25362736761E+02  0.17289815332E+02  0.47787274914E+02  0.20000017644E+02 0.  0.
         12    1    1    2    0    0 -0.30682516320E+02  0.25362736761E+02 -0.17289815332E+02  0.43400725086E+02  0.00000000000E+00 0. -1.
         11    1    3    3    0    0  0.17208861847E+01  0.25562968258E+00 -0.23012887629E+01  0.28849135215E+01  0.51100000000E-03 0. -1.
        -11    1    3    3    0    0  0.24980174336E+01  0.49168202292E+00  0.36558145574E+01  0.44549772895E+01  0.51100000000E-03 0.  1.
        -12    1    3    3    0    0  0.26463612702E+02 -0.26110048467E+02  0.15935289537E+02  0.40447384103E+02  0.00000000000E+00 0.  1.
</event>
<event>
 7    1  0.1246400E-009  0.4778727E+02  0.7816164E-02  0.1312668E+00
        -11   -1    0    0    0    0  0.00000000000E+00  0.00000000000E+00  0.45593999997E+02  0.45594000000E+02  0.51100000000E-03 0.  1.
         11   -1    0    0    0    0 -0.00000000000E+00 -0.00000000000E+00 -0.45593999997E+02  0.45594000000E+02  0.51100000000E-03 0. -1.
    9900012    2    1    2    0    0  0.30827369545E+02 -0.29200160940E+02  0.89803934428E+01  0.47787267537E+02  0.19999984006E+02 0.  0.
         12    1    1    2    0    0 -0.30827369545E+02  0.29200160940E+02 -0.89803934428E+01  0.43400732463E+02  0.00000000000E+00 0. -1.
         11    1    3    3    0    0  0.29326318372E+01 -0.91817599160E+01  0.51680051284E+01  0.10936787550E+02  0.51100000000E-03 0. -1.
        -11    1    3    3    0    0  0.19944094392E+02 -0.20382016506E+02  0.14718208887E+01  0.28554504985E+02  0.51100000000E-03 0.  1.
         12    1    3    3    0    0  0.79506433157E+01  0.36361548155E+00  0.23405674257E+01  0.82959750016E+01  0.00000000000E+00 0. -1.
</event>
<event>
 7    1  0.1246400E-009  0.4778726E+02  0.7816164E-02  0.1312668E+00
        -11   -1    0    0    0    0  0.00000000000E+00  0.00000000000E+00  0.45593999997E+02  0.45594000000E+02  0.51100000000E-03 0. -1.
         11   -1    0    0    0    0 -0.00000000000E+00 -0.00000000000E+00 -0.45593999997E+02  0.45594000000E+02  0.51100000000E-03 0.  1.
    9900012    2    1    2    0    0 -0.43279795789E+01 -0.10429846606E+02 -0.41905978343E+02  0.47787261200E+02  0.19999955115E+02 0.  0.
         12    1    1    2    0    0  0.43279795789E+01  0.10429846606E+02  0.41905978343E+02  0.43400738800E+02  0.00000000000E+00 0. -1.
         11    1    3    3    0    0  0.10287029134E+01 -0.86341146102E+01 -0.84519133475E+01  0.12126046523E+02  0.51100000000E-03 0. -1.
        -11    1    3    3    0    0  0.18250616165E+01  0.29394286553E+01 -0.13410956211E+02  0.13850084385E+02  0.51100000000E-03 0.  1.
        -12    1    3    3    0    0 -0.71817441088E+01 -0.47351606511E+01 -0.20043108785E+02  0.21811130292E+02  0.00000000000E+00 0.  1.
</event>
<event>
 7    1  0.1246400E-009  0.4778728E+02  0.7816164E-02  0.1312668E+00
        -11   -1    0    0    0    0  0.00000000000E+00  0.00000000000E+00  0.45593999997E+02  0.45594000000E+02  0.51100000000E-03 0.  1.
         11   -1    0    0    0    0 -0.00000000000E+00 -0.00000000000E+00 -0.45593999997E+02  0.45594000000E+02  0.51100000000E-03 0. -1.
    9900012    2    1    2    0    0 -0.17094970154E+02 -0.10834310572E+02  0.38392740783E+02  0.47787276101E+02  0.20000023055E+02 0.  0.
         12    1    1    2    0    0  0.17094970154E+02  0.10834310572E+02 -0.38392740783E+02  0.43400723899E+02  0.00000000000E+00 0. -1.
         11    1    3    3    0    0 -0.19244827396E+02 -0.42775500765E+01  0.21777074152E+02  0.29375189787E+02  0.51100000000E-03 0.  1.
        -11    1    3    3    0    0  0.89162179885E-01 -0.16179901070E+01  0.87487597916E+01  0.88975637133E+01  0.51100000000E-03 0. -1.
        -12    1    3    3    0    0  0.20606950623E+01 -0.49387703890E+01  0.78669068391E+01  0.95145226003E+01  0.00000000000E+00 0.  1.
</event>
<event>
 7    1  0.1246400E-009  0.4778727E+02  0.7816164E-02  0.1312668E+00
        -11   -1    0    0    0    0  0.00000000000E+00  0.00000000000E+00  0.45593999997E+02  0.45594000000E+02  0.51100000000E-03 0.  1.
         11   -1    0    0    0    0 -0.00000000000E+00 -0.00000000000E+00 -0.45593999997E+02  0.45594000000E+02  0.51100000000E-03 0. -1.
    9900012    2    1    2    0    0  0.28298445071E+02  0.44593235417E+01  0.32602694820E+02  0.47787271095E+02  0.20000000232E+02 0.  0.
         12    1    1    2    0    0 -0.28298445071E+02 -0.44593235417E+01 -0.32602694820E+02  0.43400728905E+02  0.00000000000E+00 0. -1.
         11    1    3    3    0    0  0.15628973107E+01 -0.30369651811E+01 -0.11663918428E+01  0.36091932210E+01  0.51100000000E-03 0. -1.
        -11    1    3    3    0    0  0.13750212816E+02  0.90300936964E+00  0.14227503755E+02  0.19806706990E+02  0.51100000000E-03 0.  1.
         12    1    3    3    0    0  0.12985334944E+02  0.65932793532E+01  0.19541582908E+02  0.24371370884E+02  0.00000000000E+00 0. -1.
</event>
<event>
 7    1  0.1246400E-009  0.4778727E+02  0.7816164E-02  0.1312668E+00
        -11   -1    0    0    0    0  0.00000000000E+00  0.00000000000E+00  0.45593999997E+02  0.45594000000E+02  0.51100000000E-03 0. -1.
         11   -1    0    0    0    0 -0.00000000000E+00 -0.00000000000E+00 -0.45593999997E+02  0.45594000000E+02  0.51100000000E-03 0.  1.
    9900012    2    1    2    0    0 -0.32547595940E+02 -0.25016555610E+02 -0.14087201443E+02  0.47787270737E+02  0.19999998599E+02 0.  0.
         12    1    1    2    0    0  0.32547595940E+02  0.25016555610E+02  0.14087201443E+02  0.43400729263E+02  0.00000000000E+00 0. -1.
         11    1    3    3    0    0 -0.14409638601E+02 -0.49920283650E+01 -0.38466368288E+00  0.15254704134E+02  0.51100000000E-03 0. -1.
        -11    1    3    3    0    0 -0.19817849910E+02 -0.18483792518E+02 -0.11775025876E+02  0.29547402518E+02  0.51100000000E-03 0.  1.
         12    1    3    3    0    0  0.16798925716E+01 -0.15407347267E+01 -0.19275118844E+01  0.29851640850E+01  0.00000000000E+00 0. -1.
</event>
<event>
 7    1  0.1246400E-009  0.4778727E+02  0.7816164E-02  0.1312668E+00
        -11   -1    0    0    0    0  0.00000000000E+00  0.00000000000E+00  0.45593999997E+02  0.45594000000E+02  0.51100000000E-03 0. -1.
         11   -1    0    0    0    0 -0.00000000000E+00 -0.00000000000E+00 -0.45593999997E+02  0.45594000000E+02  0.51100000000E-03 0.  1.
    9900012    2    1    2    0    0 -0.20125504898E+02 -0.34425433912E+02 -0.17131164477E+02  0.47787271391E+02  0.20000001580E+02 0.  0.
         12    1    1    2    0    0  0.20125504898E+02  0.34425433912E+02  0.17131164477E+02  0.43400728609E+02  0.00000000000E+00 0. -1.
         11    1    3    3    0    0  0.19736802694E+01 -0.49195417487E+01 -0.26754186026E+01  0.59376064019E+01  0.51100000000E-03 0. -1.
        -11    1    3    3    0    0 -0.23327528811E+02 -0.29797500539E+02 -0.14636075409E+02  0.40574368047E+02  0.51100000000E-03 0.  1.
         12    1    3    3    0    0  0.12283436429E+01  0.29160837534E+00  0.18032953448E+00  0.12752969421E+01  0.00000000000E+00 0. -1.
</event>
<event>
 7    1  0.1246400E-009  0.4778727E+02  0.7816164E-02  0.1312668E+00
        -11   -1    0    0    0    0  0.00000000000E+00  0.00000000000E+00  0.45593999997E+02  0.45594000000E+02  0.51100000000E-03 0.  1.
         11   -1    0    0    0    0 -0.00000000000E+00 -0.00000000000E+00 -0.45593999997E+02  0.45594000000E+02  0.51100000000E-03 0. -1.
    9900012    2    1    2    0    0  0.33960684076E+02 -0.13656235172E+02  0.23319580747E+02  0.47787266502E+02  0.19999979287E+02 0.  0.
         12    1    1    2    0    0 -0.33960684076E+02  0.13656235172E+02 -0.23319580747E+02  0.43400733498E+02  0.00000000000E+00 0. -1.
         11    1    3    3    0    0  0.12569686380E+02  0.15319238956E+01  0.15639517500E+01  0.12758908724E+02  0.51100000000E-03 0. -1.
        -11    1    3    3    0    0  0.47657729048E+01 -0.69581994751E+01  0.99331393903E+01  0.13030594373E+02  0.51100000000E-03 0.  1.
        -12    1    3    3    0    0  0.16625224792E+02 -0.82299595922E+01  0.11822489606E+02  0.21997763404E+02  0.00000000000E+00 0.  1.
</event>
<event>
 7    1  0.1246400E-009  0.4778726E+02  0.7816164E-02  0.1312668E+00
        -11   -1    0    0    0    0  0.00000000000E+00  0.00000000000E+00  0.45593999997E+02  0.45594000000E+02  0.51100000000E-03 0.  1.
         11   -1    0    0    0    0 -0.00000000000E+00 -0.00000000000E+00 -0.45593999997E+02  0.45594000000E+02  0.51100000000E-03 0. -1.
    9900012    2    1    2    0    0 -0.40569634227E+02  0.14398557254E+02 -0.55146010030E+01  0.47787256959E+02  0.19999935779E+02 0.  0.
         12    1    1    2    0    0  0.40569634227E+02 -0.14398557254E+02  0.55146010030E+01  0.43400743041E+02  0.00000000000E+00 0. -1.
         11    1    3    3    0    0 -0.77444083390E+01 -0.13712220669E+01  0.70230935566E+00  0.78961604068E+01  0.51100000000E-03 0. -1.
        -11    1    3    3    0    0 -0.24082167439E+02  0.15138675492E+02  0.11093628016E+01  0.28466839837E+02  0.51100000000E-03 0.  1.
         12    1    3    3    0    0 -0.87430584487E+01  0.63110382856E+00 -0.73262731603E+01  0.11424256715E+02  0.00000000000E+00 0. -1.
</event>
<event>
 7    1  0.1246400E-009  0.4778727E+02  0.7816164E-02  0.1312668E+00
        -11   -1    0    0    0    0  0.00000000000E+00  0.00000000000E+00  0.45593999997E+02  0.45594000000E+02  0.51100000000E-03 0.  1.
         11   -1    0    0    0    0 -0.00000000000E+00 -0.00000000000E+00 -0.45593999997E+02  0.45594000000E+02  0.51100000000E-03 0. -1.
    9900012    2    1    2    0    0  0.12653835961E+02 -0.89636157229E+01  0.40535879870E+02  0.47787268115E+02  0.19999986643E+02 0.  0.
         12    1    1    2    0    0 -0.12653835961E+02  0.89636157229E+01 -0.40535879870E+02  0.43400731885E+02  0.00000000000E+00 0. -1.
         11    1    3    3    0    0 -0.24024163849E+01 -0.15890996206E+01  0.45148958506E+01  0.53554763461E+01  0.51100000000E-03 0. -1.
        -11    1    3    3    0    0  0.10935030659E+02  0.22010647679E+00  0.93270261730E+01  0.14374169884E+02  0.51100000000E-03 0.  1.
         12    1    3    3    0    0  0.41212216865E+01 -0.75946225790E+01  0.26693957846E+02  0.28057621884E+02  0.00000000000E+00 0. -1.
</event>
<event>
 7    1  0.1246400E-009  0.4778727E+02  0.7816164E-02  0.1312668E+00
        -11   -1    0    0    0    0  0.00000000000E+00  0.00000000000E+00  0.45593999997E+02  0.45594000000E+02  0.51100000000E-03 0.  1.
         11   -1    0    0    0    0 -0.00000000000E+00 -0.00000000000E+00 -0.45593999997E+02  0.45594000000E+02  0.51100000000E-03 0. -1.
    9900012    2    1    2    0    0  0.14224667107E+02  0.29290251152E+02  0.28694308797E+02  0.47787270465E+02  0.19999997359E+02 0.  0.
         12    1    1    2    0    0 -0.14224667107E+02 -0.29290251152E+02 -0.28694308797E+02  0.43400729535E+02  0.00000000000E+00 0. -1.
         11    1    3    3    0    0  0.13086843578E+02  0.23261126630E+02  0.18022229932E+02  0.32204755222E+02  0.51100000000E-03 0. -1.
        -11    1    3    3    0    0 -0.20879538348E+01  0.72395707433E+01  0.53435655121E+01  0.92371331270E+01  0.51100000000E-03 0.  1.
        -12    1    3    3    0    0  0.32257773635E+01 -0.12104462211E+01  0.53285133526E+01  0.63453821163E+01  0.00000000000E+00 0.  1.
</event>
<event>
 7    1  0.1246400E-009  0.4778729E+02  0.7816164E-02  0.1312668E+00
        -11   -1    0    0    0    0  0.00000000000E+00  0.00000000000E+00  0.45593999997E+02  0.45594000000E+02  0.51100000000E-03 0. -1.
         11   -1    0    0    0    0 -0.00000000000E+00 -0.00000000000E+00 -0.45593999997E+02  0.45594000000E+02  0.51100000000E-03 0.  1.
    9900012    2    1    2    0    0 -0.10574940287E+02 -0.41623195651E+02 -0.62691489663E+01  0.47787285639E+02  0.20000066542E+02 0.  0.
         12    1    1    2    0    0  0.10574940287E+02  0.41623195651E+02  0.62691489663E+01  0.43400714361E+02  0.00000000000E+00 0. -1.
         11    1    3    3    0    0 -0.41492097876E+01 -0.41323792040E+01 -0.27306146092E+01  0.64613277391E+01  0.51100000000E-03 0.  1.
        -11    1    3    3    0    0 -0.12496133582E+01 -0.26023594366E+02  0.44384266613E+01  0.26428935445E+02  0.51100000000E-03 0. -1.
         12    1    3    3    0    0 -0.51761171416E+01 -0.11467222081E+02 -0.79769610185E+01  0.14897022455E+02  0.00000000000E+00 0. -1.
</event>
<event>
 7    1  0.1246400E-009  0.4778728E+02  0.7816164E-02  0.1312668E+00
        -11   -1    0    0    0    0  0.00000000000E+00  0.00000000000E+00  0.45593999997E+02  0.45594000000E+02  0.51100000000E-03 0.  1.
         11   -1    0    0    0    0 -0.00000000000E+00 -0.00000000000E+00 -0.45593999997E+02  0.45594000000E+02  0.51100000000E-03 0. -1.
    9900012    2    1    2    0    0  0.21403972513E+02 -0.37396417548E+02 -0.51962098851E+01  0.47787277865E+02  0.20000031096E+02 0.  0.
         12    1    1    2    0    0 -0.21403972513E+02  0.37396417548E+02  0.51962098851E+01  0.43400722135E+02  0.00000000000E+00 0. -1.
         11    1    3    3    0    0  0.66638318589E+00  0.10361998853E+01 -0.16423561734E+01  0.20530735043E+01  0.51100000000E-03 0. -1.
        -11    1    3    3    0    0  0.76306718009E+00 -0.12637010595E+02 -0.34005563404E+01  0.13108779195E+02  0.51100000000E-03 0.  1.
         12    1    3    3    0    0  0.19974522147E+02 -0.25795606838E+02 -0.15329737135E+00  0.32625425165E+02  0.00000000000E+00 0. -1.
</event>
<event>
 7    1  0.1246400E-009  0.4778727E+02  0.7816164E-02  0.1312668E+00
        -11   -1    0    0    0    0  0.00000000000E+00  0.00000000000E+00  0.45593999997E+02  0.45594000000E+02  0.51100000000E-03 0.  1.
         11   -1    0    0    0    0 -0.00000000000E+00 -0.00000000000E+00 -0.45593999997E+02  0.45594000000E+02  0.51100000000E-03 0. -1.
    9900012    2    1    2    0    0  0.14858204870E+02 -0.19293443677E+02  0.35925199375E+02  0.47787272230E+02  0.20000005405E+02 0.  0.
         12    1    1    2    0    0 -0.14858204870E+02  0.19293443677E+02 -0.35925199375E+02  0.43400727770E+02  0.00000000000E+00 0. -1.
         11    1    3    3    0    0  0.15177380588E+02 -0.17878094731E+02  0.25630050492E+02  0.34740158912E+02  0.51100000000E-03 0. -1.
        -11    1    3    3    0    0 -0.71077612434E+00 -0.86994657838E+00 -0.11351845925E+01  0.15970767259E+01  0.51100000000E-03 0.  1.
        -12    1    3    3    0    0  0.39160040673E+00 -0.54540236740E+00  0.11430333475E+02  0.11450036592E+02  0.00000000000E+00 0.  1.
</event>
<event>
 7    1  0.1246400E-009  0.4778727E+02  0.7816164E-02  0.1312668E+00
        -11   -1    0    0    0    0  0.00000000000E+00  0.00000000000E+00  0.45593999997E+02  0.45594000000E+02  0.51100000000E-03 0.  1.
         11   -1    0    0    0    0 -0.00000000000E+00 -0.00000000000E+00 -0.45593999997E+02  0.45594000000E+02  0.51100000000E-03 0. -1.
    9900012    2    1    2    0    0 -0.21942222514E+02 -0.26305929626E+02  0.26648829169E+02  0.47787272375E+02  0.20000006065E+02 0.  0.
         12    1    1    2    0    0  0.21942222514E+02  0.26305929626E+02 -0.26648829169E+02  0.43400727625E+02  0.00000000000E+00 0. -1.
         11    1    3    3    0    0  0.81228100875E+00 -0.28389415216E+01 -0.11443854787E+01  0.31668608724E+01  0.51100000000E-03 0. -1.
        -11    1    3    3    0    0 -0.17707831135E+02 -0.10949136384E+02  0.12765615599E+02  0.24421544033E+02  0.51100000000E-03 0.  1.
         12    1    3    3    0    0 -0.50466723878E+01 -0.12517851720E+02  0.15027599049E+02  0.20198867469E+02  0.00000000000E+00 0. -1.
</event>
<event>
 7    1  0.1246400E-009  0.4778727E+02  0.7816164E-02  0.1312668E+00
        -11   -1    0    0    0    0  0.00000000000E+00  0.00000000000E+00  0.45593999997E+02  0.45594000000E+02  0.51100000000E-03 0.  1.
         11   -1    0    0    0    0 -0.00000000000E+00 -0.00000000000E+00 -0.45593999997E+02  0.45594000000E+02  0.51100000000E-03 0. -1.
    9900012    2    1    2    0    0 -0.28502545024E+01  0.27679075396E+02  0.33307182508E+02  0.47787267609E+02  0.19999984334E+02 0.  0.
         12    1    1    2    0    0  0.28502545024E+01 -0.27679075396E+02 -0.33307182508E+02  0.43400732391E+02  0.00000000000E+00 0. -1.
         11    1    3    3    0    0 -0.88710153296E+01  0.86012250860E+01  0.73734562135E+01  0.14389018130E+02  0.51100000000E-03 0. -1.
        -11    1    3    3    0    0  0.28649266493E+01  0.16894386449E+02  0.20065111507E+02  0.26386299443E+02  0.51100000000E-03 0.  1.
         12    1    3    3    0    0  0.31558341779E+01  0.21834638610E+01  0.58686147866E+01  0.70119500357E+01  0.00000000000E+00 0. -1.
</event>
<event>
 7    1  0.1246400E-009  0.4778727E+02  0.7816164E-02  0.1312668E+00
        -11   -1    0    0    0    0  0.00000000000E+00  0.00000000000E+00  0.45593999997E+02  0.45594000000E+02  0.51100000000E-03 0.  1.
         11   -1    0    0    0    0 -0.00000000000E+00 -0.00000000000E+00 -0.45593999997E+02  0.45594000000E+02  0.51100000000E-03 0. -1.
    9900012    2    1    2    0    0 -0.19739085560E+01 -0.71568556711E+01  0.42761041823E+02  0.47787267335E+02  0.19999983088E+02 0.  0.
         12    1    1    2    0    0  0.19739085560E+01  0.71568556711E+01 -0.42761041823E+02  0.43400732665E+02  0.00000000000E+00 0. -1.
         11    1    3    3    0    0 -0.22007038013E+01 -0.38150680104E+01  0.20429162033E+02  0.20898528723E+02  0.51100000000E-03 0.  1.
        -11    1    3    3    0    0 -0.19612241424E+01  0.32631781988E+01  0.33993309979E+00  0.38223404960E+01  0.51100000000E-03 0. -1.
        -12    1    3    3    0    0  0.21880193878E+01 -0.66049658595E+01  0.21991946690E+02  0.23066398117E+02  0.00000000000E+00 0.  1.
</event>
<event>
 7    1  0.1246400E-009  0.4778727E+02  0.7816164E-02  0.1312668E+00
        -11   -1    0    0    0    0  0.00000000000E+00  0.00000000000E+00  0.45593999997E+02  0.45594000000E+02  0.51100000000E-03 0. -1.
         11   -1    0    0    0    0 -0.00000000000E+00 -0.00000000000E+00 -0.45593999997E+02  0.45594000000E+02  0.51100000000E-03 0.  1.
    9900012    2    1    2    0    0  0.24536405417E+02  0.35206428011E+02  0.64880945067E+01  0.47787272651E+02  0.20000007326E+02 0.  0.
         12    1    1    2    0    0 -0.24536405417E+02 -0.35206428011E+02 -0.64880945067E+01  0.43400727349E+02  0.00000000000E+00 0. -1.
         11    1    3    3    0    0  0.10422934903E+02  0.13622838517E+02  0.98487000516E+01  0.19779185884E+02  0.51100000000E-03 0. -1.
        -11    1    3    3    0    0  0.22728396908E+01  0.12636436992E+02 -0.23358420323E+00  0.12841335677E+02  0.51100000000E-03 0.  1.
        -12    1    3    3    0    0  0.11840630823E+02  0.89471525014E+01 -0.31270213416E+01  0.15166751091E+02  0.00000000000E+00 0.  1.
</event>
<event>
 7    1  0.1246400E-009  0.4778727E+02  0.7816164E-02  0.1312668E+00
        -11   -1    0    0    0    0  0.00000000000E+00  0.00000000000E+00  0.45593999997E+02  0.45594000000E+02  0.51100000000E-03 0.  1.
         11   -1    0    0    0    0 -0.00000000000E+00 -0.00000000000E+00 -0.45593999997E+02  0.45594000000E+02  0.51100000000E-03 0. -1.
    9900012    2    1    2    0    0  0.27873214944E+02  0.45062420283E+01  0.32960595521E+02  0.47787272061E+02  0.20000004634E+02 0.  0.
         12    1    1    2    0    0 -0.27873214944E+02 -0.45062420283E+01 -0.32960595521E+02  0.43400727939E+02  0.00000000000E+00 0. -1.
         11    1    3    3    0    0  0.10512478200E+02 -0.64956105276E+01  0.16183322786E+02  0.20361853813E+02  0.51100000000E-03 0. -1.
        -11    1    3    3    0    0  0.14131622404E+02  0.72036795336E+01  0.15714600266E+02  0.22328108124E+02  0.51100000000E-03 0.  1.
        -12    1    3    3    0    0  0.32291143398E+01  0.37981730223E+01  0.10626724691E+01  0.50973101243E+01  0.00000000000E+00 0.  1.
</event>
<event>
 7    1  0.1246400E-009  0.4778727E+02  0.7816164E-02  0.1312668E+00
        -11   -1    0    0    0    0  0.00000000000E+00  0.00000000000E+00  0.45593999997E+02  0.45594000000E+02  0.51100000000E-03 0.  1.
         11   -1    0    0    0    0 -0.00000000000E+00 -0.00000000000E+00 -0.45593999997E+02  0.45594000000E+02  0.51100000000E-03 0. -1.
    9900012    2    1    2    0    0  0.77368476979E+01 -0.36783919691E+02  0.21695799301E+02  0.47787271118E+02  0.20000000335E+02 0.  0.
         12    1    1    2    0    0 -0.77368476979E+01  0.36783919691E+02 -0.21695799301E+02  0.43400728882E+02  0.00000000000E+00 0. -1.
         11    1    3    3    0    0  0.46890538505E+01 -0.10850774001E+02  0.43703777055E+01  0.12602647499E+02  0.51100000000E-03 0. -1.
        -11    1    3    3    0    0  0.92250357303E+01 -0.13630019341E+02  0.65976942163E+01  0.17731561710E+02  0.51100000000E-03 0.  1.
        -12    1    3    3    0    0 -0.61772418830E+01 -0.12303126349E+02  0.10727727380E+02  0.17453061909E+02  0.00000000000E+00 0.  1.
</event>
<event>
 7    1  0.1246400E-009  0.4778727E+02  0.7816164E-02  0.1312668E+00
        -11   -1    0    0    0    0  0.00000000000E+00  0.00000000000E+00  0.45593999997E+02  0.45594000000E+02  0.51100000000E-03 0. -1.
         11   -1    0    0    0    0 -0.00000000000E+00 -0.00000000000E+00 -0.45593999997E+02  0.45594000000E+02  0.51100000000E-03 0.  1.
    9900012    2    1    2    0    0 -0.33003570273E+02  0.27136964106E+02 -0.76139864872E+01  0.47787271182E+02  0.20000000629E+02 0.  0.
         12    1    1    2    0    0  0.33003570273E+02 -0.27136964106E+02  0.76139864872E+01  0.43400728818E+02  0.00000000000E+00 0. -1.
         11    1    3    3    0    0 -0.10661292030E+01 -0.27391826290E+00  0.28257802759E+01  0.30326056653E+01  0.51100000000E-03 0. -1.
        -11    1    3    3    0    0 -0.10272571885E+02  0.15443060924E+02 -0.67126607267E+01  0.19724950650E+02  0.51100000000E-03 0.  1.
         12    1    3    3    0    0 -0.21664869185E+02  0.11967821445E+02 -0.37271060364E+01  0.25029714867E+02  0.00000000000E+00 0. -1.
</event>
<event>
 7    1  0.1574182E-009  0.4778732E+02  0.7816164E-02  0.1312668E+00
        -11   -1    0    0    0    0  0.00000000000E+00  0.00000000000E+00  0.45593999997E+02  0.45594000000E+02  0.51100000000E-03 0.  1.
         11   -1    0    0    0    0 -0.00000000000E+00 -0.00000000000E+00 -0.45593999997E+02  0.45594000000E+02  0.51100000000E-03 0. -1.
    9900012    2    1    2    0    0  0.15393311154E+02 -0.37540953385E+02  0.15405891154E+02  0.47787323835E+02  0.20000240694E+02 0.  0.
         12    1    1    2    0    0 -0.15393311154E+02  0.37540953385E+02 -0.15405891154E+02  0.43400676165E+02  0.00000000000E+00 0. -1.
         11    1    3    3    0    0  0.73079779712E+00 -0.36300826769E+01  0.78047589986E+01  0.86386242510E+01  0.51100000000E-03 0. -1.
        -11    1    3    3    0    0  0.97578881136E+01 -0.20548936029E+02  0.97578402367E+01  0.24752587717E+02  0.51100000000E-03 0.  1.
         12    1    3    3    0    0  0.49046252429E+01 -0.13361934679E+02 -0.21567080818E+01  0.14396111867E+02  0.00000000000E+00 0. -1.
</event>
<event>
 7    1  0.1246400E-009  0.4778727E+02  0.7816164E-02  0.1312668E+00
        -11   -1    0    0    0    0  0.00000000000E+00  0.00000000000E+00  0.45593999997E+02  0.45594000000E+02  0.51100000000E-03 0. -1.
         11   -1    0    0    0    0 -0.00000000000E+00 -0.00000000000E+00 -0.45593999997E+02  0.45594000000E+02  0.51100000000E-03 0.  1.
    9900012    2    1    2    0    0  0.36771601515E+02  0.14923800872E+02 -0.17571360516E+02  0.47787271655E+02  0.20000002784E+02 0.  0.
         12    1    1    2    0    0 -0.36771601515E+02 -0.14923800872E+02  0.17571360516E+02  0.43400728345E+02  0.00000000000E+00 0. -1.
         11    1    3    3    0    0  0.15374765991E+02  0.23575176131E+01 -0.29970158692E+01  0.15840562584E+02  0.51100000000E-03 0. -1.
        -11    1    3    3    0    0  0.12473998148E+02  0.71735960658E+01 -0.45702893612E+00  0.14396874175E+02  0.51100000000E-03 0.  1.
         12    1    3    3    0    0  0.89228373763E+01  0.53926871935E+01 -0.14117315711E+02  0.17549834896E+02  0.00000000000E+00 0. -1.
</event>
<event>
 7    1  0.1365940E-009  0.4778727E+02  0.7816164E-02  0.1312668E+00
        -11   -1    0    0    0    0  0.00000000000E+00  0.00000000000E+00  0.45593999997E+02  0.45594000000E+02  0.51100000000E-03 0.  1.
         11   -1    0    0    0    0 -0.00000000000E+00 -0.00000000000E+00 -0.45593999997E+02  0.45594000000E+02  0.51100000000E-03 0. -1.
    9900012    2    1    2    0    0  0.20044932164E+01 -0.37490361561E+02 -0.21773335250E+02  0.47787270387E+02  0.19999997004E+02 0.  0.
         12    1    1    2    0    0 -0.20044932164E+01  0.37490361561E+02  0.21773335250E+02  0.43400729613E+02  0.00000000000E+00 0. -1.
         11    1    3    3    0    0  0.52025765883E+01 -0.44766654970E+01 -0.56893542868E+01  0.89149363201E+01  0.51100000000E-03 0. -1.
        -11    1    3    3    0    0 -0.47517484251E+01 -0.14673852057E+02 -0.13079650390E+02  0.20223211957E+02  0.51100000000E-03 0.  1.
        -12    1    3    3    0    0  0.15536650532E+01 -0.18339844006E+02 -0.30043305737E+01  0.18649122110E+02  0.00000000000E+00 0.  1.
</event>
<event>
 7    1  0.1246400E-009  0.4778727E+02  0.7816164E-02  0.1312668E+00
        -11   -1    0    0    0    0  0.00000000000E+00  0.00000000000E+00  0.45593999997E+02  0.45594000000E+02  0.51100000000E-03 0. -1.
         11   -1    0    0    0    0 -0.00000000000E+00 -0.00000000000E+00 -0.45593999997E+02  0.45594000000E+02  0.51100000000E-03 0.  1.
    9900012    2    1    2    0    0 -0.33873515932E+02 -0.13275397676E+02 -0.23663735156E+02  0.47787266981E+02  0.19999981475E+02 0.  0.
         12    1    1    2    0    0  0.33873515932E+02  0.13275397676E+02  0.23663735156E+02  0.43400733019E+02  0.00000000000E+00 0. -1.
         11    1    3    3    0    0 -0.47592961844E+01 -0.14277114491E+01  0.10871367935E+01  0.50863667605E+01  0.51100000000E-03 0. -1.
        -11    1    3    3    0    0 -0.10974164549E+01 -0.55279753031E+01 -0.17380232478E+01  0.58977588030E+01  0.51100000000E-03 0.  1.
         12    1    3    3    0    0 -0.28016803292E+02 -0.63197109238E+01 -0.23012848701E+02  0.36803141418E+02  0.00000000000E+00 0. -1.
</event>
<event>
 7    1  0.1246400E-009  0.4778727E+02  0.7816164E-02  0.1312668E+00
        -11   -1    0    0    0    0  0.00000000000E+00  0.00000000000E+00  0.45593999997E+02  0.45594000000E+02  0.51100000000E-03 0.  1.
         11   -1    0    0    0    0 -0.00000000000E+00 -0.00000000000E+00 -0.45593999997E+02  0.45594000000E+02  0.51100000000E-03 0. -1.
    9900012    2    1    2    0    0 -0.19285532616E+02 -0.26444206093E+01  0.38790443394E+02  0.47787271581E+02  0.20000002445E+02 0.  0.
         12    1    1    2    0    0  0.19285532616E+02  0.26444206093E+01 -0.38790443394E+02  0.43400728419E+02  0.00000000000E+00 0. -1.
         11    1    3    3    0    0 -0.53931714913E+01  0.83697465947E+01  0.13588704799E+02  0.16846122852E+02  0.51100000000E-03 0. -1.
        -11    1    3    3    0    0 -0.71943194309E+01 -0.44407028782E+01  0.13670643806E+02  0.16073723167E+02  0.51100000000E-03 0.  1.
         12    1    3    3    0    0 -0.66980416933E+01 -0.65734643258E+01  0.11531094790E+02  0.14867425561E+02  0.00000000000E+00 0. -1.
</event>
<event>
 7    1  0.1246400E-009  0.4778727E+02  0.7816164E-02  0.1312668E+00
        -11   -1    0    0    0    0  0.00000000000E+00  0.00000000000E+00  0.45593999997E+02  0.45594000000E+02  0.51100000000E-03 0. -1.
         11   -1    0    0    0    0 -0.00000000000E+00 -0.00000000000E+00 -0.45593999997E+02  0.45594000000E+02  0.51100000000E-03 0.  1.
    9900012    2    1    2    0    0  0.35600061157E+02  0.10161385578E+02  0.22649618996E+02  0.47787270145E+02  0.19999995901E+02 0.  0.
         12    1    1    2    0    0 -0.35600061157E+02 -0.10161385578E+02 -0.22649618996E+02  0.43400729855E+02  0.00000000000E+00 0. -1.
         11    1    3    3    0    0  0.77605656007E+01 -0.20307724200E+01  0.28014743303E+01  0.84969802723E+01  0.51100000000E-03 0. -1.
        -11    1    3    3    0    0  0.85014773007E+01  0.11788053954E+02  0.76699429517E+01  0.16433543667E+02  0.51100000000E-03 0.  1.
        -12    1    3    3    0    0  0.19338018256E+02  0.40410404383E+00  0.12178201714E+02  0.22856746206E+02  0.00000000000E+00 0.  1.
</event>
<event>
 7    1  0.1246400E-009  0.4778727E+02  0.7816164E-02  0.1312668E+00
        -11   -1    0    0    0    0  0.00000000000E+00  0.00000000000E+00  0.45593999997E+02  0.45594000000E+02  0.51100000000E-03 0. -1.
         11   -1    0    0    0    0 -0.00000000000E+00 -0.00000000000E+00 -0.45593999997E+02  0.45594000000E+02  0.51100000000E-03 0.  1.
    9900012    2    1    2    0    0 -0.42941897069E+02  0.94039947898E+00 -0.62235284784E+01  0.47787272106E+02  0.20000004839E+02 0.  0.
         12    1    1    2    0    0  0.42941897069E+02 -0.94039947898E+00  0.62235284784E+01  0.43400727894E+02  0.00000000000E+00 0. -1.
         11    1    3    3    0    0 -0.10298961144E+02  0.30920455651E+01 -0.59738200267E+01  0.12301051678E+02  0.51100000000E-03 0. -1.
        -11    1    3    3    0    0 -0.99882120086E+01  0.15283629008E+01 -0.60969899013E+01  0.11801421881E+02  0.51100000000E-03 0.  1.
         12    1    3    3    0    0 -0.22654723916E+02 -0.36800089869E+01  0.58472814496E+01  0.23684798547E+02  0.00000000000E+00 0. -1.
</event>
<event>
 7    1  0.1246400E-009  0.4778727E+02  0.7816164E-02  0.1312668E+00
        -11   -1    0    0    0    0  0.00000000000E+00  0.00000000000E+00  0.45593999997E+02  0.45594000000E+02  0.51100000000E-03 0.  1.
         11   -1    0    0    0    0 -0.00000000000E+00 -0.00000000000E+00 -0.45593999997E+02  0.45594000000E+02  0.51100000000E-03 0. -1.
    9900012    2    1    2    0    0  0.28306408417E+02 -0.31622326235E+02  0.90773818421E+01  0.47787272643E+02  0.20000007291E+02 0.  0.
         12    1    1    2    0    0 -0.28306408417E+02  0.31622326235E+02 -0.90773818421E+01  0.43400727357E+02  0.00000000000E+00 0. -1.
         11    1    3    3    0    0  0.13736613937E+02 -0.42391113319E+01  0.43664427348E+00  0.14382464525E+02  0.51100000000E-03 0. -1.
        -11    1    3    3    0    0  0.98195442414E+01 -0.14606991364E+02  0.90020677585E+01  0.19769291085E+02  0.51100000000E-03 0.  1.
        -12    1    3    3    0    0  0.47502502383E+01 -0.12776223539E+02 -0.36133018994E+00  0.13635517033E+02  0.00000000000E+00 0.  1.
</event>
<event>
 7    1  0.1246400E-009  0.4778729E+02  0.7816164E-02  0.1312668E+00
        -11   -1    0    0    0    0  0.00000000000E+00  0.00000000000E+00  0.45593999997E+02  0.45594000000E+02  0.51100000000E-03 0.  1.
         11   -1    0    0    0    0 -0.00000000000E+00 -0.00000000000E+00 -0.45593999997E+02  0.45594000000E+02  0.51100000000E-03 0. -1.
    9900012    2    1    2    0    0 -0.12188419564E+02 -0.17342066352E+02  0.37872375794E+02  0.47787289348E+02  0.20000083455E+02 0.  0.
         12    1    1    2    0    0  0.12188419564E+02  0.17342066352E+02 -0.37872375794E+02  0.43400710652E+02  0.00000000000E+00 0. -1.
         11    1    3    3    0    0 -0.27709527377E+01 -0.59739904289E+00 -0.65951467265E+00  0.29103306608E+01  0.51100000000E-03 0. -1.
        -11    1    3    3    0    0  0.15278537505E+01 -0.55187573046E+01  0.18923765686E+02  0.19771189324E+02  0.51100000000E-03 0.  1.
        -12    1    3    3    0    0 -0.10945320577E+02 -0.11225910004E+02  0.19608124780E+02  0.25105769364E+02  0.00000000000E+00 0.  1.
</event>
<event>
 7    1  0.1246400E-009  0.4778727E+02  0.7816164E-02  0.1312668E+00
        -11   -1    0    0    0    0  0.00000000000E+00  0.00000000000E+00  0.45593999997E+02  0.45594000000E+02  0.51100000000E-03 0. -1.
         11   -1    0    0    0    0 -0.00000000000E+00 -0.00000000000E+00 -0.45593999997E+02  0.45594000000E+02  0.51100000000E-03 0.  1.
    9900012    2    1    2    0    0 -0.13436196889E+01  0.40326558424E+02 -0.15987078555E+02  0.47787270640E+02  0.19999998158E+02 0.  0.
         12    1    1    2    0    0  0.13436196889E+01 -0.40326558424E+02  0.15987078555E+02  0.43400729360E+02  0.00000000000E+00 0. -1.
         11    1    3    3    0    0  0.43242489447E+00  0.50618473392E+01  0.20379731567E+01  0.54738126222E+01  0.51100000000E-03 0. -1.
        -11    1    3    3    0    0 -0.22112908716E+01  0.31502798494E+02 -0.20625964544E+02  0.37719312479E+02  0.51100000000E-03 0.  1.
        -12    1    3    3    0    0  0.43524628819E+00  0.37619125908E+01  0.26009128322E+01  0.45941455390E+01  0.00000000000E+00 0.  1.
</event>
<event>
 7    1  0.1246400E-009  0.4778727E+02  0.7816164E-02  0.1312668E+00
        -11   -1    0    0    0    0  0.00000000000E+00  0.00000000000E+00  0.45593999997E+02  0.45594000000E+02  0.51100000000E-03 0.  1.
         11   -1    0    0    0    0 -0.00000000000E+00 -0.00000000000E+00 -0.45593999997E+02  0.45594000000E+02  0.51100000000E-03 0. -1.
    9900012    2    1    2    0    0 -0.30782531043E+01  0.12069833043E+02  0.41574834728E+02  0.47787269655E+02  0.19999993663E+02 0.  0.
         12    1    1    2    0    0  0.30782531043E+01 -0.12069833043E+02 -0.41574834728E+02  0.43400730345E+02  0.00000000000E+00 0. -1.
         11    1    3    3    0    0  0.49702141676E+01  0.48824001268E+01  0.39888276288E+01  0.80281757569E+01  0.51100000000E-03 0. -1.
        -11    1    3    3    0    0 -0.72788977706E+00  0.75709754161E+00  0.16469777025E+02  0.16503229252E+02  0.51100000000E-03 0.  1.
         12    1    3    3    0    0 -0.73205774948E+01  0.64303353749E+01  0.21116230074E+02  0.23255864646E+02  0.00000000000E+00 0. -1.
</event>
<event>
 7    1  0.1246400E-009  0.4778727E+02  0.7816164E-02  0.1312668E+00
        -11   -1    0    0    0    0  0.00000000000E+00  0.00000000000E+00  0.45593999997E+02  0.45594000000E+02  0.51100000000E-03 0.  1.
         11   -1    0    0    0    0 -0.00000000000E+00 -0.00000000000E+00 -0.45593999997E+02  0.45594000000E+02  0.51100000000E-03 0. -1.
    9900012    2    1    2    0    0 -0.10528272756E+02  0.40869923317E+02  0.10120664109E+02  0.47787274186E+02  0.20000014324E+02 0.  0.
         12    1    1    2    0    0  0.10528272756E+02 -0.40869923317E+02 -0.10120664109E+02  0.43400725814E+02  0.00000000000E+00 0. -1.
         11    1    3    3    0    0 -0.44956084364E+01  0.59436639034E+01 -0.19864907059E+01  0.77125729427E+01  0.51100000000E-03 0. -1.
        -11    1    3    3    0    0  0.45637612268E+01  0.11130002216E+02  0.53387189808E+01  0.13160804933E+02  0.51100000000E-03 0.  1.
         12    1    3    3    0    0 -0.10596425546E+02  0.23796257198E+02  0.67684358337E+01  0.26913896311E+02  0.00000000000E+00 0. -1.
</event>
<event>
 7    1  0.1246400E-009  0.4778727E+02  0.7816164E-02  0.1312668E+00
        -11   -1    0    0    0    0  0.00000000000E+00  0.00000000000E+00  0.45593999997E+02  0.45594000000E+02  0.51100000000E-03 0.  1.
         11   -1    0    0    0    0 -0.00000000000E+00 -0.00000000000E+00 -0.45593999997E+02  0.45594000000E+02  0.51100000000E-03 0. -1.
    9900012    2    1    2    0    0 -0.37078745542E+02 -0.62506351390E+01  0.21673010079E+02  0.47787272166E+02  0.20000005114E+02 0.  0.
         12    1    1    2    0    0  0.37078745542E+02  0.62506351390E+01 -0.21673010079E+02  0.43400727834E+02  0.00000000000E+00 0. -1.
         11    1    3    3    0    0 -0.86622631176E+01 -0.54538012626E+00  0.14138726621E+01  0.87938204420E+01  0.51100000000E-03 0. -1.
        -11    1    3    3    0    0 -0.56020119889E+01 -0.18964870557E+01  0.13745038570E+02  0.14963465074E+02  0.51100000000E-03 0.  1.
        -12    1    3    3    0    0 -0.22814470436E+02 -0.38087679570E+01  0.65140988472E+01  0.24029986650E+02  0.00000000000E+00 0.  1.
</event>
<event>
 7    1  0.1246400E-009  0.4778727E+02  0.7816164E-02  0.1312668E+00
        -11   -1    0    0    0    0  0.00000000000E+00  0.00000000000E+00  0.45593999997E+02  0.45594000000E+02  0.51100000000E-03 0.  1.
         11   -1    0    0    0    0 -0.00000000000E+00 -0.00000000000E+00 -0.45593999997E+02  0.45594000000E+02  0.51100000000E-03 0. -1.
    9900012    2    1    2    0    0  0.65503918712E+01  0.13637144136E+02  0.40678543499E+02  0.47787271491E+02  0.20000002037E+02 0.  0.
         12    1    1    2    0    0 -0.65503918712E+01 -0.13637144136E+02 -0.40678543499E+02  0.43400728509E+02  0.00000000000E+00 0. -1.
         11    1    3    3    0    0  0.22545200538E+01  0.55781187642E+01  0.70116719292E+00  0.60572192724E+01  0.51100000000E-03 0. -1.
        -11    1    3    3    0    0 -0.15764932137E+01  0.44444341718E+01  0.21419170622E+02  0.21932149834E+02  0.51100000000E-03 0.  1.
         12    1    3    3    0    0  0.58723650310E+01  0.36145912004E+01  0.18558205684E+02  0.19797902384E+02  0.00000000000E+00 0. -1.
</event>
<event>
 7    1  0.1246400E-009  0.4778725E+02  0.7816164E-02  0.1312668E+00
        -11   -1    0    0    0    0  0.00000000000E+00  0.00000000000E+00  0.45593999997E+02  0.45594000000E+02  0.51100000000E-03 0. -1.
         11   -1    0    0    0    0 -0.00000000000E+00 -0.00000000000E+00 -0.45593999997E+02  0.45594000000E+02  0.51100000000E-03 0.  1.
    9900012    2    1    2    0    0  0.38043552388E+02  0.84206470286E+01 -0.19115591132E+02  0.47787251170E+02  0.19999909385E+02 0.  0.
         12    1    1    2    0    0 -0.38043552388E+02 -0.84206470286E+01  0.19115591132E+02  0.43400748830E+02  0.00000000000E+00 0. -1.
         11    1    3    3    0    0  0.29881710971E+01 -0.27620872594E+01  0.25482297256E+01  0.48012256279E+01  0.51100000000E-03 0. -1.
        -11    1    3    3    0    0  0.14740158614E+02  0.24439986175E+01 -0.74355119274E+01  0.16689285278E+02  0.51100000000E-03 0.  1.
         12    1    3    3    0    0  0.20315222677E+02  0.87387356705E+01 -0.14228308930E+02  0.26296740265E+02  0.00000000000E+00 0. -1.
</event>
<event>
 7    1  0.1246400E-009  0.4778727E+02  0.7816164E-02  0.1312668E+00
        -11   -1    0    0    0    0  0.00000000000E+00  0.00000000000E+00  0.45593999997E+02  0.45594000000E+02  0.51100000000E-03 0. -1.
         11   -1    0    0    0    0 -0.00000000000E+00 -0.00000000000E+00 -0.45593999997E+02  0.45594000000E+02  0.51100000000E-03 0.  1.
    9900012    2    1    2    0    0 -0.39955818052E+02  0.16225743899E+02  0.48868277235E+01  0.47787271360E+02  0.20000001441E+02 0.  0.
         12    1    1    2    0    0  0.39955818052E+02 -0.16225743899E+02 -0.48868277235E+01  0.43400728640E+02  0.00000000000E+00 0. -1.
         11    1    3    3    0    0 -0.48114811376E+01  0.50733362348E+01  0.48642669754E+00  0.70089729976E+01  0.51100000000E-03 0. -1.
        -11    1    3    3    0    0 -0.46923129811E+01  0.88166100397E+01  0.67210106197E+00  0.10010101588E+02  0.51100000000E-03 0.  1.
         12    1    3    3    0    0 -0.30452023933E+02  0.23357976245E+01  0.37282999640E+01  0.30768196775E+02  0.00000000000E+00 0. -1.
</event>
<event>
 7    1  0.1246400E-009  0.4778727E+02  0.7816164E-02  0.1312668E+00
        -11   -1    0    0    0    0  0.00000000000E+00  0.00000000000E+00  0.45593999997E+02  0.45594000000E+02  0.51100000000E-03 0.  1.
         11   -1    0    0    0    0 -0.00000000000E+00 -0.00000000000E+00 -0.45593999997E+02  0.45594000000E+02  0.51100000000E-03 0. -1.
    9900012    2    1    2    0    0  0.47748544812E+01 -0.40974163709E+02 -0.13488597049E+02  0.47787267548E+02  0.19999984060E+02 0.  0.
         12    1    1    2    0    0 -0.47748544812E+01  0.40974163709E+02  0.13488597049E+02  0.43400732452E+02  0.00000000000E+00 0. -1.
         11    1    3    3    0    0  0.43812887598E+00 -0.62000478281E+01 -0.44168333186E+01  0.76250224136E+01  0.51100000000E-03 0.  1.
        -11    1    3    3    0    0 -0.35757658488E+01 -0.24650475618E+02 -0.10890522355E+02  0.27185207871E+02  0.51100000000E-03 0. -1.
         12    1    3    3    0    0  0.79124914541E+01 -0.10123640263E+02  0.18187586249E+01  0.12977037263E+02  0.00000000000E+00 0. -1.
</event>
<event>
 7    1  0.1246400E-009  0.4778727E+02  0.7816164E-02  0.1312668E+00
        -11   -1    0    0    0    0  0.00000000000E+00  0.00000000000E+00  0.45593999997E+02  0.45594000000E+02  0.51100000000E-03 0. -1.
         11   -1    0    0    0    0 -0.00000000000E+00 -0.00000000000E+00 -0.45593999997E+02  0.45594000000E+02  0.51100000000E-03 0.  1.
    9900012    2    1    2    0    0  0.11587521088E+02  0.20541336795E+02 -0.36433586134E+02  0.47787270042E+02  0.19999995430E+02 0.  0.
         12    1    1    2    0    0 -0.11587521088E+02 -0.20541336795E+02  0.36433586134E+02  0.43400729958E+02  0.00000000000E+00 0. -1.
         11    1    3    3    0    0  0.46640929235E+01  0.19547469955E+01 -0.48615664188E+00  0.50804672184E+01  0.51100000000E-03 0. -1.
        -11    1    3    3    0    0  0.43904986288E+01  0.23650341083E+00 -0.88613516815E+01  0.98922174439E+01  0.51100000000E-03 0.  1.
         12    1    3    3    0    0  0.25329295359E+01  0.18350086388E+02 -0.27086077811E+02  0.32814585380E+02  0.00000000000E+00 0. -1.
</event>
<event>
 7    1  0.1246400E-009  0.4778732E+02  0.7816164E-02  0.1312668E+00
        -11   -1    0    0    0    0  0.00000000000E+00  0.00000000000E+00  0.45593999997E+02  0.45594000000E+02  0.51100000000E-03 0.  1.
         11   -1    0    0    0    0 -0.00000000000E+00 -0.00000000000E+00 -0.45593999997E+02  0.45594000000E+02  0.51100000000E-03 0. -1.
    9900012    2    1    2    0    0  0.30905212122E+02  0.38583186292E+01  0.30225822697E+02  0.47787318938E+02  0.20000218364E+02 0.  0.
         12    1    1    2    0    0 -0.30905212122E+02 -0.38583186292E+01 -0.30225822697E+02  0.43400681062E+02  0.00000000000E+00 0. -1.
         11    1    3    3    0    0  0.83523337315E+00 -0.97136558952E+00  0.29959409355E+01  0.32583474717E+01  0.51100000000E-03 0. -1.
        -11    1    3    3    0    0  0.15436925631E+02 -0.62401664697E+01  0.10404388256E+02  0.19633890234E+02  0.51100000000E-03 0.  1.
        -12    1    3    3    0    0  0.14633053118E+02  0.11069850688E+02  0.16825493506E+02  0.24895081232E+02  0.00000000000E+00 0.  1.
</event>
<event>
 7    1  0.1246400E-009  0.4778727E+02  0.7816164E-02  0.1312668E+00
        -11   -1    0    0    0    0  0.00000000000E+00  0.00000000000E+00  0.45593999997E+02  0.45594000000E+02  0.51100000000E-03 0.  1.
         11   -1    0    0    0    0 -0.00000000000E+00 -0.00000000000E+00 -0.45593999997E+02  0.45594000000E+02  0.51100000000E-03 0. -1.
    9900012    2    1    2    0    0 -0.65240966878E+00  0.94157017454E+01  0.42362039885E+02  0.47787268429E+02  0.19999988073E+02 0.  0.
         12    1    1    2    0    0  0.65240966878E+00 -0.94157017454E+01 -0.42362039885E+02  0.43400731571E+02  0.00000000000E+00 0. -1.
         11    1    3    3    0    0 -0.40023462991E+01 -0.30698369940E+01  0.13784200228E+02  0.14678107890E+02  0.51100000000E-03 0. -1.
        -11    1    3    3    0    0 -0.28866273235E+01  0.69665974451E+01  0.84446725523E+01  0.11321598476E+02  0.51100000000E-03 0.  1.
         12    1    3    3    0    0  0.62365639538E+01  0.55189412943E+01  0.20133167105E+02  0.21787562063E+02  0.00000000000E+00 0. -1.
</event>
<event>
 7    1  0.1246400E-009  0.4778727E+02  0.7816164E-02  0.1312668E+00
        -11   -1    0    0    0    0  0.00000000000E+00  0.00000000000E+00  0.45593999997E+02  0.45594000000E+02  0.51100000000E-03 0.  1.
         11   -1    0    0    0    0 -0.00000000000E+00 -0.00000000000E+00 -0.45593999997E+02  0.45594000000E+02  0.51100000000E-03 0. -1.
    9900012    2    1    2    0    0 -0.21844209797E+02  0.35702283686E+02  0.11480468660E+02  0.47787265873E+02  0.19999976422E+02 0.  0.
         12    1    1    2    0    0  0.21844209797E+02 -0.35702283686E+02 -0.11480468660E+02  0.43400734127E+02  0.00000000000E+00 0. -1.
         11    1    3    3    0    0 -0.44702044450E+01  0.10259264036E+02  0.50768424363E+01  0.12288594538E+02  0.51100000000E-03 0.  1.
        -11    1    3    3    0    0 -0.19647211631E+02  0.20211645797E+02  0.19366088133E+01  0.28253743198E+02  0.51100000000E-03 0. -1.
         12    1    3    3    0    0  0.22732062786E+01  0.52313738532E+01  0.44670174102E+01  0.72449281377E+01  0.00000000000E+00 0. -1.
</event>
<event>
 7    1  0.1246400E-009  0.4778727E+02  0.7816164E-02  0.1312668E+00
        -11   -1    0    0    0    0  0.00000000000E+00  0.00000000000E+00  0.45593999997E+02  0.45594000000E+02  0.51100000000E-03 0. -1.
         11   -1    0    0    0    0 -0.00000000000E+00 -0.00000000000E+00 -0.45593999997E+02  0.45594000000E+02  0.51100000000E-03 0.  1.
    9900012    2    1    2    0    0 -0.27385828670E+02  0.31533111647E+02  0.11802654213E+02  0.47787269724E+02  0.19999993978E+02 0.  0.
         12    1    1    2    0    0  0.27385828670E+02 -0.31533111647E+02 -0.11802654213E+02  0.43400730276E+02  0.00000000000E+00 0. -1.
         11    1    3    3    0    0 -0.14585901346E+02  0.72468261410E+01  0.53880795966E+01  0.17155069490E+02  0.51100000000E-03 0. -1.
        -11    1    3    3    0    0 -0.10984707226E+02  0.14929612236E+02 -0.99164985938E+00  0.18561801746E+02  0.51100000000E-03 0.  1.
        -12    1    3    3    0    0 -0.18152200980E+01  0.93566732701E+01  0.74062244754E+01  0.12070398488E+02  0.00000000000E+00 0.  1.
</event>
<event>
 7    1  0.1246400E-009  0.4778727E+02  0.7816164E-02  0.1312668E+00
        -11   -1    0    0    0    0  0.00000000000E+00  0.00000000000E+00  0.45593999997E+02  0.45594000000E+02  0.51100000000E-03 0. -1.
         11   -1    0    0    0    0 -0.00000000000E+00 -0.00000000000E+00 -0.45593999997E+02  0.45594000000E+02  0.51100000000E-03 0.  1.
    9900012    2    1    2    0    0 -0.18096199931E+02  0.26653929817E+02  0.29081247751E+02  0.47787269621E+02  0.19999993512E+02 0.  0.
         12    1    1    2    0    0  0.18096199931E+02 -0.26653929817E+02 -0.29081247751E+02  0.43400730379E+02  0.00000000000E+00 0. -1.
         11    1    3    3    0    0 -0.56972116718E+01  0.31656470945E+01  0.30354975822E+01  0.71898392328E+01  0.51100000000E-03 0. -1.
        -11    1    3    3    0    0 -0.12263892219E+02  0.87663179731E+01  0.72658719736E+01  0.16734523566E+02  0.51100000000E-03 0.  1.
         12    1    3    3    0    0 -0.13509604015E+00  0.14721964750E+02  0.18779878195E+02  0.23862906823E+02  0.00000000000E+00 0. -1.
</event>
<event>
 7    1  0.1246400E-009  0.4778727E+02  0.7816164E-02  0.1312668E+00
        -11   -1    0    0    0    0  0.00000000000E+00  0.00000000000E+00  0.45593999997E+02  0.45594000000E+02  0.51100000000E-03 0.  1.
         11   -1    0    0    0    0 -0.00000000000E+00 -0.00000000000E+00 -0.45593999997E+02  0.45594000000E+02  0.51100000000E-03 0. -1.
    9900012    2    1    2    0    0 -0.36261069610E+02 -0.22477705395E+02  0.79693768630E+01  0.47787269860E+02  0.19999994600E+02 0.  0.
         12    1    1    2    0    0  0.36261069610E+02  0.22477705395E+02 -0.79693768630E+01  0.43400730140E+02  0.00000000000E+00 0. -1.
         11    1    3    3    0    0 -0.27818317397E+02 -0.23540662084E+02  0.36559531555E+01  0.36624957992E+02  0.51100000000E-03 0. -1.
        -11    1    3    3    0    0 -0.75188233885E+01 -0.11466672940E+01  0.43600502035E+01  0.87668460160E+01  0.51100000000E-03 0.  1.
        -12    1    3    3    0    0 -0.92392882466E+00  0.22096239832E+01 -0.46626496044E-01  0.23954658525E+01  0.00000000000E+00 0.  1.
</event>
<event>
 7    1  0.1246400E-009  0.4778727E+02  0.7816164E-02  0.1312668E+00
        -11   -1    0    0    0    0  0.00000000000E+00  0.00000000000E+00  0.45593999997E+02  0.45594000000E+02  0.51100000000E-03 0.  1.
         11   -1    0    0    0    0 -0.00000000000E+00 -0.00000000000E+00 -0.45593999997E+02  0.45594000000E+02  0.51100000000E-03 0. -1.
    9900012    2    1    2    0    0  0.12574555591E+02  0.38292534359E+02  0.16099235883E+02  0.47787273832E+02  0.20000012708E+02 0.  0.
         12    1    1    2    0    0 -0.12574555591E+02 -0.38292534359E+02 -0.16099235883E+02  0.43400726168E+02  0.00000000000E+00 0. -1.
         11    1    3    3    0    0  0.37513456337E+01  0.20320505510E+02  0.70102617332E+01  0.21820616583E+02  0.51100000000E-03 0.  1.
        -11    1    3    3    0    0  0.77815354280E+01  0.16920243560E+01  0.22269624474E+01  0.82688936407E+01  0.51100000000E-03 0. -1.
         12    1    3    3    0    0  0.10416745297E+01  0.16280004493E+02  0.68620117019E+01  0.17697763608E+02  0.00000000000E+00 0. -1.
</event>
<event>
 7    1  0.1246400E-009  0.4778727E+02  0.7816164E-02  0.1312668E+00
        -11   -1    0    0    0    0  0.00000000000E+00  0.00000000000E+00  0.45593999997E+02  0.45594000000E+02  0.51100000000E-03 0.  1.
         11   -1    0    0    0    0 -0.00000000000E+00 -0.00000000000E+00 -0.45593999997E+02  0.45594000000E+02  0.51100000000E-03 0. -1.
    9900012    2    1    2    0    0 -0.21086403932E+02  0.17820096047E+02  0.33487773941E+02  0.47787271234E+02  0.20000000863E+02 0.  0.
         12    1    1    2    0    0  0.21086403932E+02 -0.17820096047E+02 -0.33487773941E+02  0.43400728766E+02  0.00000000000E+00 0. -1.
         11    1    3    3    0    0 -0.32918732926E+00 -0.15339213161E+01 -0.17503652418E+01  0.23505441163E+01  0.51100000000E-03 0. -1.
        -11    1    3    3    0    0 -0.97886520892E+01  0.85996017652E+01  0.19430424596E+02  0.23394705822E+02  0.51100000000E-03 0.  1.
         12    1    3    3    0    0 -0.10968564514E+02  0.10754415598E+02  0.15807714587E+02  0.22042021296E+02  0.00000000000E+00 0. -1.
</event>
<event>
 7    1  0.1246400E-009  0.4778727E+02  0.7816164E-02  0.1312668E+00
        -11   -1    0    0    0    0  0.00000000000E+00  0.00000000000E+00  0.45593999997E+02  0.45594000000E+02  0.51100000000E-03 0.  1.
         11   -1    0    0    0    0 -0.00000000000E+00 -0.00000000000E+00 -0.45593999997E+02  0.45594000000E+02  0.51100000000E-03 0. -1.
    9900012    2    1    2    0    0 -0.18834690979E+02 -0.10357101670E+02  0.37704219024E+02  0.47787271072E+02  0.20000000127E+02 0.  0.
         12    1    1    2    0    0  0.18834690979E+02  0.10357101670E+02 -0.37704219024E+02  0.43400728928E+02  0.00000000000E+00 0. -1.
         11    1    3    3    0    0 -0.93808383250E+01 -0.86870152784E+01  0.25527827279E+02  0.28550557402E+02  0.51100000000E-03 0. -1.
        -11    1    3    3    0    0 -0.11675598413E+02 -0.39119059682E+00  0.11870867959E+02  0.16655033315E+02  0.51100000000E-03 0.  1.
         12    1    3    3    0    0  0.22217457586E+01 -0.12788957948E+01  0.30552378569E+00  0.25816803546E+01  0.00000000000E+00 0. -1.
</event>
<event>
 7    1  0.1246400E-009  0.4778727E+02  0.7816164E-02  0.1312668E+00
        -11   -1    0    0    0    0  0.00000000000E+00  0.00000000000E+00  0.45593999997E+02  0.45594000000E+02  0.51100000000E-03 0. -1.
         11   -1    0    0    0    0 -0.00000000000E+00 -0.00000000000E+00 -0.45593999997E+02  0.45594000000E+02  0.51100000000E-03 0.  1.
    9900012    2    1    2    0    0  0.11394384823E+02  0.25857651518E+02 -0.32941969733E+02  0.47787268239E+02  0.19999987210E+02 0.  0.
         12    1    1    2    0    0 -0.11394384823E+02 -0.25857651518E+02  0.32941969733E+02  0.43400731761E+02  0.00000000000E+00 0. -1.
         11    1    3    3    0    0  0.94917677573E+01  0.72902384940E+01 -0.15357374981E+02  0.19470238803E+02  0.51100000000E-03 0. -1.
        -11    1    3    3    0    0  0.55389555624E+01  0.15481992135E+02 -0.96670261810E+01  0.19074158032E+02  0.51100000000E-03 0.  1.
         12    1    3    3    0    0 -0.36363384972E+01  0.30854208886E+01 -0.79175685704E+01  0.92428714041E+01  0.00000000000E+00 0. -1.
</event>
<event>
 7    1  0.1246400E-009  0.4778728E+02  0.7816164E-02  0.1312668E+00
        -11   -1    0    0    0    0  0.00000000000E+00  0.00000000000E+00  0.45593999997E+02  0.45594000000E+02  0.51100000000E-03 0.  1.
         11   -1    0    0    0    0 -0.00000000000E+00 -0.00000000000E+00 -0.45593999997E+02  0.45594000000E+02  0.51100000000E-03 0. -1.
    9900012    2    1    2    0    0 -0.11266842814E+01 -0.19342050620E+02  0.38836047334E+02  0.47787275212E+02  0.20000019000E+02 0.  0.
         12    1    1    2    0    0  0.11266842814E+01  0.19342050620E+02 -0.38836047334E+02  0.43400724788E+02  0.00000000000E+00 0. -1.
         11    1    3    3    0    0  0.69148165238E+01 -0.81200754971E+01  0.19461621448E+02  0.22192454197E+02  0.51100000000E-03 0. -1.
        -11    1    3    3    0    0 -0.25620221186E+01  0.63686745139E+00  0.57459544986E+00  0.27017989709E+01  0.51100000000E-03 0.  1.
        -12    1    3    3    0    0 -0.54794786866E+01 -0.11858842574E+02  0.18799830436E+02  0.22893022044E+02  0.00000000000E+00 0.  1.
</event>
<event>
 7    1  0.1246400E-009  0.4778726E+02  0.7816164E-02  0.1312668E+00
        -11   -1    0    0    0    0  0.00000000000E+00  0.00000000000E+00  0.45593999997E+02  0.45594000000E+02  0.51100000000E-03 0. -1.
         11   -1    0    0    0    0 -0.00000000000E+00 -0.00000000000E+00 -0.45593999997E+02  0.45594000000E+02  0.51100000000E-03 0.  1.
    9900012    2    1    2    0    0  0.86745561641E+01  0.42439936708E+02  0.26885543091E+01  0.47787257187E+02  0.19999936818E+02 0.  0.
         12    1    1    2    0    0 -0.86745561641E+01 -0.42439936708E+02 -0.26885543091E+01  0.43400742813E+02  0.00000000000E+00 0. -1.
         11    1    3    3    0    0 -0.20693176946E+01  0.48993400940E+01  0.58014799651E+00  0.53499701902E+01  0.51100000000E-03 0.  1.
        -11    1    3    3    0    0  0.10507463825E+02  0.13556029988E+02 -0.41543562893E+01  0.17647419684E+02  0.51100000000E-03 0. -1.
         12    1    3    3    0    0  0.23641003343E+00  0.23984566626E+02  0.62627626019E+01  0.24789867312E+02  0.00000000000E+00 0. -1.
</event>
<event>
 7    1  0.1246400E-009  0.4778727E+02  0.7816164E-02  0.1312668E+00
        -11   -1    0    0    0    0  0.00000000000E+00  0.00000000000E+00  0.45593999997E+02  0.45594000000E+02  0.51100000000E-03 0.  1.
         11   -1    0    0    0    0 -0.00000000000E+00 -0.00000000000E+00 -0.45593999997E+02  0.45594000000E+02  0.51100000000E-03 0. -1.
    9900012    2    1    2    0    0  0.21565769060E+02  0.37475710443E+02  0.37565583988E+01  0.47787274207E+02  0.20000014418E+02 0.  0.
         12    1    1    2    0    0 -0.21565769060E+02 -0.37475710443E+02 -0.37565583988E+01  0.43400725793E+02  0.00000000000E+00 0. -1.
         11    1    3    3    0    0  0.12461773577E+02  0.19601484348E+02  0.13569910526E+01  0.23267045672E+02  0.51100000000E-03 0. -1.
        -11    1    3    3    0    0  0.55691050881E+01  0.10701027717E+01 -0.31332577469E+01  0.64789934245E+01  0.51100000000E-03 0.  1.
         12    1    3    3    0    0  0.35348903949E+01  0.16804123324E+02  0.55328250931E+01  0.18041235110E+02  0.00000000000E+00 0. -1.
</event>
<event>
 7    1  0.1246400E-009  0.4778728E+02  0.7816164E-02  0.1312668E+00
        -11   -1    0    0    0    0  0.00000000000E+00  0.00000000000E+00  0.45593999997E+02  0.45594000000E+02  0.51100000000E-03 0.  1.
         11   -1    0    0    0    0 -0.00000000000E+00 -0.00000000000E+00 -0.45593999997E+02  0.45594000000E+02  0.51100000000E-03 0. -1.
    9900012    2    1    2    0    0  0.29790791586E+02  0.18001851210E+02  0.25924201417E+02  0.47787284229E+02  0.20000060115E+02 0.  0.
         12    1    1    2    0    0 -0.29790791586E+02 -0.18001851210E+02 -0.25924201417E+02  0.43400715771E+02  0.00000000000E+00 0. -1.
         11    1    3    3    0    0  0.18706341083E+02  0.19084580260E+02  0.14643616444E+02  0.30472674697E+02  0.51100000000E-03 0. -1.
        -11    1    3    3    0    0 -0.84391706923E+00 -0.83339232068E+00  0.12977710855E+01  0.17581094481E+01  0.51100000000E-03 0.  1.
        -12    1    3    3    0    0  0.11928367572E+02 -0.24933672937E+00  0.99828138880E+01  0.15556500084E+02  0.00000000000E+00 0.  1.
</event>
<event>
 7    1  0.1246400E-009  0.4778727E+02  0.7816164E-02  0.1312668E+00
        -11   -1    0    0    0    0  0.00000000000E+00  0.00000000000E+00  0.45593999997E+02  0.45594000000E+02  0.51100000000E-03 0.  1.
         11   -1    0    0    0    0 -0.00000000000E+00 -0.00000000000E+00 -0.45593999997E+02  0.45594000000E+02  0.51100000000E-03 0. -1.
    9900012    2    1    2    0    0 -0.38770164648E+02 -0.29368225121E+01  0.19283998787E+02  0.47787271866E+02  0.20000003747E+02 0.  0.
         12    1    1    2    0    0  0.38770164648E+02  0.29368225121E+01 -0.19283998787E+02  0.43400728134E+02  0.00000000000E+00 0. -1.
         11    1    3    3    0    0 -0.11824169617E+02 -0.48633592065E+01  0.62396957808E+01  0.14226631843E+02  0.51100000000E-03 0. -1.
        -11    1    3    3    0    0 -0.27286475041E+02 -0.11656799105E+01  0.13414229681E+02  0.30427817667E+02  0.51100000000E-03 0.  1.
         12    1    3    3    0    0  0.34048000948E+00  0.30922166049E+01 -0.36992667466E+00  0.31328223558E+01  0.00000000000E+00 0. -1.
</event>
<event>
 7    1  0.1246400E-009  0.4778727E+02  0.7816164E-02  0.1312668E+00
        -11   -1    0    0    0    0  0.00000000000E+00  0.00000000000E+00  0.45593999997E+02  0.45594000000E+02  0.51100000000E-03 0.  1.
         11   -1    0    0    0    0 -0.00000000000E+00 -0.00000000000E+00 -0.45593999997E+02  0.45594000000E+02  0.51100000000E-03 0. -1.
    9900012    2    1    2    0    0 -0.19806683937E+02 -0.15449259794E+02  0.35392638089E+02  0.47787272038E+02  0.20000004530E+02 0.  0.
         12    1    1    2    0    0  0.19806683937E+02  0.15449259794E+02 -0.35392638089E+02  0.43400727962E+02  0.00000000000E+00 0. -1.
         11    1    3    3    0    0  0.88204547198E+00 -0.75523257226E+01  0.85173148726E+01  0.11417542684E+02  0.51100000000E-03 0. -1.
        -11    1    3    3    0    0 -0.11093559349E+02 -0.57625829237E+01  0.73291216979E+01  0.14491047102E+02  0.51100000000E-03 0.  1.
        -12    1    3    3    0    0 -0.95951700594E+01 -0.21343511473E+01  0.19546201518E+02  0.21878682252E+02  0.00000000000E+00 0.  1.
</event>
<event>
 7    1  0.1246400E-009  0.4778727E+02  0.7816164E-02  0.1312668E+00
        -11   -1    0    0    0    0  0.00000000000E+00  0.00000000000E+00  0.45593999997E+02  0.45594000000E+02  0.51100000000E-03 0. -1.
         11   -1    0    0    0    0 -0.00000000000E+00 -0.00000000000E+00 -0.45593999997E+02  0.45594000000E+02  0.51100000000E-03 0.  1.
    9900012    2    1    2    0    0 -0.35550374876E+02 -0.97232242964E+01 -0.22918394813E+02  0.47787273447E+02  0.20000010953E+02 0.  0.
         12    1    1    2    0    0  0.35550374876E+02  0.97232242964E+01  0.22918394813E+02  0.43400726553E+02  0.00000000000E+00 0. -1.
         11    1    3    3    0    0 -0.72865108147E+00  0.39269663814E+01 -0.18467973745E+01  0.44003020536E+01  0.51100000000E-03 0. -1.
        -11    1    3    3    0    0 -0.12836144226E+02 -0.32664702017E+01 -0.10369664936E+02  0.16821604481E+02  0.51100000000E-03 0.  1.
         12    1    3    3    0    0 -0.21985579569E+02 -0.10383720476E+02 -0.10701932502E+02  0.26565366913E+02  0.00000000000E+00 0. -1.
</event>
<event>
 7    1  0.1246400E-009  0.4778721E+02  0.7816164E-02  0.1312668E+00
        -11   -1    0    0    0    0  0.00000000000E+00  0.00000000000E+00  0.45593999997E+02  0.45594000000E+02  0.51100000000E-03 0.  1.
         11   -1    0    0    0    0 -0.00000000000E+00 -0.00000000000E+00 -0.45593999997E+02  0.45594000000E+02  0.51100000000E-03 0. -1.
    9900012    2    1    2    0    0 -0.21041983614E+02  0.65793046894E+01  0.37384174154E+02  0.47787207360E+02  0.19999709635E+02 0.  0.
         12    1    1    2    0    0  0.21041983614E+02 -0.65793046894E+01 -0.37384174154E+02  0.43400792640E+02  0.00000000000E+00 0. -1.
         11    1    3    3    0    0 -0.10683339924E+01 -0.42699994334E+01  0.36214996092E+01  0.56999554701E+01  0.51100000000E-03 0. -1.
        -11    1    3    3    0    0 -0.48738490803E+01  0.45186523244E+01  0.18675321275E+02  0.19822720516E+02  0.51100000000E-03 0.  1.
         12    1    3    3    0    0 -0.15099800542E+02  0.63306517984E+01  0.15087353270E+02  0.22264531373E+02  0.00000000000E+00 0. -1.
</event>
<event>
 7    1  0.1246400E-009  0.4778727E+02  0.7816164E-02  0.1312668E+00
        -11   -1    0    0    0    0  0.00000000000E+00  0.00000000000E+00  0.45593999997E+02  0.45594000000E+02  0.51100000000E-03 0.  1.
         11   -1    0    0    0    0 -0.00000000000E+00 -0.00000000000E+00 -0.45593999997E+02  0.45594000000E+02  0.51100000000E-03 0. -1.
    9900012    2    1    2    0    0 -0.43598054247E+01 -0.28757928363E+01  0.43085322102E+02  0.47787273411E+02  0.20000010791E+02 0.  0.
         12    1    1    2    0    0  0.43598054247E+01  0.28757928363E+01 -0.43085322102E+02  0.43400726589E+02  0.00000000000E+00 0. -1.
         11    1    3    3    0    0  0.48061674388E+01  0.13260348044E+01  0.53748372260E+01  0.73311997121E+01  0.51100000000E-03 0. -1.
        -11    1    3    3    0    0 -0.12525485731E+01 -0.58454873246E+01  0.21876060593E+02  0.22678197179E+02  0.51100000000E-03 0.  1.
        -12    1    3    3    0    0 -0.79134242905E+01  0.16436596839E+01  0.15834424284E+02  0.17777876520E+02  0.00000000000E+00 0.  1.
</event>
<event>
 7    1  0.1246400E-009  0.4778727E+02  0.7816164E-02  0.1312668E+00
        -11   -1    0    0    0    0  0.00000000000E+00  0.00000000000E+00  0.45593999997E+02  0.45594000000E+02  0.51100000000E-03 0. -1.
         11   -1    0    0    0    0 -0.00000000000E+00 -0.00000000000E+00 -0.45593999997E+02  0.45594000000E+02  0.51100000000E-03 0.  1.
    9900012    2    1    2    0    0 -0.22758907821E+02 -0.35459471480E+02 -0.10405827311E+02  0.47787271379E+02  0.20000001525E+02 0.  0.
         12    1    1    2    0    0  0.22758907821E+02  0.35459471480E+02  0.10405827311E+02  0.43400728621E+02  0.00000000000E+00 0. -1.
         11    1    3    3    0    0 -0.92354525756E+01 -0.18527495523E+02 -0.10675612766E+02  0.23292281615E+02  0.51100000000E-03 0.  1.
        -11    1    3    3    0    0 -0.27567568902E+01  0.14258651216E+01 -0.73342692295E+00  0.31891558772E+01  0.51100000000E-03 0. -1.
         12    1    3    3    0    0 -0.10766698355E+02 -0.18357841078E+02  0.10032123786E+01  0.21305833887E+02  0.00000000000E+00 0. -1.
</event>
<event>
 7    1  0.1246400E-009  0.4778728E+02  0.7816164E-02  0.1312668E+00
        -11   -1    0    0    0    0  0.00000000000E+00  0.00000000000E+00  0.45593999997E+02  0.45594000000E+02  0.51100000000E-03 0. -1.
         11   -1    0    0    0    0 -0.00000000000E+00 -0.00000000000E+00 -0.45593999997E+02  0.45594000000E+02  0.51100000000E-03 0.  1.
    9900012    2    1    2    0    0 -0.12446609492E+02 -0.13957582986E+02 -0.39164914318E+02  0.47787277377E+02  0.20000028873E+02 0.  0.
         12    1    1    2    0    0  0.12446609492E+02  0.13957582986E+02  0.39164914318E+02  0.43400722623E+02  0.00000000000E+00 0. -1.
         11    1    3    3    0    0 -0.58138489154E+00 -0.91559821207E+01 -0.50154321282E+01  0.10455839358E+02  0.51100000000E-03 0. -1.
        -11    1    3    3    0    0 -0.64915880106E+01 -0.66385541772E+01 -0.23383445415E+02  0.25159424402E+02  0.51100000000E-03 0.  1.
        -12    1    3    3    0    0 -0.53736365894E+01  0.18369533122E+01 -0.10766036775E+02  0.12172013617E+02  0.00000000000E+00 0.  1.
</event>
<event>
 7    1  0.1246400E-009  0.4778727E+02  0.7816164E-02  0.1312668E+00
        -11   -1    0    0    0    0  0.00000000000E+00  0.00000000000E+00  0.45593999997E+02  0.45594000000E+02  0.51100000000E-03 0.  1.
         11   -1    0    0    0    0 -0.00000000000E+00 -0.00000000000E+00 -0.45593999997E+02  0.45594000000E+02  0.51100000000E-03 0. -1.
    9900012    2    1    2    0    0  0.84544639307E+01  0.11749264933E+02  0.40915766521E+02  0.47787272623E+02  0.20000007197E+02 0.  0.
         12    1    1    2    0    0 -0.84544639307E+01 -0.11749264933E+02 -0.40915766521E+02  0.43400727377E+02  0.00000000000E+00 0. -1.
         11    1    3    3    0    0  0.45868524957E+01  0.58833433351E+01  0.26156838649E+01  0.79053619119E+01  0.51100000000E-03 0. -1.
        -11    1    3    3    0    0  0.63891232044E+01  0.24612294328E+01  0.22045536376E+02  0.23084285131E+02  0.51100000000E-03 0.  1.
        -12    1    3    3    0    0 -0.25215117694E+01  0.34046921656E+01  0.16254546280E+02  0.16797625580E+02  0.00000000000E+00 0.  1.
</event>
<event>
 7    1  0.1246400E-009  0.4778728E+02  0.7816164E-02  0.1312668E+00
        -11   -1    0    0    0    0  0.00000000000E+00  0.00000000000E+00  0.45593999997E+02  0.45594000000E+02  0.51100000000E-03 0.  1.
         11   -1    0    0    0    0 -0.00000000000E+00 -0.00000000000E+00 -0.45593999997E+02  0.45594000000E+02  0.51100000000E-03 0. -1.
    9900012    2    1    2    0    0  0.15201496783E+02  0.81309636537E+01  0.39829947731E+02  0.47787276382E+02  0.20000024334E+02 0.  0.
         12    1    1    2    0    0 -0.15201496783E+02 -0.81309636537E+01 -0.39829947731E+02  0.43400723618E+02  0.00000000000E+00 0. -1.
         11    1    3    3    0    0 -0.10198928819E+01  0.38099150038E+01  0.47291394542E+01  0.61579537239E+01  0.51100000000E-03 0. -1.
        -11    1    3    3    0    0  0.14427502693E+02  0.78891297328E+01  0.33516456717E+02  0.37332881928E+02  0.51100000000E-03 0.  1.
         12    1    3    3    0    0  0.17938869720E+01 -0.35680810829E+01  0.15843515589E+01  0.42964407298E+01  0.00000000000E+00 0. -1.
</event>
<event>
 7    1  0.1246400E-009  0.4778727E+02  0.7816164E-02  0.1312668E+00
        -11   -1    0    0    0    0  0.00000000000E+00  0.00000000000E+00  0.45593999997E+02  0.45594000000E+02  0.51100000000E-03 0.  1.
         11   -1    0    0    0    0 -0.00000000000E+00 -0.00000000000E+00 -0.45593999997E+02  0.45594000000E+02  0.51100000000E-03 0. -1.
    9900012    2    1    2    0    0  0.14218601189E+02 -0.36477442401E+02  0.18731012110E+02  0.47787271451E+02  0.20000001855E+02 0.  0.
         12    1    1    2    0    0 -0.14218601189E+02  0.36477442401E+02 -0.18731012110E+02  0.43400728549E+02  0.00000000000E+00 0. -1.
         11    1    3    3    0    0  0.48718158741E+01 -0.60791367213E+01  0.10707784069E+02  0.13241870454E+02  0.51100000000E-03 0.  1.
        -11    1    3    3    0    0 -0.23325241022E+00  0.37566116762E+00 -0.98488335600E+00  0.10795941301E+01  0.51100000000E-03 0. -1.
        -12    1    3    3    0    0  0.95800377256E+01 -0.30773966847E+02  0.90081113970E+01  0.33465806867E+02  0.00000000000E+00 0.  1.
</event>
<event>
 7    1  0.1246400E-009  0.4778727E+02  0.7816164E-02  0.1312668E+00
        -11   -1    0    0    0    0  0.00000000000E+00  0.00000000000E+00  0.45593999997E+02  0.45594000000E+02  0.51100000000E-03 0.  1.
         11   -1    0    0    0    0 -0.00000000000E+00 -0.00000000000E+00 -0.45593999997E+02  0.45594000000E+02  0.51100000000E-03 0. -1.
    9900012    2    1    2    0    0 -0.33268415181E+02  0.12515861437E+02  0.24903595911E+02  0.47787270450E+02  0.19999997290E+02 0.  0.
         12    1    1    2    0    0  0.33268415181E+02 -0.12515861437E+02 -0.24903595911E+02  0.43400729550E+02  0.00000000000E+00 0. -1.
         11    1    3    3    0    0 -0.11646764553E+02  0.43310075105E+01  0.93957828155E+01  0.15578365947E+02  0.51100000000E-03 0. -1.
        -11    1    3    3    0    0 -0.36904557783E+01  0.82779767514E+01  0.98974418651E+01  0.13420272675E+02  0.51100000000E-03 0.  1.
         12    1    3    3    0    0 -0.17931194850E+02 -0.93122825246E-01  0.56103712301E+01  0.18788631828E+02  0.00000000000E+00 0. -1.
</event>
<event>
 7    1  0.1246400E-009  0.4778727E+02  0.7816164E-02  0.1312668E+00
        -11   -1    0    0    0    0  0.00000000000E+00  0.00000000000E+00  0.45593999997E+02  0.45594000000E+02  0.51100000000E-03 0.  1.
         11   -1    0    0    0    0 -0.00000000000E+00 -0.00000000000E+00 -0.45593999997E+02  0.45594000000E+02  0.51100000000E-03 0. -1.
    9900012    2    1    2    0    0  0.29519611116E+02  0.19529339189E+02  0.25116138676E+02  0.47787274757E+02  0.20000016928E+02 0.  0.
         12    1    1    2    0    0 -0.29519611116E+02 -0.19529339189E+02 -0.25116138676E+02  0.43400725243E+02  0.00000000000E+00 0. -1.
         11    1    3    3    0    0  0.84269469691E+01 -0.99859599748E+00  0.83093539460E+01  0.11876699560E+02  0.51100000000E-03 0. -1.
        -11    1    3    3    0    0  0.96902350983E+01  0.11974584087E+02  0.15072328223E+02  0.21551482516E+02  0.51100000000E-03 0.  1.
         12    1    3    3    0    0  0.11402429049E+02  0.85533510997E+01  0.17344565073E+01  0.14359092681E+02  0.00000000000E+00 0. -1.
</event>
<event>
 7    1  0.1246400E-009  0.4778728E+02  0.7816164E-02  0.1312668E+00
        -11   -1    0    0    0    0  0.00000000000E+00  0.00000000000E+00  0.45593999997E+02  0.45594000000E+02  0.51100000000E-03 0. -1.
         11   -1    0    0    0    0 -0.00000000000E+00 -0.00000000000E+00 -0.45593999997E+02  0.45594000000E+02  0.51100000000E-03 0.  1.
    9900012    2    1    2    0    0  0.22444336729E+02  0.25681035409E+02 -0.26839497060E+02  0.47787280728E+02  0.20000044151E+02 0.  0.
         12    1    1    2    0    0 -0.22444336729E+02 -0.25681035409E+02  0.26839497060E+02  0.43400719272E+02  0.00000000000E+00 0. -1.
         11    1    3    3    0    0  0.78054629188E+01  0.21670065847E+01 -0.10241936379E+02  0.13058270558E+02  0.51100000000E-03 0. -1.
        -11    1    3    3    0    0  0.51648693433E+01  0.19501784041E+02 -0.10107806832E+02  0.22564645251E+02  0.51100000000E-03 0.  1.
        -12    1    3    3    0    0  0.94740044672E+01  0.40122447834E+01 -0.64897538490E+01  0.12164364918E+02  0.00000000000E+00 0.  1.
</event>
<event>
 7    1  0.1246400E-009  0.4778725E+02  0.7816164E-02  0.1312668E+00
        -11   -1    0    0    0    0  0.00000000000E+00  0.00000000000E+00  0.45593999997E+02  0.45594000000E+02  0.51100000000E-03 0.  1.
         11   -1    0    0    0    0 -0.00000000000E+00 -0.00000000000E+00 -0.45593999997E+02  0.45594000000E+02  0.51100000000E-03 0. -1.
    9900012    2    1    2    0    0  0.13403851420E+02  0.28349391404E+02  0.30004560792E+02  0.47787252378E+02  0.19999914892E+02 0.  0.
         12    1    1    2    0    0 -0.13403851420E+02 -0.28349391404E+02 -0.30004560792E+02  0.43400747622E+02  0.00000000000E+00 0. -1.
         11    1    3    3    0    0 -0.93363039562E+00  0.21955826338E+01  0.60065711358E+01  0.64630601025E+01  0.51100000000E-03 0. -1.
        -11    1    3    3    0    0  0.15074288342E+02  0.26135641338E+02  0.25595032984E+02  0.39565283152E+02  0.51100000000E-03 0.  1.
        -12    1    3    3    0    0 -0.73680652664E+00  0.18167432654E-01 -0.15970433284E+01  0.17589091239E+01  0.00000000000E+00 0.  1.
</event>
<event>
 7    1  0.1246400E-009  0.4778727E+02  0.7816164E-02  0.1312668E+00
        -11   -1    0    0    0    0  0.00000000000E+00  0.00000000000E+00  0.45593999997E+02  0.45594000000E+02  0.51100000000E-03 0. -1.
         11   -1    0    0    0    0 -0.00000000000E+00 -0.00000000000E+00 -0.45593999997E+02  0.45594000000E+02  0.51100000000E-03 0.  1.
    9900012    2    1    2    0    0  0.88373929183E+01  0.57663000309E+01 -0.42098384049E+02  0.47787266491E+02  0.19999979238E+02 0.  0.
         12    1    1    2    0    0 -0.88373929183E+01 -0.57663000309E+01  0.42098384049E+02  0.43400733509E+02  0.00000000000E+00 0. -1.
         11    1    3    3    0    0  0.24049507218E+01  0.32221517799E+01 -0.38183381829E+01  0.55448856442E+01  0.51100000000E-03 0. -1.
        -11    1    3    3    0    0  0.81978096293E+01  0.80702496806E+01 -0.20098775277E+02  0.23158017629E+02  0.51100000000E-03 0.  1.
         12    1    3    3    0    0 -0.17653674328E+01 -0.55261014295E+01 -0.18181270589E+02  0.19084363217E+02  0.00000000000E+00 0. -1.
</event>
<event>
 7    1  0.1246400E-009  0.4778727E+02  0.7816164E-02  0.1312668E+00
        -11   -1    0    0    0    0  0.00000000000E+00  0.00000000000E+00  0.45593999997E+02  0.45594000000E+02  0.51100000000E-03 0. -1.
         11   -1    0    0    0    0 -0.00000000000E+00 -0.00000000000E+00 -0.45593999997E+02  0.45594000000E+02  0.51100000000E-03 0.  1.
    9900012    2    1    2    0    0 -0.39528449854E+02  0.17906939538E+02 -0.68276671010E+00  0.47787274179E+02  0.20000014290E+02 0.  0.
         12    1    1    2    0    0  0.39528449854E+02 -0.17906939538E+02  0.68276671010E+00  0.43400725821E+02  0.00000000000E+00 0. -1.
         11    1    3    3    0    0 -0.11624668873E+02  0.27679790628E+01  0.61957696537E+01  0.13460393619E+02  0.51100000000E-03 0. -1.
        -11    1    3    3    0    0 -0.17351427079E+02  0.32095685623E+01 -0.46217614577E+01  0.18240998637E+02  0.51100000000E-03 0.  1.
        -12    1    3    3    0    0 -0.10552353901E+02  0.11929391913E+02 -0.22567749061E+01  0.16085881923E+02  0.00000000000E+00 0.  1.
</event>
<event>
 7    1  0.1246400E-009  0.4778727E+02  0.7816164E-02  0.1312668E+00
        -11   -1    0    0    0    0  0.00000000000E+00  0.00000000000E+00  0.45593999997E+02  0.45594000000E+02  0.51100000000E-03 0.  1.
         11   -1    0    0    0    0 -0.00000000000E+00 -0.00000000000E+00 -0.45593999997E+02  0.45594000000E+02  0.51100000000E-03 0. -1.
    9900012    2    1    2    0    0  0.12032096606E+02 -0.98063743694E+01  0.40530074694E+02  0.47787270954E+02  0.19999999587E+02 0.  0.
         12    1    1    2    0    0 -0.12032096606E+02  0.98063743694E+01 -0.40530074694E+02  0.43400729046E+02  0.00000000000E+00 0. -1.
         11    1    3    3    0    0 -0.27134239321E+01 -0.15556469262E+01  0.19804575539E+01  0.37020155562E+01  0.51100000000E-03 0. -1.
        -11    1    3    3    0    0  0.13984668840E+02 -0.68503536596E+01  0.19434321974E+02  0.24903637860E+02  0.51100000000E-03 0.  1.
         12    1    3    3    0    0  0.76085169799E+00 -0.14003737837E+01  0.19115295167E+02  0.19181617537E+02  0.00000000000E+00 0. -1.
</event>
<event>
 7    1  0.1246400E-009  0.4778727E+02  0.7816164E-02  0.1312668E+00
        -11   -1    0    0    0    0  0.00000000000E+00  0.00000000000E+00  0.45593999997E+02  0.45594000000E+02  0.51100000000E-03 0.  1.
         11   -1    0    0    0    0 -0.00000000000E+00 -0.00000000000E+00 -0.45593999997E+02  0.45594000000E+02  0.51100000000E-03 0. -1.
    9900012    2    1    2    0    0 -0.17721365879E+02  0.10039770758E+02  0.38324656917E+02  0.47787272664E+02  0.20000007383E+02 0.  0.
         12    1    1    2    0    0  0.17721365879E+02 -0.10039770758E+02 -0.38324656917E+02  0.43400727336E+02  0.00000000000E+00 0. -1.
         11    1    3    3    0    0 -0.90827933947E+01  0.13507010743E+01  0.21660621426E+02  0.23526666786E+02  0.51100000000E-03 0. -1.
        -11    1    3    3    0    0 -0.11035155156E+02  0.66782408682E+01  0.83193823488E+01  0.15348800388E+02  0.51100000000E-03 0.  1.
         12    1    3    3    0    0  0.23965826713E+01  0.20108288154E+01  0.83446531428E+01  0.89118054904E+01  0.00000000000E+00 0. -1.
</event>
<event>
 7    1  0.1246400E-009  0.4778727E+02  0.7816164E-02  0.1312668E+00
        -11   -1    0    0    0    0  0.00000000000E+00  0.00000000000E+00  0.45593999997E+02  0.45594000000E+02  0.51100000000E-03 0.  1.
         11   -1    0    0    0    0 -0.00000000000E+00 -0.00000000000E+00 -0.45593999997E+02  0.45594000000E+02  0.51100000000E-03 0. -1.
    9900012    2    1    2    0    0 -0.23238283137E+02  0.34027879773E+02  0.13627506383E+02  0.47787270338E+02  0.19999996777E+02 0.  0.
         12    1    1    2    0    0  0.23238283137E+02 -0.34027879773E+02 -0.13627506383E+02  0.43400729662E+02  0.00000000000E+00 0. -1.
         11    1    3    3    0    0 -0.14905845152E+02  0.11034072144E+02  0.45738032568E+01  0.19101168663E+02  0.51100000000E-03 0. -1.
        -11    1    3    3    0    0 -0.24390981430E+01  0.11727636725E+02  0.10448668222E+02  0.15895324179E+02  0.51100000000E-03 0.  1.
         12    1    3    3    0    0 -0.58933398421E+01  0.11266170903E+02 -0.13949650950E+01  0.12790777495E+02  0.00000000000E+00 0. -1.
</event>
<event>
 7    1  0.1246400E-009  0.4778727E+02  0.7816164E-02  0.1312668E+00
        -11   -1    0    0    0    0  0.00000000000E+00  0.00000000000E+00  0.45593999997E+02  0.45594000000E+02  0.51100000000E-03 0. -1.
         11   -1    0    0    0    0 -0.00000000000E+00 -0.00000000000E+00 -0.45593999997E+02  0.45594000000E+02  0.51100000000E-03 0.  1.
    9900012    2    1    2    0    0  0.27058141884E+02  0.61900910409E+01 -0.33364098011E+02  0.47787270682E+02  0.19999998346E+02 0.  0.
         12    1    1    2    0    0 -0.27058141884E+02 -0.61900910409E+01  0.33364098011E+02  0.43400729318E+02  0.00000000000E+00 0. -1.
         11    1    3    3    0    0  0.48696650009E+01 -0.59644870833E+00  0.64943865339E+00  0.49488543228E+01  0.51100000000E-03 0. -1.
        -11    1    3    3    0    0  0.55912539379E+01 -0.52040956629E+00 -0.18455224356E+01  0.59109136381E+01  0.51100000000E-03 0.  1.
         12    1    3    3    0    0  0.16597222945E+02  0.73069493155E+01 -0.32168014228E+02  0.36927502721E+02  0.00000000000E+00 0. -1.
</event>
<event>
 7    1  0.1246400E-009  0.4778727E+02  0.7816164E-02  0.1312668E+00
        -11   -1    0    0    0    0  0.00000000000E+00  0.00000000000E+00  0.45593999997E+02  0.45594000000E+02  0.51100000000E-03 0. -1.
         11   -1    0    0    0    0 -0.00000000000E+00 -0.00000000000E+00 -0.45593999997E+02  0.45594000000E+02  0.51100000000E-03 0.  1.
    9900012    2    1    2    0    0 -0.82318401343E+01  0.19727777455E+02 -0.37771352757E+02  0.47787268619E+02  0.19999988942E+02 0.  0.
         12    1    1    2    0    0  0.82318401343E+01 -0.19727777455E+02  0.37771352757E+02  0.43400731381E+02  0.00000000000E+00 0. -1.
         11    1    3    3    0    0  0.28862751631E+01  0.84536346631E+01 -0.12944948416E+02  0.15727880121E+02  0.51100000000E-03 0. -1.
        -11    1    3    3    0    0 -0.12589063959E+02  0.97365941983E+01 -0.25290654541E+02  0.29881482649E+02  0.51100000000E-03 0.  1.
         12    1    3    3    0    0  0.14709486611E+01  0.15375485933E+01  0.46425019988E+00  0.21779058493E+01  0.00000000000E+00 0. -1.
</event>
<event>
 7    1  0.1246400E-009  0.4778727E+02  0.7816164E-02  0.1312668E+00
        -11   -1    0    0    0    0  0.00000000000E+00  0.00000000000E+00  0.45593999997E+02  0.45594000000E+02  0.51100000000E-03 0. -1.
         11   -1    0    0    0    0 -0.00000000000E+00 -0.00000000000E+00 -0.45593999997E+02  0.45594000000E+02  0.51100000000E-03 0.  1.
    9900012    2    1    2    0    0 -0.29537630633E+02 -0.52125690286E+01 -0.31368471302E+02  0.47787268542E+02  0.19999988590E+02 0.  0.
         12    1    1    2    0    0  0.29537630633E+02  0.52125690286E+01  0.31368471302E+02  0.43400731458E+02  0.00000000000E+00 0. -1.
         11    1    3    3    0    0 -0.13112180700E+02  0.57308055123E+01 -0.81855114232E+01  0.16485569813E+02  0.51100000000E-03 0. -1.
        -11    1    3    3    0    0 -0.11615755002E+02 -0.39398688117E+01 -0.11181837759E+02  0.16597645208E+02  0.51100000000E-03 0.  1.
         12    1    3    3    0    0 -0.48096949304E+01 -0.70035057292E+01 -0.12001122119E+02  0.14704053521E+02  0.00000000000E+00 0. -1.
</event>
<event>
 7    1  0.1246400E-009  0.4778724E+02  0.7816164E-02  0.1312668E+00
        -11   -1    0    0    0    0  0.00000000000E+00  0.00000000000E+00  0.45593999997E+02  0.45594000000E+02  0.51100000000E-03 0. -1.
         11   -1    0    0    0    0 -0.00000000000E+00 -0.00000000000E+00 -0.45593999997E+02  0.45594000000E+02  0.51100000000E-03 0.  1.
    9900012    2    1    2    0    0 -0.33739621177E+02  0.26958253491E+02  0.43030841704E+01  0.47787239617E+02  0.19999856709E+02 0.  0.
         12    1    1    2    0    0  0.33739621177E+02 -0.26958253491E+02 -0.43030841704E+01  0.43400760383E+02  0.00000000000E+00 0. -1.
         11    1    3    3    0    0 -0.10841908412E+02  0.57269726124E+01  0.86270269621E+01  0.14992357646E+02  0.51100000000E-03 0. -1.
        -11    1    3    3    0    0 -0.15326092698E+02  0.81152596006E+01 -0.17073729455E+01  0.17425891036E+02  0.51100000000E-03 0.  1.
         12    1    3    3    0    0 -0.75716200679E+01  0.13116021278E+02 -0.26165698462E+01  0.15368990935E+02  0.00000000000E+00 0. -1.
</event>
<event>
 7    1  0.1246400E-009  0.4778727E+02  0.7816164E-02  0.1312668E+00
        -11   -1    0    0    0    0  0.00000000000E+00  0.00000000000E+00  0.45593999997E+02  0.45594000000E+02  0.51100000000E-03 0.  1.
         11   -1    0    0    0    0 -0.00000000000E+00 -0.00000000000E+00 -0.45593999997E+02  0.45594000000E+02  0.51100000000E-03 0. -1.
    9900012    2    1    2    0    0 -0.77332908529E+01  0.40634990300E+02 -0.13138392810E+02  0.47787267406E+02  0.19999983409E+02 0.  0.
         12    1    1    2    0    0  0.77332908529E+01 -0.40634990300E+02  0.13138392810E+02  0.43400732594E+02  0.00000000000E+00 0. -1.
         11    1    3    3    0    0  0.19316081742E+01  0.41692810033E+01 -0.41802489437E+01  0.62119639178E+01  0.51100000000E-03 0. -1.
        -11    1    3    3    0    0 -0.29017423089E+01  0.27910777289E+02 -0.10073372247E+01  0.28079286419E+02  0.51100000000E-03 0.  1.
        -12    1    3    3    0    0 -0.67631567181E+01  0.85549320080E+01 -0.79508066418E+01  0.13496017068E+02  0.00000000000E+00 0.  1.
</event>
<event>
 7    1  0.1246400E-009  0.4778726E+02  0.7816164E-02  0.1312668E+00
        -11   -1    0    0    0    0  0.00000000000E+00  0.00000000000E+00  0.45593999997E+02  0.45594000000E+02  0.51100000000E-03 0.  1.
         11   -1    0    0    0    0 -0.00000000000E+00 -0.00000000000E+00 -0.45593999997E+02  0.45594000000E+02  0.51100000000E-03 0. -1.
    9900012    2    1    2    0    0 -0.13712952995E+02 -0.60454512580E+01  0.40731214807E+02  0.47787257836E+02  0.19999939777E+02 0.  0.
         12    1    1    2    0    0  0.13712952995E+02  0.60454512580E+01 -0.40731214807E+02  0.43400742164E+02  0.00000000000E+00 0. -1.
         11    1    3    3    0    0 -0.57092378133E+01  0.47536292994E+01  0.20789641602E+02  0.22077173418E+02  0.51100000000E-03 0. -1.
        -11    1    3    3    0    0 -0.50821774071E+01 -0.88980491740E+01  0.19712712028E+02  0.22216993992E+02  0.51100000000E-03 0.  1.
        -12    1    3    3    0    0 -0.29215377741E+01 -0.19010313834E+01  0.22886117773E+00  0.34930904261E+01  0.00000000000E+00 0.  1.
</event>
<event>
 7    1  0.1246400E-009  0.4778722E+02  0.7816164E-02  0.1312668E+00
        -11   -1    0    0    0    0  0.00000000000E+00  0.00000000000E+00  0.45593999997E+02  0.45594000000E+02  0.51100000000E-03 0.  1.
         11   -1    0    0    0    0 -0.00000000000E+00 -0.00000000000E+00 -0.45593999997E+02  0.45594000000E+02  0.51100000000E-03 0. -1.
    9900012    2    1    2    0    0  0.23956190991E+02 -0.31363228943E+02  0.18057598739E+02  0.47787215574E+02  0.19999747088E+02 0.  0.
         12    1    1    2    0    0 -0.23956190991E+02  0.31363228943E+02 -0.18057598739E+02  0.43400784426E+02  0.00000000000E+00 0. -1.
         11    1    3    3    0    0  0.27428290786E+01  0.70367065271E+00  0.80851257299E+00  0.29448185994E+01  0.51100000000E-03 0. -1.
        -11    1    3    3    0    0  0.17884891760E+02 -0.33203031970E+02  0.14606841281E+02  0.40443423418E+02  0.51100000000E-03 0.  1.
        -12    1    3    3    0    0  0.33284701521E+01  0.11361323739E+01  0.26422448853E+01  0.43989735574E+01  0.00000000000E+00 0.  1.
</event>
<event>
 7    1  0.1246400E-009  0.4778727E+02  0.7816164E-02  0.1312668E+00
        -11   -1    0    0    0    0  0.00000000000E+00  0.00000000000E+00  0.45593999997E+02  0.45594000000E+02  0.51100000000E-03 0. -1.
         11   -1    0    0    0    0 -0.00000000000E+00 -0.00000000000E+00 -0.45593999997E+02  0.45594000000E+02  0.51100000000E-03 0.  1.
    9900012    2    1    2    0    0  0.36319586130E+02 -0.24002654421E+01 -0.23637891949E+02  0.47787267903E+02  0.19999985675E+02 0.  0.
         12    1    1    2    0    0 -0.36319586130E+02  0.24002654421E+01  0.23637891949E+02  0.43400732097E+02  0.00000000000E+00 0. -1.
         11    1    3    3    0    0  0.30309995888E+02 -0.49539454495E+00 -0.15788988119E+02  0.34179429670E+02  0.51100000000E-03 0. -1.
        -11    1    3    3    0    0  0.36633058880E+01  0.35015812479E+01 -0.47655264473E+01  0.69563728944E+01  0.51100000000E-03 0.  1.
        -12    1    3    3    0    0  0.23462843539E+01 -0.54064521451E+01 -0.30833773828E+01  0.66514653386E+01  0.00000000000E+00 0.  1.
</event>
<event>
 7    1  0.1246400E-009  0.4778727E+02  0.7816164E-02  0.1312668E+00
        -11   -1    0    0    0    0  0.00000000000E+00  0.00000000000E+00  0.45593999997E+02  0.45594000000E+02  0.51100000000E-03 0.  1.
         11   -1    0    0    0    0 -0.00000000000E+00 -0.00000000000E+00 -0.45593999997E+02  0.45594000000E+02  0.51100000000E-03 0. -1.
    9900012    2    1    2    0    0 -0.25900287752E+02 -0.27935936668E+02 -0.20793788073E+02  0.47787273214E+02  0.20000009891E+02 0.  0.
         12    1    1    2    0    0  0.25900287752E+02  0.27935936668E+02  0.20793788073E+02  0.43400726786E+02  0.00000000000E+00 0. -1.
         11    1    3    3    0    0 -0.30638663783E+01 -0.35415178739E+01  0.25691053535E+01  0.53413414620E+01  0.51100000000E-03 0.  1.
        -11    1    3    3    0    0 -0.21792928132E+01 -0.77810361092E+01 -0.18094811942E+01  0.82805834668E+01  0.51100000000E-03 0. -1.
        -12    1    3    3    0    0 -0.20657128561E+02 -0.16613382685E+02 -0.21553412232E+02  0.34165348285E+02  0.00000000000E+00 0.  1.
</event>
<event>
 7    1  0.1246400E-009  0.4778727E+02  0.7816164E-02  0.1312668E+00
        -11   -1    0    0    0    0  0.00000000000E+00  0.00000000000E+00  0.45593999997E+02  0.45594000000E+02  0.51100000000E-03 0. -1.
         11   -1    0    0    0    0 -0.00000000000E+00 -0.00000000000E+00 -0.45593999997E+02  0.45594000000E+02  0.51100000000E-03 0.  1.
    9900012    2    1    2    0    0 -0.19433912632E+02 -0.29735991681E+02  0.24934255024E+02  0.47787271491E+02  0.20000002037E+02 0.  0.
         12    1    1    2    0    0  0.19433912632E+02  0.29735991681E+02 -0.24934255024E+02  0.43400728509E+02  0.00000000000E+00 0. -1.
         11    1    3    3    0    0  0.13387250694E+01 -0.11370514267E+02  0.13424866030E+02  0.17643917017E+02  0.51100000000E-03 0.  1.
        -11    1    3    3    0    0 -0.81211153689E+01 -0.73933858607E+01  0.59953326690E+01  0.12512341243E+02  0.51100000000E-03 0. -1.
        -12    1    3    3    0    0 -0.12651522333E+02 -0.10972091553E+02  0.55140563253E+01  0.17631013231E+02  0.00000000000E+00 0.  1.
</event>
<event>
 7    1  0.1246400E-009  0.4778728E+02  0.7816164E-02  0.1312668E+00
        -11   -1    0    0    0    0  0.00000000000E+00  0.00000000000E+00  0.45593999997E+02  0.45594000000E+02  0.51100000000E-03 0.  1.
         11   -1    0    0    0    0 -0.00000000000E+00 -0.00000000000E+00 -0.45593999997E+02  0.45594000000E+02  0.51100000000E-03 0. -1.
    9900012    2    1    2    0    0  0.34120876765E+01  0.40826902420E+02  0.14322866234E+02  0.47787276496E+02  0.20000024854E+02 0.  0.
         12    1    1    2    0    0 -0.34120876765E+01 -0.40826902420E+02 -0.14322866234E+02  0.43400723504E+02  0.00000000000E+00 0. -1.
         11    1    3    3    0    0  0.89725100210E+01  0.90825262019E+01  0.42922286953E+01  0.13469277847E+02  0.51100000000E-03 0. -1.
        -11    1    3    3    0    0 -0.55230290256E+00  0.20173587237E+02  0.54564114067E+01  0.20905766817E+02  0.51100000000E-03 0.  1.
         12    1    3    3    0    0 -0.50081194419E+01  0.11570788981E+02  0.45742261321E+01  0.13412231832E+02  0.00000000000E+00 0. -1.
</event>
<event>
 7    1  0.1246400E-009  0.4778728E+02  0.7816164E-02  0.1312668E+00
        -11   -1    0    0    0    0  0.00000000000E+00  0.00000000000E+00  0.45593999997E+02  0.45594000000E+02  0.51100000000E-03 0. -1.
         11   -1    0    0    0    0 -0.00000000000E+00 -0.00000000000E+00 -0.45593999997E+02  0.45594000000E+02  0.51100000000E-03 0.  1.
    9900012    2    1    2    0    0  0.35648494957E+01 -0.41807195307E+02 -0.11093832887E+02  0.47787275818E+02  0.20000021765E+02 0.  0.
         12    1    1    2    0    0 -0.35648494957E+01  0.41807195307E+02  0.11093832887E+02  0.43400724182E+02  0.00000000000E+00 0. -1.
         11    1    3    3    0    0  0.49151429275E+01 -0.95917168572E+01 -0.74371869603E+01  0.13094709329E+02  0.51100000000E-03 0. -1.
        -11    1    3    3    0    0 -0.10052135697E+01 -0.35162132281E+01  0.35537836286E+01  0.50993713461E+01  0.51100000000E-03 0.  1.
         12    1    3    3    0    0 -0.34507986205E+00 -0.28699265222E+02 -0.72104295549E+01  0.29593195143E+02  0.00000000000E+00 0. -1.
</event>
<event>
 7    1  0.1246400E-009  0.4778728E+02  0.7816164E-02  0.1312668E+00
        -11   -1    0    0    0    0  0.00000000000E+00  0.00000000000E+00  0.45593999997E+02  0.45594000000E+02  0.51100000000E-03 0.  1.
         11   -1    0    0    0    0 -0.00000000000E+00 -0.00000000000E+00 -0.45593999997E+02  0.45594000000E+02  0.51100000000E-03 0. -1.
    9900012    2    1    2    0    0  0.41152462895E+01  0.11151577946E+02  0.41741226388E+02  0.47787275086E+02  0.20000018426E+02 0.  0.
         12    1    1    2    0    0 -0.41152462895E+01 -0.11151577946E+02 -0.41741226388E+02  0.43400724914E+02  0.00000000000E+00 0. -1.
         11    1    3    3    0    0  0.82913599909E+00  0.17176673544E-01  0.13959322951E+02  0.13983935750E+02  0.51100000000E-03 0. -1.
        -11    1    3    3    0    0  0.88195018466E+00  0.14673730403E+02  0.18893095173E+02  0.23938363468E+02  0.51100000000E-03 0.  1.
         12    1    3    3    0    0  0.24041601058E+01 -0.35393291311E+01  0.88888082644E+01  0.98649758678E+01  0.00000000000E+00 0. -1.
</event>
<event>
 7    1  0.1246400E-009  0.4778727E+02  0.7816164E-02  0.1312668E+00
        -11   -1    0    0    0    0  0.00000000000E+00  0.00000000000E+00  0.45593999997E+02  0.45594000000E+02  0.51100000000E-03 0.  1.
         11   -1    0    0    0    0 -0.00000000000E+00 -0.00000000000E+00 -0.45593999997E+02  0.45594000000E+02  0.51100000000E-03 0. -1.
    9900012    2    1    2    0    0  0.10047702992E+02  0.20632580689E+02  0.36836987206E+02  0.47787270193E+02  0.19999996120E+02 0.  0.
         12    1    1    2    0    0 -0.10047702992E+02 -0.20632580689E+02 -0.36836987206E+02  0.43400729807E+02  0.00000000000E+00 0. -1.
         11    1    3    3    0    0  0.45146723822E+01  0.68441053578E+01  0.10305178342E+01  0.82635350870E+01  0.51100000000E-03 0. -1.
        -11    1    3    3    0    0  0.65416940213E+01  0.86612380401E+01  0.18536532140E+02  0.21480545363E+02  0.51100000000E-03 0.  1.
        -12    1    3    3    0    0 -0.10086634113E+01  0.51272372911E+01  0.17269937232E+02  0.18043189744E+02  0.00000000000E+00 0.  1.
</event>
<event>
 7    1  0.1246400E-009  0.4778726E+02  0.7816164E-02  0.1312668E+00
        -11   -1    0    0    0    0  0.00000000000E+00  0.00000000000E+00  0.45593999997E+02  0.45594000000E+02  0.51100000000E-03 0. -1.
         11   -1    0    0    0    0 -0.00000000000E+00 -0.00000000000E+00 -0.45593999997E+02  0.45594000000E+02  0.51100000000E-03 0.  1.
    9900012    2    1    2    0    0  0.41329890834E+02  0.81876094353E+01  0.10412854657E+02  0.47787258455E+02  0.19999942598E+02 0.  0.
         12    1    1    2    0    0 -0.41329890834E+02 -0.81876094353E+01 -0.10412854657E+02  0.43400741545E+02  0.00000000000E+00 0. -1.
         11    1    3    3    0    0 -0.82020594831E+00 -0.29509625312E+00  0.10719329949E+01  0.13816150704E+01  0.51100000000E-03 0. -1.
        -11    1    3    3    0    0  0.32376981831E+02  0.80913507238E+00  0.10186397636E+02  0.33951234869E+02  0.51100000000E-03 0.  1.
        -12    1    3    3    0    0  0.97731149509E+01  0.76735706160E+01 -0.84547597412E+00  0.12454408515E+02  0.00000000000E+00 0.  1.
</event>
<event>
 7    1  0.1246400E-009  0.4778727E+02  0.7816164E-02  0.1312668E+00
        -11   -1    0    0    0    0  0.00000000000E+00  0.00000000000E+00  0.45593999997E+02  0.45594000000E+02  0.51100000000E-03 0.  1.
         11   -1    0    0    0    0 -0.00000000000E+00 -0.00000000000E+00 -0.45593999997E+02  0.45594000000E+02  0.51100000000E-03 0. -1.
    9900012    2    1    2    0    0  0.16167579807E+02  0.15925932672E+02  0.36994555462E+02  0.47787273023E+02  0.20000009023E+02 0.  0.
         12    1    1    2    0    0 -0.16167579807E+02 -0.15925932672E+02 -0.36994555462E+02  0.43400726977E+02  0.00000000000E+00 0. -1.
         11    1    3    3    0    0  0.15589422705E+01  0.87849594307E+01  0.27025392610E+01  0.93225281936E+01  0.51100000000E-03 0. -1.
        -11    1    3    3    0    0  0.78119273233E+01  0.26869263124E+01  0.10736057553E+02  0.13546538803E+02  0.51100000000E-03 0.  1.
         12    1    3    3    0    0  0.67967102136E+01  0.44540469288E+01  0.23555958648E+02  0.24918206026E+02  0.00000000000E+00 0. -1.
</event>
<event>
 7    1  0.1246400E-009  0.4778727E+02  0.7816164E-02  0.1312668E+00
        -11   -1    0    0    0    0  0.00000000000E+00  0.00000000000E+00  0.45593999997E+02  0.45594000000E+02  0.51100000000E-03 0. -1.
         11   -1    0    0    0    0 -0.00000000000E+00 -0.00000000000E+00 -0.45593999997E+02  0.45594000000E+02  0.51100000000E-03 0.  1.
    9900012    2    1    2    0    0 -0.15539156420E+02 -0.65151766410E+01 -0.39996379979E+02  0.47787270510E+02  0.19999997562E+02 0.  0.
         12    1    1    2    0    0  0.15539156420E+02  0.65151766410E+01  0.39996379979E+02  0.43400729490E+02  0.00000000000E+00 0. -1.
         11    1    3    3    0    0 -0.78923042520E+00 -0.47935831168E+01 -0.85874884087E+01  0.98664219042E+01  0.51100000000E-03 0. -1.
        -11    1    3    3    0    0 -0.11692392355E+02  0.55747586752E+01 -0.15880731319E+02  0.20493599019E+02  0.51100000000E-03 0.  1.
        -12    1    3    3    0    0 -0.30575336393E+01 -0.72963521994E+01 -0.15528160251E+02  0.17427249586E+02  0.00000000000E+00 0.  1.
</event>
<event>
 7    1  0.1246400E-009  0.4778727E+02  0.7816164E-02  0.1312668E+00
        -11   -1    0    0    0    0  0.00000000000E+00  0.00000000000E+00  0.45593999997E+02  0.45594000000E+02  0.51100000000E-03 0.  1.
         11   -1    0    0    0    0 -0.00000000000E+00 -0.00000000000E+00 -0.45593999997E+02  0.45594000000E+02  0.51100000000E-03 0. -1.
    9900012    2    1    2    0    0 -0.26768663822E+02 -0.24608770269E+02 -0.23695368497E+02  0.47787269301E+02  0.19999992050E+02 0.  0.
         12    1    1    2    0    0  0.26768663822E+02  0.24608770269E+02  0.23695368497E+02  0.43400730699E+02  0.00000000000E+00 0. -1.
         11    1    3    3    0    0 -0.15453189424E+02 -0.26216713603E+01 -0.54892230425E+01  0.16607401783E+02  0.51100000000E-03 0. -1.
        -11    1    3    3    0    0 -0.85110849966E+01 -0.10811011368E+02 -0.10670492688E+02  0.17411948458E+02  0.51100000000E-03 0.  1.
         12    1    3    3    0    0 -0.28043894013E+01 -0.11176087541E+02 -0.75356527671E+01  0.13767919060E+02  0.00000000000E+00 0. -1.
</event>
<event>
 7    1  0.1246400E-009  0.4778727E+02  0.7816164E-02  0.1312668E+00
        -11   -1    0    0    0    0  0.00000000000E+00  0.00000000000E+00  0.45593999997E+02  0.45594000000E+02  0.51100000000E-03 0.  1.
         11   -1    0    0    0    0 -0.00000000000E+00 -0.00000000000E+00 -0.45593999997E+02  0.45594000000E+02  0.51100000000E-03 0. -1.
    9900012    2    1    2    0    0  0.14270771341E+02  0.40389080157E+02 -0.69778637606E+01  0.47787270822E+02  0.19999998984E+02 0.  0.
         12    1    1    2    0    0 -0.14270771341E+02 -0.40389080157E+02  0.69778637606E+01  0.43400729178E+02  0.00000000000E+00 0. -1.
         11    1    3    3    0    0 -0.32955296171E+00  0.18046636878E+02 -0.53146240740E+01  0.18815816142E+02  0.51100000000E-03 0. -1.
        -11    1    3    3    0    0  0.58808670500E+01  0.18377017247E+02 -0.19108481712E+01  0.19389448191E+02  0.51100000000E-03 0.  1.
         12    1    3    3    0    0  0.87194572524E+01  0.39654260312E+01  0.24760848464E+00  0.95820064886E+01  0.00000000000E+00 0. -1.
</event>
<event>
 7    1  0.1246400E-009  0.4778727E+02  0.7816164E-02  0.1312668E+00
        -11   -1    0    0    0    0  0.00000000000E+00  0.00000000000E+00  0.45593999997E+02  0.45594000000E+02  0.51100000000E-03 0.  1.
         11   -1    0    0    0    0 -0.00000000000E+00 -0.00000000000E+00 -0.45593999997E+02  0.45594000000E+02  0.51100000000E-03 0. -1.
    9900012    2    1    2    0    0 -0.43041887155E+02 -0.43286962866E+01  0.35045502842E+01  0.47787268047E+02  0.19999986332E+02 0.  0.
         12    1    1    2    0    0  0.43041887155E+02  0.43286962866E+01 -0.35045502842E+01  0.43400731953E+02  0.00000000000E+00 0. -1.
         11    1    3    3    0    0 -0.14875300397E+01  0.24639416585E+01 -0.35778079053E+00  0.29003036860E+01  0.51100000000E-03 0. -1.
        -11    1    3    3    0    0 -0.12906318276E+02  0.40514939024E+01 -0.20737488941E+01  0.13685323855E+02  0.51100000000E-03 0.  1.
         12    1    3    3    0    0 -0.28648038839E+02 -0.10844131848E+02  0.59360799688E+01  0.31201640506E+02  0.00000000000E+00 0. -1.
</event>
<event>
 7    1  0.1246400E-009  0.4778725E+02  0.7816164E-02  0.1312668E+00
        -11   -1    0    0    0    0  0.00000000000E+00  0.00000000000E+00  0.45593999997E+02  0.45594000000E+02  0.51100000000E-03 0. -1.
         11   -1    0    0    0    0 -0.00000000000E+00 -0.00000000000E+00 -0.45593999997E+02  0.45594000000E+02  0.51100000000E-03 0.  1.
    9900012    2    1    2    0    0 -0.27261075081E+02  0.29107904311E+02 -0.17122765004E+02  0.47787246673E+02  0.19999888882E+02 0.  0.
         12    1    1    2    0    0  0.27261075081E+02 -0.29107904311E+02  0.17122765004E+02  0.43400753327E+02  0.00000000000E+00 0. -1.
         11    1    3    3    0    0 -0.76521495081E+01  0.36102883474E+01 -0.54009594317E+01  0.10037924939E+02  0.51100000000E-03 0. -1.
        -11    1    3    3    0    0 -0.20705102449E+02  0.15597518533E+02 -0.84934306848E+01  0.27278603646E+02  0.51100000000E-03 0.  1.
         12    1    3    3    0    0  0.10961768757E+01  0.99000974300E+01 -0.32283748875E+01  0.10470718088E+02  0.00000000000E+00 0. -1.
</event>
<event>
 7    1  0.1246400E-009  0.4778727E+02  0.7816164E-02  0.1312668E+00
        -11   -1    0    0    0    0  0.00000000000E+00  0.00000000000E+00  0.45593999997E+02  0.45594000000E+02  0.51100000000E-03 0.  1.
         11   -1    0    0    0    0 -0.00000000000E+00 -0.00000000000E+00 -0.45593999997E+02  0.45594000000E+02  0.51100000000E-03 0. -1.
    9900012    2    1    2    0    0  0.31443941400E+02  0.16956190434E+02  0.24645269364E+02  0.47787272508E+02  0.20000006675E+02 0.  0.
         12    1    1    2    0    0 -0.31443941400E+02 -0.16956190434E+02 -0.24645269364E+02  0.43400727492E+02  0.00000000000E+00 0. -1.
         11    1    3    3    0    0  0.19634277515E-01  0.22908103841E+01  0.39274362622E+00  0.23243161441E+01  0.51100000000E-03 0. -1.
        -11    1    3    3    0    0  0.83468341547E+01 -0.52354788727E+00  0.13368405270E+02  0.15768893510E+02  0.51100000000E-03 0.  1.
         12    1    3    3    0    0  0.23077472968E+02  0.15188927937E+02  0.10884120467E+02  0.29694062854E+02  0.00000000000E+00 0. -1.
</event>
<event>
 7    1  0.1246400E-009  0.4778728E+02  0.7816164E-02  0.1312668E+00
        -11   -1    0    0    0    0  0.00000000000E+00  0.00000000000E+00  0.45593999997E+02  0.45594000000E+02  0.51100000000E-03 0.  1.
         11   -1    0    0    0    0 -0.00000000000E+00 -0.00000000000E+00 -0.45593999997E+02  0.45594000000E+02  0.51100000000E-03 0. -1.
    9900012    2    1    2    0    0 -0.52584768464E+01 -0.32835720683E+02  0.27888828544E+02  0.47787275477E+02  0.20000020212E+02 0.  0.
         12    1    1    2    0    0  0.52584768464E+01  0.32835720683E+02 -0.27888828544E+02  0.43400724523E+02  0.00000000000E+00 0. -1.
         11    1    3    3    0    0  0.59002557230E+01 -0.19023661015E+02  0.19035574654E+02  0.27551148772E+02  0.51100000000E-03 0.  1.
        -11    1    3    3    0    0 -0.27753722636E+01 -0.56536729303E+01  0.16964149254E+01  0.65226170104E+01  0.51100000000E-03 0. -1.
        -12    1    3    3    0    0 -0.83833603058E+01 -0.81583867373E+01  0.71568389655E+01  0.13713509695E+02  0.00000000000E+00 0.  1.
</event>
<event>
 7    1  0.1246400E-009  0.4778727E+02  0.7816164E-02  0.1312668E+00
        -11   -1    0    0    0    0  0.00000000000E+00  0.00000000000E+00  0.45593999997E+02  0.45594000000E+02  0.51100000000E-03 0. -1.
         11   -1    0    0    0    0 -0.00000000000E+00 -0.00000000000E+00 -0.45593999997E+02  0.45594000000E+02  0.51100000000E-03 0.  1.
    9900012    2    1    2    0    0  0.23638305159E+02 -0.28880873152E+02 -0.22152858686E+02  0.47787268983E+02  0.19999990603E+02 0.  0.
         12    1    1    2    0    0 -0.23638305159E+02  0.28880873152E+02  0.22152858686E+02  0.43400731017E+02  0.00000000000E+00 0. -1.
         11    1    3    3    0    0  0.79984591413E+01 -0.12463530374E+02 -0.10723808597E+00  0.14809673807E+02  0.51100000000E-03 0. -1.
        -11    1    3    3    0    0  0.25706561757E+00 -0.52408651184E+01 -0.68998926744E+01  0.86684063760E+01  0.51100000000E-03 0.  1.
         12    1    3    3    0    0  0.15382780400E+02 -0.11176477660E+02 -0.15145727926E+02  0.24309188800E+02  0.00000000000E+00 0. -1.
</event>
<event>
 7    1  0.1246400E-009  0.4778727E+02  0.7816164E-02  0.1312668E+00
        -11   -1    0    0    0    0  0.00000000000E+00  0.00000000000E+00  0.45593999997E+02  0.45594000000E+02  0.51100000000E-03 0.  1.
         11   -1    0    0    0    0 -0.00000000000E+00 -0.00000000000E+00 -0.45593999997E+02  0.45594000000E+02  0.51100000000E-03 0. -1.
    9900012    2    1    2    0    0  0.28572867658E+02 -0.31553409434E+02  0.84614935566E+01  0.47787270901E+02  0.19999999346E+02 0.  0.
         12    1    1    2    0    0 -0.28572867658E+02  0.31553409434E+02 -0.84614935566E+01  0.43400729099E+02  0.00000000000E+00 0. -1.
         11    1    3    3    0    0  0.70063598743E+01  0.17274823753E-01 -0.24377965503E+00  0.70106209347E+01  0.51100000000E-03 0. -1.
        -11    1    3    3    0    0  0.78968950664E+01 -0.21053018598E+02  0.63804454009E+01  0.23373074842E+02  0.51100000000E-03 0.  1.
         12    1    3    3    0    0  0.13669612717E+02 -0.10517665660E+02  0.23248278107E+01  0.17403575125E+02  0.00000000000E+00 0. -1.
</event>
<event>
 7    1  0.1246400E-009  0.4778728E+02  0.7816164E-02  0.1312668E+00
        -11   -1    0    0    0    0  0.00000000000E+00  0.00000000000E+00  0.45593999997E+02  0.45594000000E+02  0.51100000000E-03 0. -1.
         11   -1    0    0    0    0 -0.00000000000E+00 -0.00000000000E+00 -0.45593999997E+02  0.45594000000E+02  0.51100000000E-03 0.  1.
    9900012    2    1    2    0    0 -0.24014530775E+02 -0.12229641302E+02 -0.34020003540E+02  0.47787280471E+02  0.20000042981E+02 0.  0.
         12    1    1    2    0    0  0.24014530775E+02  0.12229641302E+02  0.34020003540E+02  0.43400719529E+02  0.00000000000E+00 0. -1.
         11    1    3    3    0    0 -0.67088538441E+01  0.93570830072E+00 -0.30636274441E+01  0.74343852000E+01  0.51100000000E-03 0. -1.
        -11    1    3    3    0    0 -0.17178431009E+02 -0.10223906980E+02 -0.31549388259E+02  0.37349573835E+02  0.51100000000E-03 0.  1.
        -12    1    3    3    0    0 -0.12724592240E+00 -0.29414426225E+01  0.59301216267E+00  0.30033214366E+01  0.00000000000E+00 0.  1.
</event>
<event>
 7    1  0.1246400E-009  0.4778727E+02  0.7816164E-02  0.1312668E+00
        -11   -1    0    0    0    0  0.00000000000E+00  0.00000000000E+00  0.45593999997E+02  0.45594000000E+02  0.51100000000E-03 0.  1.
         11   -1    0    0    0    0 -0.00000000000E+00 -0.00000000000E+00 -0.45593999997E+02  0.45594000000E+02  0.51100000000E-03 0. -1.
    9900012    2    1    2    0    0 -0.27391916929E+02 -0.30793215057E+02  0.13604555427E+02  0.47787272645E+02  0.20000007298E+02 0.  0.
         12    1    1    2    0    0  0.27391916929E+02  0.30793215057E+02 -0.13604555427E+02  0.43400727355E+02  0.00000000000E+00 0. -1.
         11    1    3    3    0    0 -0.84200936056E+01 -0.16091894947E+02  0.33465880297E+00  0.18164775145E+02  0.51100000000E-03 0. -1.
        -11    1    3    3    0    0 -0.73015079154E+01 -0.94266303148E+01  0.11724947935E+02  0.16722672671E+02  0.51100000000E-03 0.  1.
         12    1    3    3    0    0 -0.11670315408E+02 -0.52746897955E+01  0.15449486887E+01  0.12899824828E+02  0.00000000000E+00 0. -1.
</event>
<event>
 7    1  0.1246400E-009  0.4778727E+02  0.7816164E-02  0.1312668E+00
        -11   -1    0    0    0    0  0.00000000000E+00  0.00000000000E+00  0.45593999997E+02  0.45594000000E+02  0.51100000000E-03 0.  1.
         11   -1    0    0    0    0 -0.00000000000E+00 -0.00000000000E+00 -0.45593999997E+02  0.45594000000E+02  0.51100000000E-03 0. -1.
    9900012    2    1    2    0    0  0.25010884881E+02 -0.12600548396E+02  0.33155765880E+02  0.47787274274E+02  0.20000014727E+02 0.  0.
         12    1    1    2    0    0 -0.25010884881E+02  0.12600548396E+02 -0.33155765880E+02  0.43400725726E+02  0.00000000000E+00 0. -1.
         11    1    3    3    0    0 -0.35163017831E+00  0.11848090824E+00 -0.19716578870E+01  0.20062693220E+01  0.51100000000E-03 0. -1.
        -11    1    3    3    0    0  0.34205284558E+01  0.72971317401E+00  0.29332652118E+01  0.45647060472E+01  0.51100000000E-03 0.  1.
        -12    1    3    3    0    0  0.21941986604E+02 -0.13448742478E+02  0.32194158555E+02  0.41216298905E+02  0.00000000000E+00 0.  1.
</event>
<event>
 7    1  0.1246400E-009  0.4778727E+02  0.7816164E-02  0.1312668E+00
        -11   -1    0    0    0    0  0.00000000000E+00  0.00000000000E+00  0.45593999997E+02  0.45594000000E+02  0.51100000000E-03 0. -1.
         11   -1    0    0    0    0 -0.00000000000E+00 -0.00000000000E+00 -0.45593999997E+02  0.45594000000E+02  0.51100000000E-03 0.  1.
    9900012    2    1    2    0    0  0.84704946678E+00 -0.42131198107E+02  0.10385953933E+02  0.47787269754E+02  0.19999994118E+02 0.  0.
         12    1    1    2    0    0 -0.84704946678E+00  0.42131198107E+02 -0.10385953933E+02  0.43400730246E+02  0.00000000000E+00 0. -1.
         11    1    3    3    0    0  0.36381332597E+01 -0.65840469025E+01 -0.33469645953E+01  0.82333382958E+01  0.51100000000E-03 0. -1.
        -11    1    3    3    0    0 -0.20144646958E+01 -0.55489760951E+00  0.89140330124E+00  0.22716908844E+01  0.51100000000E-03 0.  1.
        -12    1    3    3    0    0 -0.77661909720E+00 -0.34992253595E+02  0.12841515227E+02  0.37282240574E+02  0.00000000000E+00 0.  1.
</event>
<event>
 7    1  0.1246400E-009  0.4778726E+02  0.7816164E-02  0.1312668E+00
        -11   -1    0    0    0    0  0.00000000000E+00  0.00000000000E+00  0.45593999997E+02  0.45594000000E+02  0.51100000000E-03 0.  1.
         11   -1    0    0    0    0 -0.00000000000E+00 -0.00000000000E+00 -0.45593999997E+02  0.45594000000E+02  0.51100000000E-03 0. -1.
    9900012    2    1    2    0    0  0.34491983464E+02 -0.57435627064E+01  0.25708736013E+02  0.47787256421E+02  0.19999933325E+02 0.  0.
         12    1    1    2    0    0 -0.34491983464E+02  0.57435627064E+01 -0.25708736013E+02  0.43400743579E+02  0.00000000000E+00 0. -1.
         11    1    3    3    0    0  0.25089001478E+02 -0.24393233989E+01  0.26118976547E+02  0.36298887447E+02  0.51100000000E-03 0.  1.
        -11    1    3    3    0    0  0.93169097192E+00  0.61261740437E+00 -0.17344057289E+01  0.20619194079E+01  0.51100000000E-03 0. -1.
        -12    1    3    3    0    0  0.84712910146E+01 -0.39168567118E+01  0.13241651950E+01  0.94264495659E+01  0.00000000000E+00 0.  1.
</event>
<event>
 7    1  0.1246400E-009  0.4778728E+02  0.7816164E-02  0.1312668E+00
        -11   -1    0    0    0    0  0.00000000000E+00  0.00000000000E+00  0.45593999997E+02  0.45594000000E+02  0.51100000000E-03 0.  1.
         11   -1    0    0    0    0 -0.00000000000E+00 -0.00000000000E+00 -0.45593999997E+02  0.45594000000E+02  0.51100000000E-03 0. -1.
    9900012    2    1    2    0    0 -0.16374052828E+02  0.31086743206E+02  0.25477977828E+02  0.47787279230E+02  0.20000037320E+02 0.  0.
         12    1    1    2    0    0  0.16374052828E+02 -0.31086743206E+02 -0.25477977828E+02  0.43400720770E+02  0.00000000000E+00 0. -1.
         11    1    3    3    0    0 -0.68462092376E+01  0.30549827168E+01  0.26308957370E+01  0.79451314001E+01  0.51100000000E-03 0. -1.
        -11    1    3    3    0    0 -0.93780166602E+01  0.10254364294E+02  0.53273629155E+01  0.14882203447E+02  0.51100000000E-03 0.  1.
         12    1    3    3    0    0 -0.14982693057E+00  0.17777396196E+02  0.17519719175E+02  0.24959944383E+02  0.00000000000E+00 0. -1.
</event>
<event>
 7    1  0.1246400E-009  0.4778727E+02  0.7816164E-02  0.1312668E+00
        -11   -1    0    0    0    0  0.00000000000E+00  0.00000000000E+00  0.45593999997E+02  0.45594000000E+02  0.51100000000E-03 0. -1.
         11   -1    0    0    0    0 -0.00000000000E+00 -0.00000000000E+00 -0.45593999997E+02  0.45594000000E+02  0.51100000000E-03 0.  1.
    9900012    2    1    2    0    0 -0.23034013560E+00 -0.10068218553E+02 -0.42216125781E+02  0.47787270082E+02  0.19999995613E+02 0.  0.
         12    1    1    2    0    0  0.23034013560E+00  0.10068218553E+02  0.42216125781E+02  0.43400729918E+02  0.00000000000E+00 0. -1.
         11    1    3    3    0    0  0.24383642148E+01 -0.82562590151E+01 -0.11771107518E+02  0.14583223424E+02  0.51100000000E-03 0. -1.
        -11    1    3    3    0    0 -0.11067700237E+01 -0.62094321078E+01 -0.26018147123E+02  0.26771738213E+02  0.51100000000E-03 0.  1.
         12    1    3    3    0    0 -0.15619343266E+01  0.43974725695E+01 -0.44268711405E+01  0.64323084452E+01  0.00000000000E+00 0. -1.
</event>
<event>
 7    1  0.1246400E-009  0.4778727E+02  0.7816164E-02  0.1312668E+00
        -11   -1    0    0    0    0  0.00000000000E+00  0.00000000000E+00  0.45593999997E+02  0.45594000000E+02  0.51100000000E-03 0.  1.
         11   -1    0    0    0    0 -0.00000000000E+00 -0.00000000000E+00 -0.45593999997E+02  0.45594000000E+02  0.51100000000E-03 0. -1.
    9900012    2    1    2    0    0  0.28678319570E+02  0.32473486160E+02  0.25788312771E+01  0.47787266279E+02  0.19999978274E+02 0.  0.
         12    1    1    2    0    0 -0.28678319570E+02 -0.32473486160E+02 -0.25788312771E+01  0.43400733721E+02  0.00000000000E+00 0. -1.
         11    1    3    3    0    0  0.26872434203E+01  0.41421562130E+01  0.32472023195E+01  0.59095734581E+01  0.51100000000E-03 0. -1.
        -11    1    3    3    0    0  0.24396025934E+02  0.17078600946E+02 -0.39681242913E+01  0.30043147343E+02  0.51100000000E-03 0.  1.
        -12    1    3    3    0    0  0.15950502159E+01  0.11252729001E+02  0.32997532489E+01  0.11834545478E+02  0.00000000000E+00 0.  1.
</event>
<event>
 7    1  0.1246400E-009  0.4778727E+02  0.7816164E-02  0.1312668E+00
        -11   -1    0    0    0    0  0.00000000000E+00  0.00000000000E+00  0.45593999997E+02  0.45594000000E+02  0.51100000000E-03 0.  1.
         11   -1    0    0    0    0 -0.00000000000E+00 -0.00000000000E+00 -0.45593999997E+02  0.45594000000E+02  0.51100000000E-03 0. -1.
    9900012    2    1    2    0    0  0.13833154376E+02 -0.16624462265E+02  0.37628372120E+02  0.47787270813E+02  0.19999998944E+02 0.  0.
         12    1    1    2    0    0 -0.13833154376E+02  0.16624462265E+02 -0.37628372120E+02  0.43400729187E+02  0.00000000000E+00 0. -1.
         11    1    3    3    0    0  0.67389421283E+01 -0.24037525282E+01  0.12953240089E+02  0.14797898374E+02  0.51100000000E-03 0. -1.
        -11    1    3    3    0    0 -0.20034748112E+01 -0.26493057419E+01 -0.93488396830E+00  0.34506145146E+01  0.51100000000E-03 0.  1.
        -12    1    3    3    0    0  0.90976870594E+01 -0.11571403995E+02  0.25610015999E+02  0.29538757924E+02  0.00000000000E+00 0.  1.
</event>
<event>
 7    1  0.1246400E-009  0.4778726E+02  0.7816164E-02  0.1312668E+00
        -11   -1    0    0    0    0  0.00000000000E+00  0.00000000000E+00  0.45593999997E+02  0.45594000000E+02  0.51100000000E-03 0. -1.
         11   -1    0    0    0    0 -0.00000000000E+00 -0.00000000000E+00 -0.45593999997E+02  0.45594000000E+02  0.51100000000E-03 0.  1.
    9900012    2    1    2    0    0  0.29659963542E+02 -0.15710635780E+02 -0.27515201764E+02  0.47787264499E+02  0.19999970156E+02 0.  0.
         12    1    1    2    0    0 -0.29659963542E+02  0.15710635780E+02  0.27515201764E+02  0.43400735501E+02  0.00000000000E+00 0. -1.
         11    1    3    3    0    0  0.58280903265E+00 -0.38312025912E+01 -0.24881412071E+01  0.46052824659E+01  0.51100000000E-03 0. -1.
        -11    1    3    3    0    0 -0.31704657074E-01  0.12778274029E+01 -0.57097164140E+01  0.58510434836E+01  0.51100000000E-03 0.  1.
        -12    1    3    3    0    0  0.29108859166E+02 -0.13157260592E+02 -0.19317344143E+02  0.37330938549E+02  0.00000000000E+00 0.  1.
</event>
<event>
 7    1  0.1246400E-009  0.4778727E+02  0.7816164E-02  0.1312668E+00
        -11   -1    0    0    0    0  0.00000000000E+00  0.00000000000E+00  0.45593999997E+02  0.45594000000E+02  0.51100000000E-03 0. -1.
         11   -1    0    0    0    0 -0.00000000000E+00 -0.00000000000E+00 -0.45593999997E+02  0.45594000000E+02  0.51100000000E-03 0.  1.
    9900012    2    1    2    0    0 -0.12191786755E+02  0.11222575100E+01 -0.41638012178E+02  0.47787272076E+02  0.20000004702E+02 0.  0.
         12    1    1    2    0    0  0.12191786755E+02 -0.11222575100E+01  0.41638012178E+02  0.43400727924E+02  0.00000000000E+00 0. -1.
         11    1    3    3    0    0 -0.48055501968E+00  0.18789911017E+01 -0.10407414973E+02  0.10586587144E+02  0.51100000000E-03 0.  1.
        -11    1    3    3    0    0 -0.71327611978E+01  0.35587696280E+01 -0.29664685876E+02  0.30717010141E+02  0.51100000000E-03 0. -1.
         12    1    3    3    0    0 -0.45784705377E+01 -0.43155032197E+01 -0.15659113293E+01  0.64836747910E+01  0.00000000000E+00 0. -1.
</event>
<event>
 7    1  0.1246400E-009  0.4778727E+02  0.7816164E-02  0.1312668E+00
        -11   -1    0    0    0    0  0.00000000000E+00  0.00000000000E+00  0.45593999997E+02  0.45594000000E+02  0.51100000000E-03 0.  1.
         11   -1    0    0    0    0 -0.00000000000E+00 -0.00000000000E+00 -0.45593999997E+02  0.45594000000E+02  0.51100000000E-03 0. -1.
    9900012    2    1    2    0    0 -0.32945970163E+02 -0.21084568318E+02  0.18804979301E+02  0.47787271692E+02  0.20000002952E+02 0.  0.
         12    1    1    2    0    0  0.32945970163E+02  0.21084568318E+02 -0.18804979301E+02  0.43400728308E+02  0.00000000000E+00 0. -1.
         11    1    3    3    0    0 -0.30664041363E+02 -0.19564316789E+02  0.15937865086E+02  0.39712233227E+02  0.51100000000E-03 0. -1.
        -11    1    3    3    0    0 -0.40954966140E+01 -0.24209009901E+01  0.24733530432E+00  0.47639300092E+01  0.51100000000E-03 0.  1.
         12    1    3    3    0    0  0.18135678133E+01  0.90064946098E+00  0.26197789108E+01  0.33111084558E+01  0.00000000000E+00 0. -1.
</event>
<event>
 7    1  0.1246400E-009  0.4778727E+02  0.7816164E-02  0.1312668E+00
        -11   -1    0    0    0    0  0.00000000000E+00  0.00000000000E+00  0.45593999997E+02  0.45594000000E+02  0.51100000000E-03 0.  1.
         11   -1    0    0    0    0 -0.00000000000E+00 -0.00000000000E+00 -0.45593999997E+02  0.45594000000E+02  0.51100000000E-03 0. -1.
    9900012    2    1    2    0    0  0.39569032610E+02  0.17741851182E+02 -0.17724425667E+01  0.47787272153E+02  0.20000005053E+02 0.  0.
         12    1    1    2    0    0 -0.39569032610E+02 -0.17741851182E+02  0.17724425667E+01  0.43400727847E+02  0.00000000000E+00 0. -1.
         11    1    3    3    0    0  0.17434741994E+02  0.75515586842E+01  0.74877515156E+01  0.20422112769E+02  0.51100000000E-03 0.  1.
        -11    1    3    3    0    0  0.15457359885E+02  0.27002045616E+01 -0.50556160738E+01  0.16485761537E+02  0.51100000000E-03 0. -1.
        -12    1    3    3    0    0  0.66769307309E+01  0.74900879359E+01 -0.42045780086E+01  0.10879397847E+02  0.00000000000E+00 0.  1.
</event>
<event>
 7    1  0.1246400E-009  0.4778727E+02  0.7816164E-02  0.1312668E+00
        -11   -1    0    0    0    0  0.00000000000E+00  0.00000000000E+00  0.45593999997E+02  0.45594000000E+02  0.51100000000E-03 0.  1.
         11   -1    0    0    0    0 -0.00000000000E+00 -0.00000000000E+00 -0.45593999997E+02  0.45594000000E+02  0.51100000000E-03 0. -1.
    9900012    2    1    2    0    0 -0.14942181041E+02 -0.34500321192E+02  0.21681376980E+02  0.47787273689E+02  0.20000012057E+02 0.  0.
         12    1    1    2    0    0  0.14942181041E+02  0.34500321192E+02 -0.21681376980E+02  0.43400726311E+02  0.00000000000E+00 0. -1.
         11    1    3    3    0    0  0.12728618236E+01 -0.57756184200E+00 -0.25683108212E+01  0.29240341377E+01  0.51100000000E-03 0. -1.
        -11    1    3    3    0    0 -0.47655587060E+01 -0.11721363958E+02  0.65464500217E+01  0.14246295342E+02  0.51100000000E-03 0.  1.
        -12    1    3    3    0    0 -0.11449484158E+02 -0.22201395392E+02  0.17703237780E+02  0.30616944209E+02  0.00000000000E+00 0.  1.
</event>
<event>
 7    1  0.1246400E-009  0.4778727E+02  0.7816164E-02  0.1312668E+00
        -11   -1    0    0    0    0  0.00000000000E+00  0.00000000000E+00  0.45593999997E+02  0.45594000000E+02  0.51100000000E-03 0. -1.
         11   -1    0    0    0    0 -0.00000000000E+00 -0.00000000000E+00 -0.45593999997E+02  0.45594000000E+02  0.51100000000E-03 0.  1.
    9900012    2    1    2    0    0  0.54130782490E+01  0.11338114230E+02 -0.41542378835E+02  0.47787268558E+02  0.19999988662E+02 0.  0.
         12    1    1    2    0    0 -0.54130782490E+01 -0.11338114230E+02  0.41542378835E+02  0.43400731442E+02  0.00000000000E+00 0. -1.
         11    1    3    3    0    0 -0.17266913330E+01  0.47193621126E+01 -0.44337676135E+01  0.67016518278E+01  0.51100000000E-03 0. -1.
        -11    1    3    3    0    0  0.71843749279E+01  0.10033271211E+02 -0.34903401246E+02  0.37020659004E+02  0.51100000000E-03 0.  1.
         12    1    3    3    0    0 -0.44605345859E-01 -0.34145190936E+01 -0.22052099764E+01  0.40649577264E+01  0.00000000000E+00 0. -1.
</event>
<event>
 7    1  0.1246400E-009  0.4778727E+02  0.7816164E-02  0.1312668E+00
        -11   -1    0    0    0    0  0.00000000000E+00  0.00000000000E+00  0.45593999997E+02  0.45594000000E+02  0.51100000000E-03 0.  1.
         11   -1    0    0    0    0 -0.00000000000E+00 -0.00000000000E+00 -0.45593999997E+02  0.45594000000E+02  0.51100000000E-03 0. -1.
    9900012    2    1    2    0    0 -0.36629613177E+00  0.49261636402E+01  0.43118697373E+02  0.47787270464E+02  0.19999997355E+02 0.  0.
         12    1    1    2    0    0  0.36629613177E+00 -0.49261636402E+01 -0.43118697373E+02  0.43400729536E+02  0.00000000000E+00 0. -1.
         11    1    3    3    0    0  0.49786893350E-01 -0.60479580078E+00 -0.13207818621E+01  0.14535204449E+01  0.51100000000E-03 0. -1.
        -11    1    3    3    0    0  0.33462642451E+01 -0.19808292828E+01  0.22637646267E+02  0.22969201071E+02  0.51100000000E-03 0.  1.
         12    1    3    3    0    0 -0.37623472702E+01  0.75117887238E+01  0.21801832968E+02  0.23364548949E+02  0.00000000000E+00 0. -1.
</event>
<event>
 7    1  0.1246400E-009  0.4778727E+02  0.7816164E-02  0.1312668E+00
        -11   -1    0    0    0    0  0.00000000000E+00  0.00000000000E+00  0.45593999997E+02  0.45594000000E+02  0.51100000000E-03 0.  1.
         11   -1    0    0    0    0 -0.00000000000E+00 -0.00000000000E+00 -0.45593999997E+02  0.45594000000E+02  0.51100000000E-03 0. -1.
    9900012    2    1    2    0    0 -0.35853883199E+02 -0.15302144824E+02  0.19077909325E+02  0.47787271885E+02  0.20000003834E+02 0.  0.
         12    1    1    2    0    0  0.35853883199E+02  0.15302144824E+02 -0.19077909325E+02  0.43400728115E+02  0.00000000000E+00 0. -1.
         11    1    3    3    0    0 -0.18546721546E+01  0.18150858492E+01  0.12553088945E+01  0.28827324057E+01  0.51100000000E-03 0.  1.
        -11    1    3    3    0    0 -0.12321287994E+02  0.16792980268E+01  0.40505188893E+01  0.13078259946E+02  0.51100000000E-03 0. -1.
         12    1    3    3    0    0 -0.21677923051E+02 -0.18796528700E+02  0.13772081542E+02  0.31826279533E+02  0.00000000000E+00 0. -1.
</event>
<event>
 7    1  0.1246400E-009  0.4778727E+02  0.7816164E-02  0.1312668E+00
        -11   -1    0    0    0    0  0.00000000000E+00  0.00000000000E+00  0.45593999997E+02  0.45594000000E+02  0.51100000000E-03 0.  1.
         11   -1    0    0    0    0 -0.00000000000E+00 -0.00000000000E+00 -0.45593999997E+02  0.45594000000E+02  0.51100000000E-03 0. -1.
    9900012    2    1    2    0    0 -0.20279503521E+02  0.30697124569E+02  0.23022850864E+02  0.47787269801E+02  0.19999994333E+02 0.  0.
         12    1    1    2    0    0  0.20279503521E+02 -0.30697124569E+02 -0.23022850864E+02  0.43400730199E+02  0.00000000000E+00 0. -1.
         11    1    3    3    0    0 -0.57924048027E+01  0.11524281791E+02  0.13817779271E+02  0.18902170469E+02  0.51100000000E-03 0. -1.
        -11    1    3    3    0    0 -0.16037298124E+02  0.19854738218E+02  0.93591906458E+01  0.27184554634E+02  0.51100000000E-03 0.  1.
         12    1    3    3    0    0  0.15501994062E+01 -0.68189543966E+00 -0.15411905293E+00  0.17005446987E+01  0.00000000000E+00 0. -1.
</event>
<event>
 7    1  0.1246400E-009  0.4778727E+02  0.7816164E-02  0.1312668E+00
        -11   -1    0    0    0    0  0.00000000000E+00  0.00000000000E+00  0.45593999997E+02  0.45594000000E+02  0.51100000000E-03 0.  1.
         11   -1    0    0    0    0 -0.00000000000E+00 -0.00000000000E+00 -0.45593999997E+02  0.45594000000E+02  0.51100000000E-03 0. -1.
    9900012    2    1    2    0    0  0.20566584606E+02 -0.33451574258E+02  0.18483264519E+02  0.47787270859E+02  0.19999999155E+02 0.  0.
         12    1    1    2    0    0 -0.20566584606E+02  0.33451574258E+02 -0.18483264519E+02  0.43400729141E+02  0.00000000000E+00 0. -1.
         11    1    3    3    0    0  0.24015175065E+01 -0.22618587026E+01 -0.15613183805E+01  0.36497954012E+01  0.51100000000E-03 0. -1.
        -11    1    3    3    0    0  0.88795113796E+01 -0.19758498964E+02  0.19891348511E+02  0.29409347995E+02  0.51100000000E-03 0.  1.
         12    1    3    3    0    0  0.92855557195E+01 -0.11431216592E+02  0.15323438844E+00  0.14728127463E+02  0.00000000000E+00 0. -1.
</event>
<event>
 7    1  0.1246400E-009  0.4778727E+02  0.7816164E-02  0.1312668E+00
        -11   -1    0    0    0    0  0.00000000000E+00  0.00000000000E+00  0.45593999997E+02  0.45594000000E+02  0.51100000000E-03 0.  1.
         11   -1    0    0    0    0 -0.00000000000E+00 -0.00000000000E+00 -0.45593999997E+02  0.45594000000E+02  0.51100000000E-03 0. -1.
    9900012    2    1    2    0    0  0.31923996111E+02  0.22830880731E+01  0.29313292239E+02  0.47787272809E+02  0.20000008045E+02 0.  0.
         12    1    1    2    0    0 -0.31923996111E+02 -0.22830880731E+01 -0.29313292239E+02  0.43400727191E+02  0.00000000000E+00 0. -1.
         11    1    3    3    0    0  0.60584935871E+01  0.16318767532E+01  0.15614409125E+02  0.16827897636E+02  0.51100000000E-03 0. -1.
        -11    1    3    3    0    0  0.51085806818E+01  0.48630789521E+00  0.78764555039E+01  0.94006725035E+01  0.51100000000E-03 0.  1.
        -12    1    3    3    0    0  0.20756921842E+02  0.16490342476E+00  0.58224276098E+01  0.21558702669E+02  0.00000000000E+00 0.  1.
</event>
<event>
 7    1  0.1246400E-009  0.4778727E+02  0.7816164E-02  0.1312668E+00
        -11   -1    0    0    0    0  0.00000000000E+00  0.00000000000E+00  0.45593999997E+02  0.45594000000E+02  0.51100000000E-03 0. -1.
         11   -1    0    0    0    0 -0.00000000000E+00 -0.00000000000E+00 -0.45593999997E+02  0.45594000000E+02  0.51100000000E-03 0.  1.
    9900012    2    1    2    0    0 -0.39349942756E+02  0.11213017472E+02 -0.14473209947E+02  0.47787267726E+02  0.19999984872E+02 0.  0.
         12    1    1    2    0    0  0.39349942756E+02 -0.11213017472E+02  0.14473209947E+02  0.43400732274E+02  0.00000000000E+00 0. -1.
         11    1    3    3    0    0 -0.31965656957E+01  0.31254644899E+01  0.34965307480E+01  0.56755870232E+01  0.51100000000E-03 0. -1.
        -11    1    3    3    0    0 -0.26856783189E+02  0.62957260542E+01 -0.88594336769E+01  0.28972616988E+02  0.51100000000E-03 0.  1.
        -12    1    3    3    0    0 -0.92965938711E+01  0.17918269275E+01 -0.91103070183E+01  0.13139063715E+02  0.00000000000E+00 0.  1.
</event>
<event>
 7    1  0.1246400E-009  0.4778726E+02  0.7816164E-02  0.1312668E+00
        -11   -1    0    0    0    0  0.00000000000E+00  0.00000000000E+00  0.45593999997E+02  0.45594000000E+02  0.51100000000E-03 0. -1.
         11   -1    0    0    0    0 -0.00000000000E+00 -0.00000000000E+00 -0.45593999997E+02  0.45594000000E+02  0.51100000000E-03 0.  1.
    9900012    2    1    2    0    0 -0.41559357906E+02 -0.36465778028E+01 -0.11964375831E+02  0.47787262123E+02  0.19999959323E+02 0.  0.
         12    1    1    2    0    0  0.41559357906E+02  0.36465778028E+01  0.11964375831E+02  0.43400737877E+02  0.00000000000E+00 0. -1.
         11    1    3    3    0    0 -0.13131950437E+02  0.32646820481E+01 -0.71073582951E+01  0.15284659412E+02  0.51100000000E-03 0. -1.
        -11    1    3    3    0    0 -0.59284736233E+01 -0.71043762706E+01  0.84502765072E+00  0.92915571186E+01  0.51100000000E-03 0.  1.
         12    1    3    3    0    0 -0.22498933846E+02  0.19311641963E+00 -0.57020451863E+01  0.23211045592E+02  0.00000000000E+00 0. -1.
</event>
<event>
 7    1  0.1246400E-009  0.4778727E+02  0.7816164E-02  0.1312668E+00
        -11   -1    0    0    0    0  0.00000000000E+00  0.00000000000E+00  0.45593999997E+02  0.45594000000E+02  0.51100000000E-03 0.  1.
         11   -1    0    0    0    0 -0.00000000000E+00 -0.00000000000E+00 -0.45593999997E+02  0.45594000000E+02  0.51100000000E-03 0. -1.
    9900012    2    1    2    0    0  0.66706725720E+01 -0.19934959040E+02  0.37970028322E+02  0.47787268264E+02  0.19999987323E+02 0.  0.
         12    1    1    2    0    0 -0.66706725720E+01  0.19934959040E+02 -0.37970028322E+02  0.43400731736E+02  0.00000000000E+00 0. -1.
         11    1    3    3    0    0 -0.42708307356E+01 -0.14781081016E+02  0.22157714662E+02  0.26975631048E+02  0.51100000000E-03 0. -1.
        -11    1    3    3    0    0  0.18517650503E+01  0.90278942399E+00  0.51535506513E+01  0.55500582990E+01  0.51100000000E-03 0.  1.
         12    1    3    3    0    0  0.90897382573E+01 -0.60566674475E+01  0.10658763009E+02  0.15261578917E+02  0.00000000000E+00 0. -1.
</event>
<event>
 7    1  0.1246400E-009  0.4778727E+02  0.7816164E-02  0.1312668E+00
        -11   -1    0    0    0    0  0.00000000000E+00  0.00000000000E+00  0.45593999997E+02  0.45594000000E+02  0.51100000000E-03 0. -1.
         11   -1    0    0    0    0 -0.00000000000E+00 -0.00000000000E+00 -0.45593999997E+02  0.45594000000E+02  0.51100000000E-03 0.  1.
    9900012    2    1    2    0    0 -0.15395540460E+02 -0.39878593303E+02 -0.75032316743E+01  0.47787270105E+02  0.19999995716E+02 0.  0.
         12    1    1    2    0    0  0.15395540460E+02  0.39878593303E+02  0.75032316743E+01  0.43400729895E+02  0.00000000000E+00 0. -1.
         11    1    3    3    0    0 -0.36916499893E+01 -0.37467071473E+01  0.27850707761E+01  0.59516983777E+01  0.51100000000E-03 0. -1.
        -11    1    3    3    0    0 -0.46343258751E+01 -0.30654133926E+02 -0.48803756689E+01  0.31384247164E+02  0.51100000000E-03 0.  1.
         12    1    3    3    0    0 -0.70695645955E+01 -0.54777522294E+01 -0.54079267815E+01  0.10451324563E+02  0.00000000000E+00 0. -1.
</event>
<event>
 7    1  0.1246400E-009  0.4778727E+02  0.7816164E-02  0.1312668E+00
        -11   -1    0    0    0    0  0.00000000000E+00  0.00000000000E+00  0.45593999997E+02  0.45594000000E+02  0.51100000000E-03 0.  1.
         11   -1    0    0    0    0 -0.00000000000E+00 -0.00000000000E+00 -0.45593999997E+02  0.45594000000E+02  0.51100000000E-03 0. -1.
    9900012    2    1    2    0    0  0.39472071494E+02 -0.11357203972E+02 -0.14021159034E+02  0.47787269468E+02  0.19999992811E+02 0.  0.
         12    1    1    2    0    0 -0.39472071494E+02  0.11357203972E+02  0.14021159034E+02  0.43400730532E+02  0.00000000000E+00 0. -1.
         11    1    3    3    0    0  0.25498254352E+02 -0.35105149591E+01 -0.14727102842E+02  0.29654211314E+02  0.51100000000E-03 0. -1.
        -11    1    3    3    0    0  0.83053594533E+01 -0.12602578634E-01  0.14648492054E+01  0.84335602168E+01  0.51100000000E-03 0.  1.
        -12    1    3    3    0    0  0.56684576885E+01 -0.78340864341E+01 -0.75890539752E+00  0.96994979368E+01  0.00000000000E+00 0.  1.
</event>
<event>
 7    1  0.1246400E-009  0.4778727E+02  0.7816164E-02  0.1312668E+00
        -11   -1    0    0    0    0  0.00000000000E+00  0.00000000000E+00  0.45593999997E+02  0.45594000000E+02  0.51100000000E-03 0.  1.
         11   -1    0    0    0    0 -0.00000000000E+00 -0.00000000000E+00 -0.45593999997E+02  0.45594000000E+02  0.51100000000E-03 0. -1.
    9900012    2    1    2    0    0  0.26295107325E+02 -0.13032940140E+02  0.31973943037E+02  0.47787271536E+02  0.20000002240E+02 0.  0.
         12    1    1    2    0    0 -0.26295107325E+02  0.13032940140E+02 -0.31973943037E+02  0.43400728464E+02  0.00000000000E+00 0. -1.
         11    1    3    3    0    0  0.17799914750E+02 -0.27143834510E+00  0.94605165620E+01  0.20159663136E+02  0.51100000000E-03 0. -1.
        -11    1    3    3    0    0  0.12094491328E+01 -0.29604953304E+01  0.82624420553E+01  0.88597544427E+01  0.51100000000E-03 0.  1.
         12    1    3    3    0    0  0.72857434417E+01 -0.98010064642E+01  0.14250984420E+02  0.18767853957E+02  0.00000000000E+00 0. -1.
</event>
<event>
 7    1  0.1246400E-009  0.4778727E+02  0.7816164E-02  0.1312668E+00
        -11   -1    0    0    0    0  0.00000000000E+00  0.00000000000E+00  0.45593999997E+02  0.45594000000E+02  0.51100000000E-03 0.  1.
         11   -1    0    0    0    0 -0.00000000000E+00 -0.00000000000E+00 -0.45593999997E+02  0.45594000000E+02  0.51100000000E-03 0. -1.
    9900012    2    1    2    0    0 -0.32451057934E+02  0.25010288225E+01  0.28710570625E+02  0.47787272220E+02  0.20000005358E+02 0.  0.
         12    1    1    2    0    0  0.32451057934E+02 -0.25010288225E+01 -0.28710570625E+02  0.43400727780E+02  0.00000000000E+00 0. -1.
         11    1    3    3    0    0 -0.11396207953E+02  0.47532898515E+01  0.78433745524E+01  0.14628255014E+02  0.51100000000E-03 0. -1.
        -11    1    3    3    0    0 -0.22818215694E+02 -0.46232346502E+00  0.20383617423E+02  0.30600270749E+02  0.51100000000E-03 0.  1.
         12    1    3    3    0    0  0.17633657120E+01 -0.17899375641E+01  0.48357864996E+00  0.25587464564E+01  0.00000000000E+00 0. -1.
</event>
<event>
 7    1  0.1246400E-009  0.4778727E+02  0.7816164E-02  0.1312668E+00
        -11   -1    0    0    0    0  0.00000000000E+00  0.00000000000E+00  0.45593999997E+02  0.45594000000E+02  0.51100000000E-03 0. -1.
         11   -1    0    0    0    0 -0.00000000000E+00 -0.00000000000E+00 -0.45593999997E+02  0.45594000000E+02  0.51100000000E-03 0.  1.
    9900012    2    1    2    0    0 -0.29354687578E+02 -0.23551318499E+02 -0.21616215190E+02  0.47787273681E+02  0.20000012021E+02 0.  0.
         12    1    1    2    0    0  0.29354687578E+02  0.23551318499E+02  0.21616215190E+02  0.43400726319E+02  0.00000000000E+00 0. -1.
         11    1    3    3    0    0 -0.14808592154E+01 -0.15223484131E+01  0.15126397519E+01  0.26074063716E+01  0.51100000000E-03 0. -1.
        -11    1    3    3    0    0 -0.23342833115E+02 -0.24156253560E+02 -0.18435348027E+02  0.38318070163E+02  0.51100000000E-03 0.  1.
         12    1    3    3    0    0 -0.45309952476E+01  0.21272834738E+01 -0.46935069151E+01  0.68617971461E+01  0.00000000000E+00 0. -1.
</event>
<event>
 7    1  0.1246400E-009  0.4778727E+02  0.7816164E-02  0.1312668E+00
        -11   -1    0    0    0    0  0.00000000000E+00  0.00000000000E+00  0.45593999997E+02  0.45594000000E+02  0.51100000000E-03 0.  1.
         11   -1    0    0    0    0 -0.00000000000E+00 -0.00000000000E+00 -0.45593999997E+02  0.45594000000E+02  0.51100000000E-03 0. -1.
    9900012    2    1    2    0    0 -0.25962396318E+02  0.34762744248E+02  0.10624872424E+01  0.47787270866E+02  0.19999999186E+02 0.  0.
         12    1    1    2    0    0  0.25962396318E+02 -0.34762744248E+02 -0.10624872424E+01  0.43400729134E+02  0.00000000000E+00 0. -1.
         11    1    3    3    0    0 -0.50184495773E+01  0.11892990623E+02 -0.12504772249E+01  0.12968876422E+02  0.51100000000E-03 0. -1.
        -11    1    3    3    0    0 -0.16140535514E+02  0.19306751969E+02 -0.47017380256E+01  0.25600271463E+02  0.51100000000E-03 0.  1.
        -12    1    3    3    0    0 -0.48034112262E+01  0.35630016565E+01  0.70147024929E+01  0.92181229801E+01  0.00000000000E+00 0.  1.
</event>
<event>
 7    1  0.1246400E-009  0.4778727E+02  0.7816164E-02  0.1312668E+00
        -11   -1    0    0    0    0  0.00000000000E+00  0.00000000000E+00  0.45593999997E+02  0.45594000000E+02  0.51100000000E-03 0.  1.
         11   -1    0    0    0    0 -0.00000000000E+00 -0.00000000000E+00 -0.45593999997E+02  0.45594000000E+02  0.51100000000E-03 0. -1.
    9900012    2    1    2    0    0 -0.18732341707E+02 -0.37337483653E+02  0.11774331323E+02  0.47787272017E+02  0.20000004435E+02 0.  0.
         12    1    1    2    0    0  0.18732341707E+02  0.37337483653E+02 -0.11774331323E+02  0.43400727983E+02  0.00000000000E+00 0. -1.
         11    1    3    3    0    0 -0.10512719610E+02 -0.22860879376E+02  0.12828762276E+02  0.28243835101E+02  0.51100000000E-03 0. -1.
        -11    1    3    3    0    0 -0.72332373735E+01 -0.84180678627E+01  0.37854244815E+01  0.11726594911E+02  0.51100000000E-03 0.  1.
         12    1    3    3    0    0 -0.98638472356E+00 -0.60585364143E+01 -0.48398554343E+01  0.78168420050E+01  0.00000000000E+00 0. -1.
</event>
<event>
 7    1  0.1246400E-009  0.4778727E+02  0.7816164E-02  0.1312668E+00
        -11   -1    0    0    0    0  0.00000000000E+00  0.00000000000E+00  0.45593999997E+02  0.45594000000E+02  0.51100000000E-03 0.  1.
         11   -1    0    0    0    0 -0.00000000000E+00 -0.00000000000E+00 -0.45593999997E+02  0.45594000000E+02  0.51100000000E-03 0. -1.
    9900012    2    1    2    0    0  0.17302838662E+02  0.37278961235E+02  0.13946829560E+02  0.47787271535E+02  0.20000002237E+02 0.  0.
         12    1    1    2    0    0 -0.17302838662E+02 -0.37278961235E+02 -0.13946829560E+02  0.43400728465E+02  0.00000000000E+00 0. -1.
         11    1    3    3    0    0  0.50980974121E+01  0.15461637172E+02  0.11069594582E+02  0.19687273700E+02  0.51100000000E-03 0. -1.
        -11    1    3    3    0    0  0.10599999351E+02  0.68699753924E+01  0.33187560884E+01  0.13060271451E+02  0.51100000000E-03 0.  1.
         12    1    3    3    0    0  0.16047418990E+01  0.14947348670E+02 -0.44152110995E+00  0.15039726385E+02  0.00000000000E+00 0. -1.
</event>
<event>
 7    1  0.1246400E-009  0.4778727E+02  0.7816164E-02  0.1312668E+00
        -11   -1    0    0    0    0  0.00000000000E+00  0.00000000000E+00  0.45593999997E+02  0.45594000000E+02  0.51100000000E-03 0.  1.
         11   -1    0    0    0    0 -0.00000000000E+00 -0.00000000000E+00 -0.45593999997E+02  0.45594000000E+02  0.51100000000E-03 0. -1.
    9900012    2    1    2    0    0 -0.20540583224E+02  0.61680610746E+01  0.37731456551E+02  0.47787270167E+02  0.19999995999E+02 0.  0.
         12    1    1    2    0    0  0.20540583224E+02 -0.61680610746E+01 -0.37731456551E+02  0.43400729833E+02  0.00000000000E+00 0. -1.
         11    1    3    3    0    0 -0.52896319187E+01 -0.20637458501E+01  0.45414327665E+01  0.72707540602E+01  0.51100000000E-03 0. -1.
        -11    1    3    3    0    0  0.22493723586E+01  0.26937745350E+01  0.11896981425E+02  0.12403800407E+02  0.51100000000E-03 0.  1.
        -12    1    3    3    0    0 -0.17500323664E+02  0.55380323898E+01  0.21293042359E+02  0.28112715700E+02  0.00000000000E+00 0.  1.
</event>
<event>
 7    1  0.1246400E-009  0.4778727E+02  0.7816164E-02  0.1312668E+00
        -11   -1    0    0    0    0  0.00000000000E+00  0.00000000000E+00  0.45593999997E+02  0.45594000000E+02  0.51100000000E-03 0.  1.
         11   -1    0    0    0    0 -0.00000000000E+00 -0.00000000000E+00 -0.45593999997E+02  0.45594000000E+02  0.51100000000E-03 0. -1.
    9900012    2    1    2    0    0  0.33751290580E+02 -0.25890849446E+02  0.86103281976E+01  0.47787268986E+02  0.19999990613E+02 0.  0.
         12    1    1    2    0    0 -0.33751290580E+02  0.25890849446E+02 -0.86103281976E+01  0.43400731014E+02  0.00000000000E+00 0. -1.
         11    1    3    3    0    0  0.76870341981E+01 -0.14191995164E+02  0.27796044602E+01  0.16377711156E+02  0.51100000000E-03 0. -1.
        -11    1    3    3    0    0  0.21083635498E+02 -0.13210993507E+02  0.74263423540E+01  0.25965373024E+02  0.51100000000E-03 0.  1.
        -12    1    3    3    0    0  0.49806208842E+01  0.15121392246E+01 -0.15956186165E+01  0.54441848054E+01  0.00000000000E+00 0.  1.
</event>
<event>
 7    1  0.1246400E-009  0.4778727E+02  0.7816164E-02  0.1312668E+00
        -11   -1    0    0    0    0  0.00000000000E+00  0.00000000000E+00  0.45593999997E+02  0.45594000000E+02  0.51100000000E-03 0. -1.
         11   -1    0    0    0    0 -0.00000000000E+00 -0.00000000000E+00 -0.45593999997E+02  0.45594000000E+02  0.51100000000E-03 0.  1.
    9900012    2    1    2    0    0  0.14023880701E+02  0.36316400772E+02 -0.19185243483E+02  0.47787265415E+02  0.19999974335E+02 0.  0.
         12    1    1    2    0    0 -0.14023880701E+02 -0.36316400772E+02  0.19185243483E+02  0.43400734585E+02  0.00000000000E+00 0. -1.
         11    1    3    3    0    0  0.11465525734E+02  0.17117789882E+02 -0.10645353083E+02  0.23190527233E+02  0.51100000000E-03 0. -1.
        -11    1    3    3    0    0  0.86965378716E+00  0.16174947442E+02 -0.11641461511E+02  0.19947652715E+02  0.51100000000E-03 0.  1.
         12    1    3    3    0    0  0.16887011803E+01  0.30236634477E+01  0.31015711116E+01  0.46490854673E+01  0.00000000000E+00 0. -1.
</event>
<event>
 7    1  0.1246400E-009  0.4778727E+02  0.7816164E-02  0.1312668E+00
        -11   -1    0    0    0    0  0.00000000000E+00  0.00000000000E+00  0.45593999997E+02  0.45594000000E+02  0.51100000000E-03 0.  1.
         11   -1    0    0    0    0 -0.00000000000E+00 -0.00000000000E+00 -0.45593999997E+02  0.45594000000E+02  0.51100000000E-03 0. -1.
    9900012    2    1    2    0    0 -0.18334868237E+02 -0.33905405298E+02  0.19946913546E+02  0.47787271185E+02  0.20000000639E+02 0.  0.
         12    1    1    2    0    0  0.18334868237E+02  0.33905405298E+02 -0.19946913546E+02  0.43400728815E+02  0.00000000000E+00 0. -1.
         11    1    3    3    0    0 -0.13262348920E+01 -0.12092870645E+02  0.16192112826E+01  0.12272663316E+02  0.51100000000E-03 0. -1.
        -11    1    3    3    0    0 -0.12054450162E+02 -0.21746691008E+02  0.17699115261E+02  0.30520272276E+02  0.51100000000E-03 0.  1.
        -12    1    3    3    0    0 -0.49541831829E+01 -0.65843644824E-01  0.62858700254E+00  0.49943355930E+01  0.00000000000E+00 0.  1.
</event>
<event>
 7    1  0.1246400E-009  0.4778727E+02  0.7816164E-02  0.1312668E+00
        -11   -1    0    0    0    0  0.00000000000E+00  0.00000000000E+00  0.45593999997E+02  0.45594000000E+02  0.51100000000E-03 0.  1.
         11   -1    0    0    0    0 -0.00000000000E+00 -0.00000000000E+00 -0.45593999997E+02  0.45594000000E+02  0.51100000000E-03 0. -1.
    9900012    2    1    2    0    0 -0.26810379808E+02 -0.23346791970E+02  0.24894859470E+02  0.47787272025E+02  0.20000004470E+02 0.  0.
         12    1    1    2    0    0  0.26810379808E+02  0.23346791970E+02 -0.24894859470E+02  0.43400727975E+02  0.00000000000E+00 0. -1.
         11    1    3    3    0    0 -0.67479351941E+01 -0.32347553307E+01 -0.27050120585E+01  0.79570950687E+01  0.51100000000E-03 0. -1.
        -11    1    3    3    0    0 -0.53227037671E+01 -0.80093006153E+01  0.10104203651E+02  0.13949014425E+02  0.51100000000E-03 0.  1.
         12    1    3    3    0    0 -0.14739740847E+02 -0.12102736024E+02  0.17495667878E+02  0.25881162532E+02  0.00000000000E+00 0. -1.
</event>
<event>
 7    1  0.1246400E-009  0.4778727E+02  0.7816164E-02  0.1312668E+00
        -11   -1    0    0    0    0  0.00000000000E+00  0.00000000000E+00  0.45593999997E+02  0.45594000000E+02  0.51100000000E-03 0.  1.
         11   -1    0    0    0    0 -0.00000000000E+00 -0.00000000000E+00 -0.45593999997E+02  0.45594000000E+02  0.51100000000E-03 0. -1.
    9900012    2    1    2    0    0  0.11121538536E+02 -0.20841359063E+02  0.36408413519E+02  0.47787269108E+02  0.19999991171E+02 0.  0.
         12    1    1    2    0    0 -0.11121538536E+02  0.20841359063E+02 -0.36408413519E+02  0.43400730892E+02  0.00000000000E+00 0. -1.
         11    1    3    3    0    0  0.24677681713E+01 -0.76148232324E+01  0.17476566774E+02  0.19222533627E+02  0.51100000000E-03 0. -1.
        -11    1    3    3    0    0  0.56548716116E+01 -0.10964935570E+02  0.20941039434E+02  0.24305030710E+02  0.51100000000E-03 0.  1.
         12    1    3    3    0    0  0.29988987536E+01 -0.22616002601E+01 -0.20091926883E+01  0.42597047702E+01  0.00000000000E+00 0. -1.
</event>
<event>
 7    1  0.1246400E-009  0.4778727E+02  0.7816164E-02  0.1312668E+00
        -11   -1    0    0    0    0  0.00000000000E+00  0.00000000000E+00  0.45593999997E+02  0.45594000000E+02  0.51100000000E-03 0. -1.
         11   -1    0    0    0    0 -0.00000000000E+00 -0.00000000000E+00 -0.45593999997E+02  0.45594000000E+02  0.51100000000E-03 0.  1.
    9900012    2    1    2    0    0 -0.47161983126E+01 -0.21211290944E+02 -0.37569428974E+02  0.47787269782E+02  0.19999994243E+02 0.  0.
         12    1    1    2    0    0  0.47161983126E+01  0.21211290944E+02  0.37569428974E+02  0.43400730218E+02  0.00000000000E+00 0. -1.
         11    1    3    3    0    0  0.25419162105E+01 -0.11654383784E+01  0.18918095269E+00  0.28027440713E+01  0.51100000000E-03 0. -1.
        -11    1    3    3    0    0 -0.44190169443E+01 -0.30979363343E+00 -0.55152152792E+01  0.70739863363E+01  0.51100000000E-03 0.  1.
        -12    1    3    3    0    0 -0.28390975789E+01 -0.19736058932E+02 -0.32243394648E+02  0.37910539374E+02  0.00000000000E+00 0.  1.
</event>
<event>
 7    1  0.1246400E-009  0.4778727E+02  0.7816164E-02  0.1312668E+00
        -11   -1    0    0    0    0  0.00000000000E+00  0.00000000000E+00  0.45593999997E+02  0.45594000000E+02  0.51100000000E-03 0.  1.
         11   -1    0    0    0    0 -0.00000000000E+00 -0.00000000000E+00 -0.45593999997E+02  0.45594000000E+02  0.51100000000E-03 0. -1.
    9900012    2    1    2    0    0 -0.11653470268E+01  0.41813625643E+02  0.11570915740E+02  0.47787269428E+02  0.19999992632E+02 0.  0.
         12    1    1    2    0    0  0.11653470268E+01 -0.41813625643E+02 -0.11570915740E+02  0.43400730572E+02  0.00000000000E+00 0. -1.
         11    1    3    3    0    0 -0.85037670276E+01  0.30816489341E+02  0.12220202298E+02  0.34224310269E+02  0.51100000000E-03 0. -1.
        -11    1    3    3    0    0  0.19890609192E+01  0.37499432913E+01  0.11045630038E+01  0.43861711912E+01  0.51100000000E-03 0.  1.
         12    1    3    3    0    0  0.53493590816E+01  0.72471930108E+01 -0.17538495622E+01  0.91767879678E+01  0.00000000000E+00 0. -1.
</event>
<event>
 7    1  0.1246400E-009  0.4778728E+02  0.7816164E-02  0.1312668E+00
        -11   -1    0    0    0    0  0.00000000000E+00  0.00000000000E+00  0.45593999997E+02  0.45594000000E+02  0.51100000000E-03 0. -1.
         11   -1    0    0    0    0 -0.00000000000E+00 -0.00000000000E+00 -0.45593999997E+02  0.45594000000E+02  0.51100000000E-03 0.  1.
    9900012    2    1    2    0    0  0.73281468834E+00  0.16670884522E+02 -0.40064541693E+02  0.47787275246E+02  0.20000019156E+02 0.  0.
         12    1    1    2    0    0 -0.73281468834E+00 -0.16670884522E+02  0.40064541693E+02  0.43400724754E+02  0.00000000000E+00 0. -1.
         11    1    3    3    0    0 -0.13729599434E+01  0.10560398441E+02 -0.14430922544E+02  0.17934842067E+02  0.51100000000E-03 0.  1.
        -11    1    3    3    0    0  0.80078717861E+01  0.29700144704E+01 -0.15812520732E+02  0.17971722473E+02  0.51100000000E-03 0. -1.
         12    1    3    3    0    0 -0.59020971544E+01  0.31404716111E+01 -0.98210984168E+01  0.11880710706E+02  0.00000000000E+00 0. -1.
</event>
<event>
 7    1  0.1246400E-009  0.4778727E+02  0.7816164E-02  0.1312668E+00
        -11   -1    0    0    0    0  0.00000000000E+00  0.00000000000E+00  0.45593999997E+02  0.45594000000E+02  0.51100000000E-03 0.  1.
         11   -1    0    0    0    0 -0.00000000000E+00 -0.00000000000E+00 -0.45593999997E+02  0.45594000000E+02  0.51100000000E-03 0. -1.
    9900012    2    1    2    0    0  0.19769940541E+02  0.38559484008E+02 -0.24369964911E+01  0.47787270653E+02  0.19999998213E+02 0.  0.
         12    1    1    2    0    0 -0.19769940541E+02 -0.38559484008E+02  0.24369964911E+01  0.43400729347E+02  0.00000000000E+00 0. -1.
         11    1    3    3    0    0 -0.75668567592E+00  0.15784518914E+02 -0.24598012667E+01  0.15992943227E+02  0.51100000000E-03 0.  1.
        -11    1    3    3    0    0  0.99039049979E+01  0.16243704748E+02  0.21438850374E+01  0.19145274129E+02  0.51100000000E-03 0. -1.
         12    1    3    3    0    0  0.10622721219E+02  0.65312603470E+01 -0.21210802618E+01  0.12649053297E+02  0.00000000000E+00 0. -1.
</event>
<event>
 7    1  0.1246400E-009  0.4778727E+02  0.7816164E-02  0.1312668E+00
        -11   -1    0    0    0    0  0.00000000000E+00  0.00000000000E+00  0.45593999997E+02  0.45594000000E+02  0.51100000000E-03 0. -1.
         11   -1    0    0    0    0 -0.00000000000E+00 -0.00000000000E+00 -0.45593999997E+02  0.45594000000E+02  0.51100000000E-03 0.  1.
    9900012    2    1    2    0    0 -0.19697014266E+02 -0.36330390266E+02 -0.13257213692E+02  0.47787270251E+02  0.19999996383E+02 0.  0.
         12    1    1    2    0    0  0.19697014266E+02  0.36330390266E+02  0.13257213692E+02  0.43400729749E+02  0.00000000000E+00 0. -1.
         11    1    3    3    0    0  0.17623791254E+01 -0.23143744734E+01 -0.22304692682E+01  0.36656926771E+01  0.51100000000E-03 0. -1.
        -11    1    3    3    0    0 -0.55258864350E+01 -0.21571353196E+02 -0.34629961241E+01  0.22535550626E+02  0.51100000000E-03 0.  1.
         12    1    3    3    0    0 -0.15933506956E+02 -0.12444662597E+02 -0.75637482999E+01  0.21586026948E+02  0.00000000000E+00 0. -1.
</event>
<event>
 7    1  0.1246400E-009  0.4778726E+02  0.7816164E-02  0.1312668E+00
        -11   -1    0    0    0    0  0.00000000000E+00  0.00000000000E+00  0.45593999997E+02  0.45594000000E+02  0.51100000000E-03 0. -1.
         11   -1    0    0    0    0 -0.00000000000E+00 -0.00000000000E+00 -0.45593999997E+02  0.45594000000E+02  0.51100000000E-03 0.  1.
    9900012    2    1    2    0    0 -0.22770192253E+02 -0.15283333003E+02 -0.33638699112E+02  0.47787262669E+02  0.19999961812E+02 0.  0.
         12    1    1    2    0    0  0.22770192253E+02  0.15283333003E+02  0.33638699112E+02  0.43400737331E+02  0.00000000000E+00 0. -1.
         11    1    3    3    0    0 -0.38515104834E+01 -0.48767878001E+01 -0.15440247061E+02  0.16643870398E+02  0.51100000000E-03 0. -1.
        -11    1    3    3    0    0 -0.33952164492E+01 -0.31962258425E+01 -0.12109621826E+02  0.12976374509E+02  0.51100000000E-03 0.  1.
        -12    1    3    3    0    0 -0.15523465321E+02 -0.72103193606E+01 -0.60888302249E+01  0.18167017762E+02  0.00000000000E+00 0.  1.
</event>
<event>
 7    1  0.1246400E-009  0.4778727E+02  0.7816164E-02  0.1312668E+00
        -11   -1    0    0    0    0  0.00000000000E+00  0.00000000000E+00  0.45593999997E+02  0.45594000000E+02  0.51100000000E-03 0.  1.
         11   -1    0    0    0    0 -0.00000000000E+00 -0.00000000000E+00 -0.45593999997E+02  0.45594000000E+02  0.51100000000E-03 0. -1.
    9900012    2    1    2    0    0 -0.13695604788E+02  0.29306781725E+02  0.28933825597E+02  0.47787270637E+02  0.19999998141E+02 0.  0.
         12    1    1    2    0    0  0.13695604788E+02 -0.29306781725E+02 -0.28933825597E+02  0.43400729363E+02  0.00000000000E+00 0. -1.
         11    1    3    3    0    0  0.24059071203E+01  0.11154088325E+01  0.41709865161E+00  0.26844920342E+01  0.51100000000E-03 0. -1.
        -11    1    3    3    0    0 -0.92470191813E+01  0.10096068598E+02  0.19318163467E+02  0.23677614003E+02  0.51100000000E-03 0.  1.
         12    1    3    3    0    0 -0.68544927274E+01  0.18095304294E+02  0.91985634779E+01  0.21425164599E+02  0.00000000000E+00 0. -1.
</event>
<event>
 7    1  0.1438463E-009  0.4778727E+02  0.7816164E-02  0.1312668E+00
        -11   -1    0    0    0    0  0.00000000000E+00  0.00000000000E+00  0.45593999997E+02  0.45594000000E+02  0.51100000000E-03 0.  1.
         11   -1    0    0    0    0 -0.00000000000E+00 -0.00000000000E+00 -0.45593999997E+02  0.45594000000E+02  0.51100000000E-03 0. -1.
    9900012    2    1    2    0    0 -0.42547603631E+02  0.70323659036E+01 -0.48857598348E+01  0.47787269659E+02  0.19999993685E+02 0.  0.
         12    1    1    2    0    0  0.42547603631E+02 -0.70323659036E+01  0.48857598348E+01  0.43400730341E+02  0.00000000000E+00 0. -1.
         11    1    3    3    0    0  0.90958041504E-01  0.13735283927E+01 -0.45324095343E+00  0.14492347062E+01  0.51100000000E-03 0. -1.
        -11    1    3    3    0    0 -0.40675552750E+02  0.12574798867E+01 -0.15542035247E+01  0.40724653418E+02  0.51100000000E-03 0.  1.
        -12    1    3    3    0    0 -0.19630089229E+01  0.44013576243E+01 -0.28783153567E+01  0.56133815353E+01  0.00000000000E+00 0.  1.
</event>
<event>
 7    1  0.1246400E-009  0.4778727E+02  0.7816164E-02  0.1312668E+00
        -11   -1    0    0    0    0  0.00000000000E+00  0.00000000000E+00  0.45593999997E+02  0.45594000000E+02  0.51100000000E-03 0.  1.
         11   -1    0    0    0    0 -0.00000000000E+00 -0.00000000000E+00 -0.45593999997E+02  0.45594000000E+02  0.51100000000E-03 0. -1.
    9900012    2    1    2    0    0 -0.98471333579E+01 -0.16499777843E+02  0.38915482107E+02  0.47787268994E+02  0.19999990649E+02 0.  0.
         12    1    1    2    0    0  0.98471333579E+01  0.16499777843E+02 -0.38915482107E+02  0.43400731006E+02  0.00000000000E+00 0. -1.
         11    1    3    3    0    0  0.12831403061E+01 -0.19925200775E+01  0.18619724867E+02  0.18769942453E+02  0.51100000000E-03 0. -1.
        -11    1    3    3    0    0 -0.25675335592E+01 -0.10983371425E+02  0.13125212323E+02  0.17306006912E+02  0.51100000000E-03 0.  1.
        -12    1    3    3    0    0 -0.85627401047E+01 -0.35238863403E+01  0.71705449181E+01  0.11711319629E+02  0.00000000000E+00 0.  1.
</event>
<event>
 7    1  0.1246400E-009  0.4778728E+02  0.7816164E-02  0.1312668E+00
        -11   -1    0    0    0    0  0.00000000000E+00  0.00000000000E+00  0.45593999997E+02  0.45594000000E+02  0.51100000000E-03 0. -1.
         11   -1    0    0    0    0 -0.00000000000E+00 -0.00000000000E+00 -0.45593999997E+02  0.45594000000E+02  0.51100000000E-03 0.  1.
    9900012    2    1    2    0    0  0.27840515349E+02  0.31379342022E+02 -0.11129463760E+02  0.47787281524E+02  0.20000047782E+02 0.  0.
         12    1    1    2    0    0 -0.27840515349E+02 -0.31379342022E+02  0.11129463760E+02  0.43400718476E+02  0.00000000000E+00 0. -1.
         11    1    3    3    0    0  0.94257029167E+00  0.47745742773E+00  0.26640491782E+01  0.28659313730E+01  0.51100000000E-03 0. -1.
        -11    1    3    3    0    0  0.18957096586E+02  0.19526077806E+02 -0.30709604148E+01  0.27387406295E+02  0.51100000000E-03 0.  1.
         12    1    3    3    0    0  0.79408484712E+01  0.11375806788E+02 -0.10722552524E+02  0.17533943856E+02  0.00000000000E+00 0. -1.
</event>
<event>
 7    1  0.1246400E-009  0.4778727E+02  0.7816164E-02  0.1312668E+00
        -11   -1    0    0    0    0  0.00000000000E+00  0.00000000000E+00  0.45593999997E+02  0.45594000000E+02  0.51100000000E-03 0.  1.
         11   -1    0    0    0    0 -0.00000000000E+00 -0.00000000000E+00 -0.45593999997E+02  0.45594000000E+02  0.51100000000E-03 0. -1.
    9900012    2    1    2    0    0  0.28401185965E+02  0.52850427774E+00  0.32813364250E+02  0.47787267813E+02  0.19999985266E+02 0.  0.
         12    1    1    2    0    0 -0.28401185965E+02 -0.52850427774E+00 -0.32813364250E+02  0.43400732187E+02  0.00000000000E+00 0. -1.
         11    1    3    3    0    0  0.25061744593E+01  0.26367100461E+01  0.85778472801E+01  0.93173287218E+01  0.51100000000E-03 0. -1.
        -11    1    3    3    0    0  0.25966950437E+02 -0.35067099912E+01  0.17309550068E+02  0.31403822280E+02  0.51100000000E-03 0.  1.
        -12    1    3    3    0    0 -0.71938931268E-01  0.13985042229E+01  0.69259669011E+01  0.70661168110E+01  0.00000000000E+00 0.  1.
</event>
<event>
 7    1  0.1246400E-009  0.4778727E+02  0.7816164E-02  0.1312668E+00
        -11   -1    0    0    0    0  0.00000000000E+00  0.00000000000E+00  0.45593999997E+02  0.45594000000E+02  0.51100000000E-03 0. -1.
         11   -1    0    0    0    0 -0.00000000000E+00 -0.00000000000E+00 -0.45593999997E+02  0.45594000000E+02  0.51100000000E-03 0.  1.
    9900012    2    1    2    0    0 -0.15232399251E+02  0.29920390764E+02 -0.27502135266E+02  0.47787271727E+02  0.20000003112E+02 0.  0.
         12    1    1    2    0    0  0.15232399251E+02 -0.29920390764E+02  0.27502135266E+02  0.43400728273E+02  0.00000000000E+00 0. -1.
         11    1    3    3    0    0 -0.40909257382E+01  0.39361919104E+01  0.20124329958E+01  0.60232189878E+01  0.51100000000E-03 0. -1.
        -11    1    3    3    0    0 -0.38832239459E+01  0.17766020987E+02 -0.14999644608E+02  0.23573295666E+02  0.51100000000E-03 0.  1.
        -12    1    3    3    0    0 -0.72582495673E+01  0.82181778670E+01 -0.14514923654E+02  0.18190757074E+02  0.00000000000E+00 0.  1.
</event>
<event>
 7    1  0.1246400E-009  0.4778727E+02  0.7816164E-02  0.1312668E+00
        -11   -1    0    0    0    0  0.00000000000E+00  0.00000000000E+00  0.45593999997E+02  0.45594000000E+02  0.51100000000E-03 0.  1.
         11   -1    0    0    0    0 -0.00000000000E+00 -0.00000000000E+00 -0.45593999997E+02  0.45594000000E+02  0.51100000000E-03 0. -1.
    9900012    2    1    2    0    0  0.16685710338E+02 -0.10814517901E+02  0.38577928434E+02  0.47787270868E+02  0.19999999194E+02 0.  0.
         12    1    1    2    0    0 -0.16685710338E+02  0.10814517901E+02 -0.38577928434E+02  0.43400729132E+02  0.00000000000E+00 0. -1.
         11    1    3    3    0    0  0.25494681223E+01 -0.58047085431E+01  0.13468856067E+01  0.64813987746E+01  0.51100000000E-03 0. -1.
        -11    1    3    3    0    0  0.44218554309E+01  0.29400605784E+01  0.12117305792E+02  0.13229733995E+02  0.51100000000E-03 0.  1.
        -12    1    3    3    0    0  0.97143867851E+01 -0.79498699365E+01  0.25113737036E+02  0.28076138099E+02  0.00000000000E+00 0.  1.
</event>
<event>
 7    1  0.1246400E-009  0.4778728E+02  0.7816164E-02  0.1312668E+00
        -11   -1    0    0    0    0  0.00000000000E+00  0.00000000000E+00  0.45593999997E+02  0.45594000000E+02  0.51100000000E-03 0. -1.
         11   -1    0    0    0    0 -0.00000000000E+00 -0.00000000000E+00 -0.45593999997E+02  0.45594000000E+02  0.51100000000E-03 0.  1.
    9900012    2    1    2    0    0  0.19365414342E+02  0.32138296258E+02 -0.21811316690E+02  0.47787275412E+02  0.20000019915E+02 0.  0.
         12    1    1    2    0    0 -0.19365414342E+02 -0.32138296258E+02  0.21811316690E+02  0.43400724588E+02  0.00000000000E+00 0. -1.
         11    1    3    3    0    0  0.20070113369E+02  0.23096349447E+02 -0.13746114249E+02  0.33544097329E+02  0.51100000000E-03 0.  1.
        -11    1    3    3    0    0 -0.13388721475E+01  0.74336894246E+01 -0.18287233402E+01  0.77715214987E+01  0.51100000000E-03 0. -1.
        -12    1    3    3    0    0  0.63417312001E+00  0.16082573858E+01 -0.62364791014E+01  0.64716565845E+01  0.00000000000E+00 0.  1.
</event>
<event>
 7    1  0.1246400E-009  0.4778728E+02  0.7816164E-02  0.1312668E+00
        -11   -1    0    0    0    0  0.00000000000E+00  0.00000000000E+00  0.45593999997E+02  0.45594000000E+02  0.51100000000E-03 0.  1.
         11   -1    0    0    0    0 -0.00000000000E+00 -0.00000000000E+00 -0.45593999997E+02  0.45594000000E+02  0.51100000000E-03 0. -1.
    9900012    2    1    2    0    0  0.12319305501E+02  0.31297044582E+02  0.27429046509E+02  0.47787275582E+02  0.20000020690E+02 0.  0.
         12    1    1    2    0    0 -0.12319305501E+02 -0.31297044582E+02 -0.27429046509E+02  0.43400724418E+02  0.00000000000E+00 0. -1.
         11    1    3    3    0    0  0.67529276870E+01  0.52447186815E+01  0.11085248235E+02  0.13999708393E+02  0.51100000000E-03 0. -1.
        -11    1    3    3    0    0  0.89519943626E+01  0.19175460280E+02  0.84564566298E+01  0.22789211022E+02  0.51100000000E-03 0.  1.
        -12    1    3    3    0    0 -0.33856165482E+01  0.68768656205E+01  0.78873416439E+01  0.10998356167E+02  0.00000000000E+00 0.  1.
</event>
<event>
 7    1  0.1246400E-009  0.4778727E+02  0.7816164E-02  0.1312668E+00
        -11   -1    0    0    0    0  0.00000000000E+00  0.00000000000E+00  0.45593999997E+02  0.45594000000E+02  0.51100000000E-03 0. -1.
         11   -1    0    0    0    0 -0.00000000000E+00 -0.00000000000E+00 -0.45593999997E+02  0.45594000000E+02  0.51100000000E-03 0.  1.
    9900012    2    1    2    0    0  0.29335151184E+02 -0.65388324653E+00 -0.31978817400E+02  0.47787269354E+02  0.19999992293E+02 0.  0.
         12    1    1    2    0    0 -0.29335151184E+02  0.65388324653E+00  0.31978817400E+02  0.43400730646E+02  0.00000000000E+00 0. -1.
         11    1    3    3    0    0  0.92455475562E+00 -0.23983242399E+01 -0.40442029704E+00  0.26019832231E+01  0.51100000000E-03 0. -1.
        -11    1    3    3    0    0  0.46756122469E+01 -0.72461676771E+00 -0.16011207386E+02  0.16695663555E+02  0.51100000000E-03 0.  1.
        -12    1    3    3    0    0  0.23734984182E+02  0.24690577610E+01 -0.15563189717E+02  0.28489622576E+02  0.00000000000E+00 0.  1.
</event>
<event>
 7    1  0.1311270E-009  0.4778727E+02  0.7816164E-02  0.1312668E+00
        -11   -1    0    0    0    0  0.00000000000E+00  0.00000000000E+00  0.45593999997E+02  0.45594000000E+02  0.51100000000E-03 0. -1.
         11   -1    0    0    0    0 -0.00000000000E+00 -0.00000000000E+00 -0.45593999997E+02  0.45594000000E+02  0.51100000000E-03 0.  1.
    9900012    2    1    2    0    0  0.17953975824E+02  0.32301101632E+01 -0.39380760464E+02  0.47787272422E+02  0.20000006283E+02 0.  0.
         12    1    1    2    0    0 -0.17953975824E+02 -0.32301101632E+01  0.39380760464E+02  0.43400727578E+02  0.00000000000E+00 0. -1.
         11    1    3    3    0    0 -0.37683856796E+01 -0.10058936974E+01 -0.50960739943E+01  0.64173610757E+01  0.51100000000E-03 0. -1.
        -11    1    3    3    0    0  0.11710333511E+02 -0.11147838269E+01 -0.16279398448E+02  0.20084657528E+02  0.51100000000E-03 0.  1.
        -12    1    3    3    0    0  0.10012027992E+02  0.53507876875E+01 -0.18005288021E+02  0.21285253819E+02  0.00000000000E+00 0.  1.
</event>
<event>
 7    1  0.1246400E-009  0.4778727E+02  0.7816164E-02  0.1312668E+00
        -11   -1    0    0    0    0  0.00000000000E+00  0.00000000000E+00  0.45593999997E+02  0.45594000000E+02  0.51100000000E-03 0.  1.
         11   -1    0    0    0    0 -0.00000000000E+00 -0.00000000000E+00 -0.45593999997E+02  0.45594000000E+02  0.51100000000E-03 0. -1.
    9900012    2    1    2    0    0 -0.40295879518E+02 -0.20679170379E-01  0.16120328724E+02  0.47787270375E+02  0.19999996949E+02 0.  0.
         12    1    1    2    0    0  0.40295879518E+02  0.20679170379E-01 -0.16120328724E+02  0.43400729625E+02  0.00000000000E+00 0. -1.
         11    1    3    3    0    0 -0.18242070385E+02 -0.36365337445E+01  0.56032450771E+01  0.19426627737E+02  0.51100000000E-03 0.  1.
        -11    1    3    3    0    0 -0.15042876157E+02  0.80111281541E+01  0.32549859714E+01  0.17351116140E+02  0.51100000000E-03 0. -1.
         12    1    3    3    0    0 -0.70109329771E+01 -0.43952735800E+01  0.72620976759E+01  0.11009526498E+02  0.00000000000E+00 0. -1.
</event>
<event>
 7    1  0.1246400E-009  0.4778728E+02  0.7816164E-02  0.1312668E+00
        -11   -1    0    0    0    0  0.00000000000E+00  0.00000000000E+00  0.45593999997E+02  0.45594000000E+02  0.51100000000E-03 0.  1.
         11   -1    0    0    0    0 -0.00000000000E+00 -0.00000000000E+00 -0.45593999997E+02  0.45594000000E+02  0.51100000000E-03 0. -1.
    9900012    2    1    2    0    0 -0.18690962922E+02  0.33386419566E+02  0.20484568753E+02  0.47787278077E+02  0.20000032066E+02 0.  0.
         12    1    1    2    0    0  0.18690962922E+02 -0.33386419566E+02 -0.20484568753E+02  0.43400721923E+02  0.00000000000E+00 0. -1.
         11    1    3    3    0    0 -0.84907643136E+01  0.12470526898E+02  0.75289171234E+01  0.16860952318E+02  0.51100000000E-03 0. -1.
        -11    1    3    3    0    0 -0.10716217056E+02  0.18644018803E+02  0.42577240347E+01  0.21921791883E+02  0.51100000000E-03 0.  1.
         12    1    3    3    0    0  0.51601844799E+00  0.22718738651E+01  0.86979275950E+01  0.90045338772E+01  0.00000000000E+00 0. -1.
</event>
<event>
 7    1  0.1246400E-009  0.4778727E+02  0.7816164E-02  0.1312668E+00
        -11   -1    0    0    0    0  0.00000000000E+00  0.00000000000E+00  0.45593999997E+02  0.45594000000E+02  0.51100000000E-03 0.  1.
         11   -1    0    0    0    0 -0.00000000000E+00 -0.00000000000E+00 -0.45593999997E+02  0.45594000000E+02  0.51100000000E-03 0. -1.
    9900012    2    1    2    0    0  0.38190511745E+01  0.59863859971E+01  0.42815899957E+02  0.47787271224E+02  0.20000000818E+02 0.  0.
         12    1    1    2    0    0 -0.38190511745E+01 -0.59863859971E+01 -0.42815899957E+02  0.43400728776E+02  0.00000000000E+00 0. -1.
         11    1    3    3    0    0  0.53032916376E+01  0.27041512266E+01  0.11044198199E+02  0.12546379963E+02  0.51100000000E-03 0. -1.
        -11    1    3    3    0    0 -0.26677369697E+01 -0.28225405698E+01  0.27316482977E+02  0.27591190592E+02  0.51100000000E-03 0.  1.
        -12    1    3    3    0    0  0.11834965066E+01  0.61047753403E+01  0.44552187815E+01  0.76497006692E+01  0.00000000000E+00 0.  1.
</event>
<event>
 7    1  0.1246400E-009  0.4778727E+02  0.7816164E-02  0.1312668E+00
        -11   -1    0    0    0    0  0.00000000000E+00  0.00000000000E+00  0.45593999997E+02  0.45594000000E+02  0.51100000000E-03 0. -1.
         11   -1    0    0    0    0 -0.00000000000E+00 -0.00000000000E+00 -0.45593999997E+02  0.45594000000E+02  0.51100000000E-03 0.  1.
    9900012    2    1    2    0    0 -0.42033317548E+02  0.58971716838E+01 -0.90579615341E+01  0.47787273219E+02  0.20000009916E+02 0.  0.
         12    1    1    2    0    0  0.42033317548E+02 -0.58971716838E+01  0.90579615341E+01  0.43400726781E+02  0.00000000000E+00 0. -1.
         11    1    3    3    0    0 -0.22890112997E+02  0.11209454412E+02 -0.31532371564E+01  0.25681745386E+02  0.51100000000E-03 0. -1.
        -11    1    3    3    0    0 -0.16050936220E+02 -0.19380193825E+01 -0.24081912920E+01  0.16345881995E+02  0.51100000000E-03 0.  1.
         12    1    3    3    0    0 -0.30922683311E+01 -0.33742633459E+01 -0.34965330858E+01  0.57596458380E+01  0.00000000000E+00 0. -1.
</event>
<event>
 7    1  0.1246400E-009  0.4778727E+02  0.7816164E-02  0.1312668E+00
        -11   -1    0    0    0    0  0.00000000000E+00  0.00000000000E+00  0.45593999997E+02  0.45594000000E+02  0.51100000000E-03 0.  1.
         11   -1    0    0    0    0 -0.00000000000E+00 -0.00000000000E+00 -0.45593999997E+02  0.45594000000E+02  0.51100000000E-03 0. -1.
    9900012    2    1    2    0    0  0.29851687343E+02  0.25135803036E+02  0.18991881516E+02  0.47787269649E+02  0.19999993639E+02 0.  0.
         12    1    1    2    0    0 -0.29851687343E+02 -0.25135803036E+02 -0.18991881516E+02  0.43400730351E+02  0.00000000000E+00 0. -1.
         11    1    3    3    0    0  0.65106322817E+01  0.25650711867E+01 -0.14199471353E+01  0.71403202329E+01  0.51100000000E-03 0. -1.
        -11    1    3    3    0    0  0.82787720085E+01  0.16422567795E+02  0.14189454024E+02  0.23228848544E+02  0.51100000000E-03 0.  1.
        -12    1    3    3    0    0  0.15062283052E+02  0.61481640544E+01  0.62223746273E+01  0.17418100872E+02  0.00000000000E+00 0.  1.
</event>
<event>
 7    1  0.1246400E-009  0.4778727E+02  0.7816164E-02  0.1312668E+00
        -11   -1    0    0    0    0  0.00000000000E+00  0.00000000000E+00  0.45593999997E+02  0.45594000000E+02  0.51100000000E-03 0.  1.
         11   -1    0    0    0    0 -0.00000000000E+00 -0.00000000000E+00 -0.45593999997E+02  0.45594000000E+02  0.51100000000E-03 0. -1.
    9900012    2    1    2    0    0  0.29814220527E+02  0.23582313817E+02  0.20943020668E+02  0.47787269761E+02  0.19999994146E+02 0.  0.
         12    1    1    2    0    0 -0.29814220527E+02 -0.23582313817E+02 -0.20943020668E+02  0.43400730239E+02  0.00000000000E+00 0. -1.
         11    1    3    3    0    0  0.21217833248E+02  0.92948032123E+01  0.97047542418E+01  0.25115176083E+02  0.51100000000E-03 0. -1.
        -11    1    3    3    0    0  0.86321573386E+01  0.98483648181E+01  0.12450941086E+02  0.18070151192E+02  0.51100000000E-03 0.  1.
         12    1    3    3    0    0 -0.35770059564E-01  0.44391457865E+01 -0.12126746602E+01  0.46019424858E+01  0.00000000000E+00 0. -1.
</event>
<event>
 7    1  0.1246400E-009  0.4778727E+02  0.7816164E-02  0.1312668E+00
        -11   -1    0    0    0    0  0.00000000000E+00  0.00000000000E+00  0.45593999997E+02  0.45594000000E+02  0.51100000000E-03 0.  1.
         11   -1    0    0    0    0 -0.00000000000E+00 -0.00000000000E+00 -0.45593999997E+02  0.45594000000E+02  0.51100000000E-03 0. -1.
    9900012    2    1    2    0    0 -0.39188844517E+02  0.16803670108E+02 -0.80928585509E+01  0.47787271628E+02  0.20000002661E+02 0.  0.
         12    1    1    2    0    0  0.39188844517E+02 -0.16803670108E+02  0.80928585509E+01  0.43400728372E+02  0.00000000000E+00 0. -1.
         11    1    3    3    0    0 -0.12325263034E+02  0.82975956053E+00 -0.71929829616E+01  0.14294740778E+02  0.51100000000E-03 0. -1.
        -11    1    3    3    0    0 -0.26950359452E+01 -0.17483699223E+01 -0.14335678594E+01  0.35178307520E+01  0.51100000000E-03 0.  1.
        -12    1    3    3    0    0 -0.24168545538E+02  0.17722280470E+02  0.53369227012E+00  0.29974700097E+02  0.00000000000E+00 0.  1.
</event>
<event>
 7    1  0.1246400E-009  0.4778729E+02  0.7816164E-02  0.1312668E+00
        -11   -1    0    0    0    0  0.00000000000E+00  0.00000000000E+00  0.45593999997E+02  0.45594000000E+02  0.51100000000E-03 0. -1.
         11   -1    0    0    0    0 -0.00000000000E+00 -0.00000000000E+00 -0.45593999997E+02  0.45594000000E+02  0.51100000000E-03 0.  1.
    9900012    2    1    2    0    0  0.27383214997E+02  0.32128235844E+02 -0.10077598089E+02  0.47787285890E+02  0.20000067686E+02 0.  0.
         12    1    1    2    0    0 -0.27383214997E+02 -0.32128235844E+02  0.10077598089E+02  0.43400714110E+02  0.00000000000E+00 0. -1.
         11    1    3    3    0    0  0.38007373091E+01  0.11328200529E+02 -0.50145916088E+01  0.12958389583E+02  0.51100000000E-03 0. -1.
        -11    1    3    3    0    0  0.15491162876E+02  0.46200696361E+01 -0.50568730415E+00  0.16173338882E+02  0.51100000000E-03 0.  1.
         12    1    3    3    0    0  0.80913148123E+01  0.16179965679E+02 -0.45573191756E+01  0.18655557425E+02  0.00000000000E+00 0. -1.
</event>
<event>
 7    1  0.1246400E-009  0.4778728E+02  0.7816164E-02  0.1312668E+00
        -11   -1    0    0    0    0  0.00000000000E+00  0.00000000000E+00  0.45593999997E+02  0.45594000000E+02  0.51100000000E-03 0.  1.
         11   -1    0    0    0    0 -0.00000000000E+00 -0.00000000000E+00 -0.45593999997E+02  0.45594000000E+02  0.51100000000E-03 0. -1.
    9900012    2    1    2    0    0  0.80540385444E+01  0.18451296711E+02  0.38448730308E+02  0.47787277085E+02  0.20000027543E+02 0.  0.
         12    1    1    2    0    0 -0.80540385444E+01 -0.18451296711E+02 -0.38448730308E+02  0.43400722915E+02  0.00000000000E+00 0. -1.
         11    1    3    3    0    0  0.11021027080E+01  0.12644752351E+02  0.98553476872E+01  0.16069607048E+02  0.51100000000E-03 0. -1.
        -11    1    3    3    0    0  0.92427025310E+01  0.53415602638E+01  0.18517697202E+02  0.21374398847E+02  0.51100000000E-03 0.  1.
        -12    1    3    3    0    0 -0.22907666946E+01  0.46498409705E+00  0.10075685419E+02  0.10343271191E+02  0.00000000000E+00 0.  1.
</event>
<event>
 7    1  0.1246400E-009  0.4778728E+02  0.7816164E-02  0.1312668E+00
        -11   -1    0    0    0    0  0.00000000000E+00  0.00000000000E+00  0.45593999997E+02  0.45594000000E+02  0.51100000000E-03 0.  1.
         11   -1    0    0    0    0 -0.00000000000E+00 -0.00000000000E+00 -0.45593999997E+02  0.45594000000E+02  0.51100000000E-03 0. -1.
    9900012    2    1    2    0    0 -0.14574449887E+01 -0.27381963638E+02  0.33641140501E+02  0.47787280965E+02  0.20000045231E+02 0.  0.
         12    1    1    2    0    0  0.14574449887E+01  0.27381963638E+02 -0.33641140501E+02  0.43400719035E+02  0.00000000000E+00 0. -1.
         11    1    3    3    0    0  0.59272253617E+01 -0.13802298687E+02  0.91470134492E+01  0.17587020920E+02  0.51100000000E-03 0. -1.
        -11    1    3    3    0    0 -0.36549490690E+01 -0.13194827811E+02  0.21037293639E+02  0.25100395566E+02  0.51100000000E-03 0.  1.
         12    1    3    3    0    0 -0.37297212814E+01 -0.38483714017E+00  0.34568334131E+01  0.50998644793E+01  0.00000000000E+00 0. -1.
</event>
<event>
 7    1  0.1246400E-009  0.4778727E+02  0.7816164E-02  0.1312668E+00
        -11   -1    0    0    0    0  0.00000000000E+00  0.00000000000E+00  0.45593999997E+02  0.45594000000E+02  0.51100000000E-03 0.  1.
         11   -1    0    0    0    0 -0.00000000000E+00 -0.00000000000E+00 -0.45593999997E+02  0.45594000000E+02  0.51100000000E-03 0. -1.
    9900012    2    1    2    0    0  0.32339085534E+02  0.24589229294E+02 -0.15270112904E+02  0.47787274216E+02  0.20000014459E+02 0.  0.
         12    1    1    2    0    0 -0.32339085534E+02 -0.24589229294E+02  0.15270112904E+02  0.43400725784E+02  0.00000000000E+00 0. -1.
         11    1    3    3    0    0  0.69908305789E+00  0.10474094380E+02 -0.27228691526E+01  0.10844786161E+02  0.51100000000E-03 0. -1.
        -11    1    3    3    0    0  0.96396194545E+01  0.30257880777E+01 -0.39591026392E+01  0.10851366305E+02  0.51100000000E-03 0.  1.
         12    1    3    3    0    0  0.22000383022E+02  0.11089346837E+02 -0.85881411124E+01  0.26091121750E+02  0.00000000000E+00 0. -1.
</event>
<event>
 7    1  0.1246400E-009  0.4778727E+02  0.7816164E-02  0.1312668E+00
        -11   -1    0    0    0    0  0.00000000000E+00  0.00000000000E+00  0.45593999997E+02  0.45594000000E+02  0.51100000000E-03 0. -1.
         11   -1    0    0    0    0 -0.00000000000E+00 -0.00000000000E+00 -0.45593999997E+02  0.45594000000E+02  0.51100000000E-03 0.  1.
    9900012    2    1    2    0    0 -0.10101688888E+02 -0.40563006830E+02 -0.11671415070E+02  0.47787267619E+02  0.19999984383E+02 0.  0.
         12    1    1    2    0    0  0.10101688888E+02  0.40563006830E+02  0.11671415070E+02  0.43400732381E+02  0.00000000000E+00 0. -1.
         11    1    3    3    0    0  0.14806543432E+01 -0.21236429870E+00 -0.16528156078E+01  0.22291782284E+01  0.51100000000E-03 0. -1.
        -11    1    3    3    0    0 -0.56475195601E+01 -0.35544233915E+02 -0.48009553805E+01  0.36308899937E+02  0.51100000000E-03 0.  1.
        -12    1    3    3    0    0 -0.59348236713E+01 -0.48064086158E+01 -0.52176440813E+01  0.92491894537E+01  0.00000000000E+00 0.  1.
</event>
<event>
 7    1  0.1246400E-009  0.4778727E+02  0.7816164E-02  0.1312668E+00
        -11   -1    0    0    0    0  0.00000000000E+00  0.00000000000E+00  0.45593999997E+02  0.45594000000E+02  0.51100000000E-03 0.  1.
         11   -1    0    0    0    0 -0.00000000000E+00 -0.00000000000E+00 -0.45593999997E+02  0.45594000000E+02  0.51100000000E-03 0. -1.
    9900012    2    1    2    0    0 -0.34858104600E+02  0.25266267327E+02  0.54910364568E+01  0.47787271869E+02  0.20000003759E+02 0.  0.
         12    1    1    2    0    0  0.34858104600E+02 -0.25266267327E+02 -0.54910364568E+01  0.43400728131E+02  0.00000000000E+00 0. -1.
         11    1    3    3    0    0 -0.73530285292E+01  0.32499809822E+01 -0.47841778256E+01  0.93550928731E+01  0.51100000000E-03 0. -1.
        -11    1    3    3    0    0 -0.11693159999E+02  0.11187732880E+02 -0.96988969279E+00  0.16212218973E+02  0.51100000000E-03 0.  1.
        -12    1    3    3    0    0 -0.15811916072E+02  0.10828553465E+02  0.11245103975E+02  0.22219960023E+02  0.00000000000E+00 0.  1.
</event>
<event>
 7    1  0.1246400E-009  0.4778727E+02  0.7816164E-02  0.1312668E+00
        -11   -1    0    0    0    0  0.00000000000E+00  0.00000000000E+00  0.45593999997E+02  0.45594000000E+02  0.51100000000E-03 0.  1.
         11   -1    0    0    0    0 -0.00000000000E+00 -0.00000000000E+00 -0.45593999997E+02  0.45594000000E+02  0.51100000000E-03 0. -1.
    9900012    2    1    2    0    0 -0.20365876527E+02 -0.33858953369E+02  0.17956209451E+02  0.47787272958E+02  0.20000008725E+02 0.  0.
         12    1    1    2    0    0  0.20365876527E+02  0.33858953369E+02 -0.17956209451E+02  0.43400727042E+02  0.00000000000E+00 0. -1.
         11    1    3    3    0    0 -0.98223100138E+01 -0.17806888681E+02  0.10530640403E+02  0.22901035917E+02  0.51100000000E-03 0. -1.
        -11    1    3    3    0    0 -0.85846543422E+01 -0.18486980402E+02  0.51588985266E+01  0.21025674040E+02  0.51100000000E-03 0.  1.
         12    1    3    3    0    0 -0.19589121708E+01  0.24349157151E+01  0.22666705213E+01  0.38605630010E+01  0.00000000000E+00 0. -1.
</event>
<event>
 7    1  0.1246400E-009  0.4778722E+02  0.7816164E-02  0.1312668E+00
        -11   -1    0    0    0    0  0.00000000000E+00  0.00000000000E+00  0.45593999997E+02  0.45594000000E+02  0.51100000000E-03 0.  1.
         11   -1    0    0    0    0 -0.00000000000E+00 -0.00000000000E+00 -0.45593999997E+02  0.45594000000E+02  0.51100000000E-03 0. -1.
    9900012    2    1    2    0    0  0.28400080611E+02  0.16193188533E+02  0.28545473562E+02  0.47787216661E+02  0.19999752043E+02 0.  0.
         12    1    1    2    0    0 -0.28400080611E+02 -0.16193188533E+02 -0.28545473562E+02  0.43400783339E+02  0.00000000000E+00 0. -1.
         11    1    3    3    0    0  0.68292269918E+01  0.12327369670E+02  0.64238669036E+01  0.15487687062E+02  0.51100000000E-03 0. -1.
        -11    1    3    3    0    0  0.16639594979E+02  0.65006959194E+01  0.17941433708E+02  0.25318574451E+02  0.51100000000E-03 0.  1.
        -12    1    3    3    0    0  0.49312586398E+01 -0.26348770561E+01  0.41801729510E+01  0.69809551477E+01  0.00000000000E+00 0.  1.
</event>
<event>
 7    1  0.1246400E-009  0.4778727E+02  0.7816164E-02  0.1312668E+00
        -11   -1    0    0    0    0  0.00000000000E+00  0.00000000000E+00  0.45593999997E+02  0.45594000000E+02  0.51100000000E-03 0. -1.
         11   -1    0    0    0    0 -0.00000000000E+00 -0.00000000000E+00 -0.45593999997E+02  0.45594000000E+02  0.51100000000E-03 0.  1.
    9900012    2    1    2    0    0  0.17526538998E+02 -0.17778372566E+02 -0.35501734700E+02  0.47787271122E+02  0.20000000356E+02 0.  0.
         12    1    1    2    0    0 -0.17526538998E+02  0.17778372566E+02  0.35501734700E+02  0.43400728878E+02  0.00000000000E+00 0. -1.
         11    1    3    3    0    0 -0.67459142568E+00  0.26791869217E+01 -0.55078923949E+01  0.61619797994E+01  0.51100000000E-03 0. -1.
        -11    1    3    3    0    0 -0.53939151439E+00 -0.27385810583E+01 -0.49102886678E+01  0.56481593888E+01  0.51100000000E-03 0.  1.
        -12    1    3    3    0    0  0.18740521939E+02 -0.17718978430E+02 -0.25083553638E+02  0.35977131934E+02  0.00000000000E+00 0.  1.
</event>
<event>
 7    1  0.1246400E-009  0.4778727E+02  0.7816164E-02  0.1312668E+00
        -11   -1    0    0    0    0  0.00000000000E+00  0.00000000000E+00  0.45593999997E+02  0.45594000000E+02  0.51100000000E-03 0.  1.
         11   -1    0    0    0    0 -0.00000000000E+00 -0.00000000000E+00 -0.45593999997E+02  0.45594000000E+02  0.51100000000E-03 0. -1.
    9900012    2    1    2    0    0  0.16001118062E+02 -0.13922767974E+02  0.37864813521E+02  0.47787270165E+02  0.19999995990E+02 0.  0.
         12    1    1    2    0    0 -0.16001118062E+02  0.13922767974E+02 -0.37864813521E+02  0.43400729835E+02  0.00000000000E+00 0. -1.
         11    1    3    3    0    0 -0.78321986179E+00 -0.54399090236E+01  0.48186518408E+01  0.73092714658E+01  0.51100000000E-03 0. -1.
        -11    1    3    3    0    0  0.14939968467E+02 -0.11801954753E+02  0.30325615869E+02  0.35806867663E+02  0.51100000000E-03 0.  1.
         12    1    3    3    0    0  0.18443694566E+01  0.33190958032E+01  0.27205458110E+01  0.46711310357E+01  0.00000000000E+00 0. -1.
</event>
<event>
 7    1  0.1246400E-009  0.4778727E+02  0.7816164E-02  0.1312668E+00
        -11   -1    0    0    0    0  0.00000000000E+00  0.00000000000E+00  0.45593999997E+02  0.45594000000E+02  0.51100000000E-03 0.  1.
         11   -1    0    0    0    0 -0.00000000000E+00 -0.00000000000E+00 -0.45593999997E+02  0.45594000000E+02  0.51100000000E-03 0. -1.
    9900012    2    1    2    0    0 -0.18525193504E+02 -0.29393268929E+02 -0.26009159371E+02  0.47787269316E+02  0.19999992121E+02 0.  0.
         12    1    1    2    0    0  0.18525193504E+02  0.29393268929E+02  0.26009159371E+02  0.43400730684E+02  0.00000000000E+00 0. -1.
         11    1    3    3    0    0  0.15930002966E+01  0.76296862961E+00 -0.45728247334E+01  0.49020911230E+01  0.51100000000E-03 0. -1.
        -11    1    3    3    0    0 -0.85378097792E+01 -0.19437902963E+02 -0.10488115312E+02  0.23679671249E+02  0.51100000000E-03 0.  1.
        -12    1    3    3    0    0 -0.11580384021E+02 -0.10718334596E+02 -0.10948219326E+02  0.19205506944E+02  0.00000000000E+00 0.  1.
</event>
<event>
 7    1  0.1246400E-009  0.4778727E+02  0.7816164E-02  0.1312668E+00
        -11   -1    0    0    0    0  0.00000000000E+00  0.00000000000E+00  0.45593999997E+02  0.45594000000E+02  0.51100000000E-03 0.  1.
         11   -1    0    0    0    0 -0.00000000000E+00 -0.00000000000E+00 -0.45593999997E+02  0.45594000000E+02  0.51100000000E-03 0. -1.
    9900012    2    1    2    0    0 -0.76109710874E+01 -0.15826700006E+02  0.39688944794E+02  0.47787266679E+02  0.19999980094E+02 0.  0.
         12    1    1    2    0    0  0.76109710874E+01  0.15826700006E+02 -0.39688944794E+02  0.43400733321E+02  0.00000000000E+00 0. -1.
         11    1    3    3    0    0  0.54820889500E+01 -0.88175749711E-01  0.91871972788E+01  0.10698862945E+02  0.51100000000E-03 0.  1.
        -11    1    3    3    0    0 -0.60486353023E+01 -0.41038624102E+01  0.13108474831E+02  0.15008657114E+02  0.51100000000E-03 0. -1.
        -12    1    3    3    0    0 -0.70444247350E+01 -0.11634661846E+02  0.17393272684E+02  0.22079746619E+02  0.00000000000E+00 0.  1.
</event>
<event>
 7    1  0.1246400E-009  0.4778727E+02  0.7816164E-02  0.1312668E+00
        -11   -1    0    0    0    0  0.00000000000E+00  0.00000000000E+00  0.45593999997E+02  0.45594000000E+02  0.51100000000E-03 0.  1.
         11   -1    0    0    0    0 -0.00000000000E+00 -0.00000000000E+00 -0.45593999997E+02  0.45594000000E+02  0.51100000000E-03 0. -1.
    9900012    2    1    2    0    0 -0.34350015576E+01 -0.41546270300E+02 -0.12071941491E+02  0.47787267484E+02  0.19999983768E+02 0.  0.
         12    1    1    2    0    0  0.34350015576E+01  0.41546270300E+02  0.12071941491E+02  0.43400732516E+02  0.00000000000E+00 0. -1.
         11    1    3    3    0    0  0.53105197741E+01 -0.25372444441E+02 -0.12452139732E+02  0.28757926583E+02  0.51100000000E-03 0. -1.
        -11    1    3    3    0    0 -0.19225347058E+01 -0.94718478425E+00  0.92667935955E+00  0.23349590161E+01  0.51100000000E-03 0.  1.
         12    1    3    3    0    0 -0.68229866260E+01 -0.15226641075E+02 -0.54648111876E+00  0.16694381885E+02  0.00000000000E+00 0. -1.
</event>
<event>
 7    1  0.1246400E-009  0.4778727E+02  0.7816164E-02  0.1312668E+00
        -11   -1    0    0    0    0  0.00000000000E+00  0.00000000000E+00  0.45593999997E+02  0.45594000000E+02  0.51100000000E-03 0. -1.
         11   -1    0    0    0    0 -0.00000000000E+00 -0.00000000000E+00 -0.45593999997E+02  0.45594000000E+02  0.51100000000E-03 0.  1.
    9900012    2    1    2    0    0  0.11534813681E+02 -0.34125575716E+02 -0.24207772267E+02  0.47787273246E+02  0.20000010040E+02 0.  0.
         12    1    1    2    0    0 -0.11534813681E+02  0.34125575716E+02  0.24207772267E+02  0.43400726754E+02  0.00000000000E+00 0. -1.
         11    1    3    3    0    0  0.98479574668E+00  0.92204505489E+00  0.11545403892E+01  0.17756557992E+01  0.51100000000E-03 0. -1.
        -11    1    3    3    0    0  0.88207444573E+00 -0.15907993841E+02 -0.16110174911E+02  0.22657891766E+02  0.51100000000E-03 0.  1.
         12    1    3    3    0    0  0.96679434887E+01 -0.19139626930E+02 -0.92521377448E+01  0.23353725681E+02  0.00000000000E+00 0. -1.
</event>
<event>
 7    1  0.1246400E-009  0.4778727E+02  0.7816164E-02  0.1312668E+00
        -11   -1    0    0    0    0  0.00000000000E+00  0.00000000000E+00  0.45593999997E+02  0.45594000000E+02  0.51100000000E-03 0.  1.
         11   -1    0    0    0    0 -0.00000000000E+00 -0.00000000000E+00 -0.45593999997E+02  0.45594000000E+02  0.51100000000E-03 0. -1.
    9900012    2    1    2    0    0 -0.36253598527E+02 -0.21593342789E+02  0.10150235991E+02  0.47787272476E+02  0.20000006527E+02 0.  0.
         12    1    1    2    0    0  0.36253598527E+02  0.21593342789E+02 -0.10150235991E+02  0.43400727524E+02  0.00000000000E+00 0. -1.
         11    1    3    3    0    0 -0.22640991021E+01 -0.63523555378E+01  0.72605129238E+00  0.67827513859E+01  0.51100000000E-03 0. -1.
        -11    1    3    3    0    0 -0.23684024289E+02 -0.11053403324E+02  0.13169925371E+02  0.29267006442E+02  0.51100000000E-03 0.  1.
         12    1    3    3    0    0 -0.10305475136E+02 -0.41875839277E+01 -0.37457406724E+01  0.11737514648E+02  0.00000000000E+00 0. -1.
</event>
<event>
 7    1  0.1246400E-009  0.4778727E+02  0.7816164E-02  0.1312668E+00
        -11   -1    0    0    0    0  0.00000000000E+00  0.00000000000E+00  0.45593999997E+02  0.45594000000E+02  0.51100000000E-03 0.  1.
         11   -1    0    0    0    0 -0.00000000000E+00 -0.00000000000E+00 -0.45593999997E+02  0.45594000000E+02  0.51100000000E-03 0. -1.
    9900012    2    1    2    0    0 -0.41158185723E+02  0.94202116198E+01  0.10044232199E+02  0.47787271441E+02  0.20000001808E+02 0.  0.
         12    1    1    2    0    0  0.41158185723E+02 -0.94202116198E+01 -0.10044232199E+02  0.43400728559E+02  0.00000000000E+00 0. -1.
         11    1    3    3    0    0 -0.77474975521E+01 -0.25343051065E+01  0.15976224008E+01  0.83065527320E+01  0.51100000000E-03 0. -1.
        -11    1    3    3    0    0 -0.24202646227E+02  0.14775128005E+02  0.92248562984E+01  0.29818961517E+02  0.51100000000E-03 0.  1.
        -12    1    3    3    0    0 -0.92080419440E+01 -0.28206112782E+01 -0.77824650028E+00  0.96617571922E+01  0.00000000000E+00 0.  1.
</event>
<event>
 7    1  0.1246400E-009  0.4778728E+02  0.7816164E-02  0.1312668E+00
        -11   -1    0    0    0    0  0.00000000000E+00  0.00000000000E+00  0.45593999997E+02  0.45594000000E+02  0.51100000000E-03 0.  1.
         11   -1    0    0    0    0 -0.00000000000E+00 -0.00000000000E+00 -0.45593999997E+02  0.45594000000E+02  0.51100000000E-03 0. -1.
    9900012    2    1    2    0    0 -0.27007762899E+02  0.33070349568E+02 -0.77817394343E+01  0.47787277126E+02  0.20000027728E+02 0.  0.
         12    1    1    2    0    0  0.27007762899E+02 -0.33070349568E+02  0.77817394343E+01  0.43400722874E+02  0.00000000000E+00 0. -1.
         11    1    3    3    0    0 -0.98663361117E+01  0.48894811209E+01  0.10124164553E+01  0.11057875078E+02  0.51100000000E-03 0. -1.
        -11    1    3    3    0    0 -0.14235527787E+02  0.18046861305E+02 -0.11702513411E+02  0.25793182718E+02  0.51100000000E-03 0.  1.
         12    1    3    3    0    0 -0.29058990007E+01  0.10134007142E+02  0.29083575217E+01  0.10936219330E+02  0.00000000000E+00 0. -1.
</event>
<event>
 7    1  0.1246400E-009  0.4778727E+02  0.7816164E-02  0.1312668E+00
        -11   -1    0    0    0    0  0.00000000000E+00  0.00000000000E+00  0.45593999997E+02  0.45594000000E+02  0.51100000000E-03 0.  1.
         11   -1    0    0    0    0 -0.00000000000E+00 -0.00000000000E+00 -0.45593999997E+02  0.45594000000E+02  0.51100000000E-03 0. -1.
    9900012    2    1    2    0    0 -0.29452627430E+02  0.14826613498E+02  0.28219455307E+02  0.47787269728E+02  0.19999993996E+02 0.  0.
         12    1    1    2    0    0  0.29452627430E+02 -0.14826613498E+02 -0.28219455307E+02  0.43400730272E+02  0.00000000000E+00 0. -1.
         11    1    3    3    0    0 -0.99430314780E+01 -0.47439363545E+00  0.11134821444E+01  0.10016424863E+02  0.51100000000E-03 0. -1.
        -11    1    3    3    0    0 -0.10489440592E+02  0.45406837568E+01  0.75584119053E+01  0.13703129705E+02  0.51100000000E-03 0.  1.
        -12    1    3    3    0    0 -0.90201553593E+01  0.10760323377E+02  0.19547561258E+02  0.24067715159E+02  0.00000000000E+00 0.  1.
</event>
<event>
 7    1  0.1246400E-009  0.4778727E+02  0.7816164E-02  0.1312668E+00
        -11   -1    0    0    0    0  0.00000000000E+00  0.00000000000E+00  0.45593999997E+02  0.45594000000E+02  0.51100000000E-03 0.  1.
         11   -1    0    0    0    0 -0.00000000000E+00 -0.00000000000E+00 -0.45593999997E+02  0.45594000000E+02  0.51100000000E-03 0. -1.
    9900012    2    1    2    0    0  0.14552563077E+02  0.26891692849E+02  0.30800704843E+02  0.47787266651E+02  0.19999979969E+02 0.  0.
         12    1    1    2    0    0 -0.14552563077E+02 -0.26891692849E+02 -0.30800704843E+02  0.43400733349E+02  0.00000000000E+00 0. -1.
         11    1    3    3    0    0 -0.44679520852E+01  0.57993711906E+01  0.37939972186E+01  0.82455877412E+01  0.51100000000E-03 0. -1.
        -11    1    3    3    0    0  0.99616705797E+01  0.14441664834E+02  0.14837109940E+02  0.22976866530E+02  0.51100000000E-03 0.  1.
        -12    1    3    3    0    0  0.90588445828E+01  0.66506568248E+01  0.12169597684E+02  0.16564812380E+02  0.00000000000E+00 0.  1.
</event>
<event>
 7    1  0.1246400E-009  0.4778727E+02  0.7816164E-02  0.1312668E+00
        -11   -1    0    0    0    0  0.00000000000E+00  0.00000000000E+00  0.45593999997E+02  0.45594000000E+02  0.51100000000E-03 0. -1.
         11   -1    0    0    0    0 -0.00000000000E+00 -0.00000000000E+00 -0.45593999997E+02  0.45594000000E+02  0.51100000000E-03 0.  1.
    9900012    2    1    2    0    0  0.42530601189E+02  0.22584781267E+00  0.86440916217E+01  0.47787269998E+02  0.19999995229E+02 0.  0.
         12    1    1    2    0    0 -0.42530601189E+02 -0.22584781267E+00 -0.86440916217E+01  0.43400730002E+02  0.00000000000E+00 0. -1.
         11    1    3    3    0    0  0.68778073707E+01 -0.49753510209E+01  0.28831628137E+01  0.89649863402E+01  0.51100000000E-03 0. -1.
        -11    1    3    3    0    0  0.33332105740E+02  0.36210040456E+01  0.88212128093E+01  0.34669218899E+02  0.51100000000E-03 0.  1.
         12    1    3    3    0    0  0.23206880782E+01  0.15801947880E+01 -0.30602840013E+01  0.41530647590E+01  0.00000000000E+00 0. -1.
</event>
<event>
 7    1  0.1246400E-009  0.4778727E+02  0.7816164E-02  0.1312668E+00
        -11   -1    0    0    0    0  0.00000000000E+00  0.00000000000E+00  0.45593999997E+02  0.45594000000E+02  0.51100000000E-03 0.  1.
         11   -1    0    0    0    0 -0.00000000000E+00 -0.00000000000E+00 -0.45593999997E+02  0.45594000000E+02  0.51100000000E-03 0. -1.
    9900012    2    1    2    0    0 -0.35312601291E+02 -0.28596221701E+01  0.25069223873E+02  0.47787271498E+02  0.20000002067E+02 0.  0.
         12    1    1    2    0    0  0.35312601291E+02  0.28596221701E+01 -0.25069223873E+02  0.43400728502E+02  0.00000000000E+00 0. -1.
         11    1    3    3    0    0  0.76585654718E+00 -0.25134453918E+01  0.15250332229E+01  0.30380372908E+01  0.51100000000E-03 0. -1.
        -11    1    3    3    0    0 -0.14810334140E+02  0.40691393056E+01  0.14813243956E+02  0.21338605596E+02  0.51100000000E-03 0.  1.
         12    1    3    3    0    0 -0.21268123699E+02 -0.44153160840E+01  0.87309466948E+01  0.23410628611E+02  0.00000000000E+00 0. -1.
</event>
<event>
 7    1  0.1246400E-009  0.4778727E+02  0.7816164E-02  0.1312668E+00
        -11   -1    0    0    0    0  0.00000000000E+00  0.00000000000E+00  0.45593999997E+02  0.45594000000E+02  0.51100000000E-03 0.  1.
         11   -1    0    0    0    0 -0.00000000000E+00 -0.00000000000E+00 -0.45593999997E+02  0.45594000000E+02  0.51100000000E-03 0. -1.
    9900012    2    1    2    0    0  0.14548080175E+02 -0.11386010340E+02  0.39272582484E+02  0.47787267250E+02  0.19999982700E+02 0.  0.
         12    1    1    2    0    0 -0.14548080175E+02  0.11386010340E+02 -0.39272582484E+02  0.43400732750E+02  0.00000000000E+00 0. -1.
         11    1    3    3    0    0  0.19847268360E+00 -0.16958905598E+01 -0.94531524515E+00  0.19516806529E+01  0.51100000000E-03 0. -1.
        -11    1    3    3    0    0  0.10443158382E+02 -0.37471034924E+01  0.10490437255E+02  0.15269237559E+02  0.51100000000E-03 0.  1.
         12    1    3    3    0    0  0.39064491088E+01 -0.59430162883E+01  0.29727460475E+02  0.30566349038E+02  0.00000000000E+00 0. -1.
</event>
<event>
 7    1  0.1246400E-009  0.4778730E+02  0.7816164E-02  0.1312668E+00
        -11   -1    0    0    0    0  0.00000000000E+00  0.00000000000E+00  0.45593999997E+02  0.45594000000E+02  0.51100000000E-03 0.  1.
         11   -1    0    0    0    0 -0.00000000000E+00 -0.00000000000E+00 -0.45593999997E+02  0.45594000000E+02  0.51100000000E-03 0. -1.
    9900012    2    1    2    0    0 -0.20839326739E+02 -0.35324257806E+02 -0.14196488970E+02  0.47787296923E+02  0.20000117990E+02 0.  0.
         12    1    1    2    0    0  0.20839326739E+02  0.35324257806E+02  0.14196488970E+02  0.43400703077E+02  0.00000000000E+00 0. -1.
         11    1    3    3    0    0 -0.83362631915E+01 -0.39277061984E+01 -0.21550101353E+01  0.94638379595E+01  0.51100000000E-03 0. -1.
        -11    1    3    3    0    0 -0.12040066370E+02 -0.15798537632E+02 -0.10946973349E+02  0.22680238431E+02  0.51100000000E-03 0.  1.
        -12    1    3    3    0    0 -0.46299717741E+00 -0.15598013976E+02 -0.10945054858E+01  0.15643220533E+02  0.00000000000E+00 0.  1.
</event>
<event>
 7    1  0.1246400E-009  0.4778727E+02  0.7816164E-02  0.1312668E+00
        -11   -1    0    0    0    0  0.00000000000E+00  0.00000000000E+00  0.45593999997E+02  0.45594000000E+02  0.51100000000E-03 0. -1.
         11   -1    0    0    0    0 -0.00000000000E+00 -0.00000000000E+00 -0.45593999997E+02  0.45594000000E+02  0.51100000000E-03 0.  1.
    9900012    2    1    2    0    0  0.26934643426E+02 -0.24896293562E+02 -0.23201782381E+02  0.47787272411E+02  0.20000006230E+02 0.  0.
         12    1    1    2    0    0 -0.26934643426E+02  0.24896293562E+02  0.23201782381E+02  0.43400727589E+02  0.00000000000E+00 0. -1.
         11    1    3    3    0    0  0.63241926641E+01 -0.17823085966E+01 -0.23056168045E+01  0.69633257785E+01  0.51100000000E-03 0. -1.
        -11    1    3    3    0    0  0.45690238028E+01 -0.15640931928E+02 -0.15064002469E+02  0.22190964394E+02  0.51100000000E-03 0.  1.
         12    1    3    3    0    0  0.16041426959E+02 -0.74730530378E+01 -0.58321631066E+01  0.18632982238E+02  0.00000000000E+00 0. -1.
</event>
<event>
 7    1  0.1246400E-009  0.4778727E+02  0.7816164E-02  0.1312668E+00
        -11   -1    0    0    0    0  0.00000000000E+00  0.00000000000E+00  0.45593999997E+02  0.45594000000E+02  0.51100000000E-03 0. -1.
         11   -1    0    0    0    0 -0.00000000000E+00 -0.00000000000E+00 -0.45593999997E+02  0.45594000000E+02  0.51100000000E-03 0.  1.
    9900012    2    1    2    0    0 -0.22825824757E+02  0.31833934846E+02 -0.18687044849E+02  0.47787270412E+02  0.19999997117E+02 0.  0.
         12    1    1    2    0    0  0.22825824757E+02 -0.31833934846E+02  0.18687044849E+02  0.43400729588E+02  0.00000000000E+00 0. -1.
         11    1    3    3    0    0 -0.55081359914E+01  0.11187778618E+02  0.18698635767E+01  0.12609613101E+02  0.51100000000E-03 0. -1.
        -11    1    3    3    0    0 -0.97429099661E+00  0.23634397657E+01 -0.63302831248E+01  0.68269740862E+01  0.51100000000E-03 0.  1.
        -12    1    3    3    0    0 -0.16343397769E+02  0.18282716462E+02 -0.14226625300E+02  0.28350683225E+02  0.00000000000E+00 0.  1.
</event>
<event>
 7    1  0.1246400E-009  0.4778727E+02  0.7816164E-02  0.1312668E+00
        -11   -1    0    0    0    0  0.00000000000E+00  0.00000000000E+00  0.45593999997E+02  0.45594000000E+02  0.51100000000E-03 0. -1.
         11   -1    0    0    0    0 -0.00000000000E+00 -0.00000000000E+00 -0.45593999997E+02  0.45594000000E+02  0.51100000000E-03 0.  1.
    9900012    2    1    2    0    0 -0.32259484561E+02  0.27167301905E+02 -0.10241410105E+02  0.47787272841E+02  0.20000008194E+02 0.  0.
         12    1    1    2    0    0  0.32259484561E+02 -0.27167301905E+02  0.10241410105E+02  0.43400727159E+02  0.00000000000E+00 0. -1.
         11    1    3    3    0    0 -0.41771764535E+01  0.14569880519E+02 -0.15287625035E+01  0.15233756481E+02  0.51100000000E-03 0. -1.
        -11    1    3    3    0    0 -0.15420025020E+02  0.97228017699E+01 -0.66595220951E+01  0.19407711887E+02  0.51100000000E-03 0.  1.
         12    1    3    3    0    0 -0.12662283087E+02  0.28746196159E+01 -0.20531255065E+01  0.13145804474E+02  0.00000000000E+00 0. -1.
</event>
<event>
 7    1  0.1246400E-009  0.4778727E+02  0.7816164E-02  0.1312668E+00
        -11   -1    0    0    0    0  0.00000000000E+00  0.00000000000E+00  0.45593999997E+02  0.45594000000E+02  0.51100000000E-03 0. -1.
         11   -1    0    0    0    0 -0.00000000000E+00 -0.00000000000E+00 -0.45593999997E+02  0.45594000000E+02  0.51100000000E-03 0.  1.
    9900012    2    1    2    0    0 -0.21255407690E+02 -0.20866818044E+02 -0.31565914239E+02  0.47787269671E+02  0.19999993738E+02 0.  0.
         12    1    1    2    0    0  0.21255407690E+02  0.20866818044E+02  0.31565914239E+02  0.43400730329E+02  0.00000000000E+00 0. -1.
         11    1    3    3    0    0 -0.39675866064E+01 -0.52261336210E+01 -0.21210581413E+02  0.22202319254E+02  0.51100000000E-03 0. -1.
        -11    1    3    3    0    0 -0.71536026942E+01 -0.61186280856E+01 -0.52008390771E+01  0.10754551061E+02  0.51100000000E-03 0.  1.
         12    1    3    3    0    0 -0.10134218390E+02 -0.95220563372E+01 -0.51544937482E+01  0.14830399356E+02  0.00000000000E+00 0. -1.
</event>
<event>
 7    1  0.1246400E-009  0.4778727E+02  0.7816164E-02  0.1312668E+00
        -11   -1    0    0    0    0  0.00000000000E+00  0.00000000000E+00  0.45593999997E+02  0.45594000000E+02  0.51100000000E-03 0.  1.
         11   -1    0    0    0    0 -0.00000000000E+00 -0.00000000000E+00 -0.45593999997E+02  0.45594000000E+02  0.51100000000E-03 0. -1.
    9900012    2    1    2    0    0  0.20751710514E+02  0.89055696079E+01  0.37063199098E+02  0.47787269745E+02  0.19999994074E+02 0.  0.
         12    1    1    2    0    0 -0.20751710514E+02 -0.89055696079E+01 -0.37063199098E+02  0.43400730255E+02  0.00000000000E+00 0. -1.
         11    1    3    3    0    0  0.89861866279E+01  0.10099649060E+02  0.12571593682E+02  0.18460753755E+02  0.51100000000E-03 0. -1.
        -11    1    3    3    0    0 -0.11853684087E+01 -0.25416053709E+01  0.24384500783E+01  0.37163012756E+01  0.51100000000E-03 0.  1.
        -12    1    3    3    0    0  0.12950892295E+02  0.13475259188E+01  0.22053155338E+02  0.25610214714E+02  0.00000000000E+00 0.  1.
</event>
<event>
 7    1  0.1246400E-009  0.4778727E+02  0.7816164E-02  0.1312668E+00
        -11   -1    0    0    0    0  0.00000000000E+00  0.00000000000E+00  0.45593999997E+02  0.45594000000E+02  0.51100000000E-03 0.  1.
         11   -1    0    0    0    0 -0.00000000000E+00 -0.00000000000E+00 -0.45593999997E+02  0.45594000000E+02  0.51100000000E-03 0. -1.
    9900012    2    1    2    0    0 -0.21923510726E+02  0.16601116155E+01  0.37419605165E+02  0.47787272543E+02  0.20000006831E+02 0.  0.
         12    1    1    2    0    0  0.21923510726E+02 -0.16601116155E+01 -0.37419605165E+02  0.43400727457E+02  0.00000000000E+00 0. -1.
         11    1    3    3    0    0 -0.88133748619E+01  0.53455449604E+01  0.14616675912E+02  0.17885682608E+02  0.51100000000E-03 0. -1.
        -11    1    3    3    0    0 -0.30523440346E+01  0.26365536663E+01  0.15364937045E+02  0.15885512582E+02  0.51100000000E-03 0.  1.
         12    1    3    3    0    0 -0.10057791830E+02 -0.63219870113E+01  0.74379922070E+01  0.14016077352E+02  0.00000000000E+00 0. -1.
</event>
<event>
 7    1  0.1246400E-009  0.4778727E+02  0.7816164E-02  0.1312668E+00
        -11   -1    0    0    0    0  0.00000000000E+00  0.00000000000E+00  0.45593999997E+02  0.45594000000E+02  0.51100000000E-03 0.  1.
         11   -1    0    0    0    0 -0.00000000000E+00 -0.00000000000E+00 -0.45593999997E+02  0.45594000000E+02  0.51100000000E-03 0. -1.
    9900012    2    1    2    0    0 -0.25372410376E+01 -0.84137309706E+01  0.42501703534E+02  0.47787271156E+02  0.20000000509E+02 0.  0.
         12    1    1    2    0    0  0.25372410376E+01  0.84137309706E+01 -0.42501703534E+02  0.43400728844E+02  0.00000000000E+00 0. -1.
         11    1    3    3    0    0 -0.25544461441E+01  0.21220412005E+01  0.19701946089E+01  0.38613366880E+01  0.51100000000E-03 0. -1.
        -11    1    3    3    0    0  0.63840085809E+01 -0.33228256382E+01  0.19900036027E+02  0.21161478443E+02  0.51100000000E-03 0.  1.
        -12    1    3    3    0    0 -0.63668034744E+01 -0.72129465329E+01  0.20631472898E+02  0.22764456025E+02  0.00000000000E+00 0.  1.
</event>
<event>
 7    1  0.1246400E-009  0.4778727E+02  0.7816164E-02  0.1312668E+00
        -11   -1    0    0    0    0  0.00000000000E+00  0.00000000000E+00  0.45593999997E+02  0.45594000000E+02  0.51100000000E-03 0. -1.
         11   -1    0    0    0    0 -0.00000000000E+00 -0.00000000000E+00 -0.45593999997E+02  0.45594000000E+02  0.51100000000E-03 0.  1.
    9900012    2    1    2    0    0 -0.38475222512E+02 -0.95262203553E+01 -0.17678563820E+02  0.47787271431E+02  0.20000001762E+02 0.  0.
         12    1    1    2    0    0  0.38475222512E+02  0.95262203553E+01  0.17678563820E+02  0.43400728569E+02  0.00000000000E+00 0. -1.
         11    1    3    3    0    0 -0.21377542438E+02 -0.12387843019E+02 -0.48325542526E+01  0.25175614316E+02  0.51100000000E-03 0. -1.
        -11    1    3    3    0    0 -0.47566391075E+01 -0.99441141661E+00 -0.67498089923E+01  0.83171143649E+01  0.51100000000E-03 0.  1.
        -12    1    3    3    0    0 -0.12341040966E+02  0.38560340804E+01 -0.60962005756E+01  0.14294542750E+02  0.00000000000E+00 0.  1.
</event>
<event>
 7    1  0.1246400E-009  0.4778727E+02  0.7816164E-02  0.1312668E+00
        -11   -1    0    0    0    0  0.00000000000E+00  0.00000000000E+00  0.45593999997E+02  0.45594000000E+02  0.51100000000E-03 0.  1.
         11   -1    0    0    0    0 -0.00000000000E+00 -0.00000000000E+00 -0.45593999997E+02  0.45594000000E+02  0.51100000000E-03 0. -1.
    9900012    2    1    2    0    0 -0.37708423328E+02  0.19641854225E+01  0.21397199824E+02  0.47787269885E+02  0.19999994712E+02 0.  0.
         12    1    1    2    0    0  0.37708423328E+02 -0.19641854225E+01 -0.21397199824E+02  0.43400730115E+02  0.00000000000E+00 0. -1.
         11    1    3    3    0    0 -0.84120365316E+01  0.31870480809E+01  0.99941728000E+01  0.13446305228E+02  0.51100000000E-03 0.  1.
        -11    1    3    3    0    0 -0.29789906006E+02  0.29834645801E+00  0.12596966870E+02  0.32345186427E+02  0.51100000000E-03 0. -1.
         12    1    3    3    0    0  0.49351920952E+00 -0.15212091164E+01 -0.11939398452E+01  0.19957782292E+01  0.00000000000E+00 0. -1.
</event>
<event>
 7    1  0.1246400E-009  0.4778727E+02  0.7816164E-02  0.1312668E+00
        -11   -1    0    0    0    0  0.00000000000E+00  0.00000000000E+00  0.45593999997E+02  0.45594000000E+02  0.51100000000E-03 0. -1.
         11   -1    0    0    0    0 -0.00000000000E+00 -0.00000000000E+00 -0.45593999997E+02  0.45594000000E+02  0.51100000000E-03 0.  1.
    9900012    2    1    2    0    0 -0.41400539386E+02  0.12882879172E+02 -0.19105503791E+01  0.47787269131E+02  0.19999991275E+02 0.  0.
         12    1    1    2    0    0  0.41400539386E+02 -0.12882879172E+02  0.19105503791E+01  0.43400730869E+02  0.00000000000E+00 0. -1.
         11    1    3    3    0    0 -0.14574332399E+02  0.59462876531E+01  0.30301750159E+00  0.15743612088E+02  0.51100000000E-03 0. -1.
        -11    1    3    3    0    0  0.10627554209E+01  0.19686372919E+01  0.24684038858E+01  0.33313660676E+01  0.51100000000E-03 0.  1.
        -12    1    3    3    0    0 -0.27888962408E+02  0.49679542275E+01 -0.46819717665E+01  0.28712290975E+02  0.00000000000E+00 0.  1.
</event>
<event>
 7    1  0.1246400E-009  0.4778727E+02  0.7816164E-02  0.1312668E+00
        -11   -1    0    0    0    0  0.00000000000E+00  0.00000000000E+00  0.45593999997E+02  0.45594000000E+02  0.51100000000E-03 0. -1.
         11   -1    0    0    0    0 -0.00000000000E+00 -0.00000000000E+00 -0.45593999997E+02  0.45594000000E+02  0.51100000000E-03 0.  1.
    9900012    2    1    2    0    0  0.16152930899E+01  0.15540145530E+02 -0.40490961972E+02  0.47787270786E+02  0.19999998823E+02 0.  0.
         12    1    1    2    0    0 -0.16152930899E+01 -0.15540145530E+02  0.40490961972E+02  0.43400729214E+02  0.00000000000E+00 0. -1.
         11    1    3    3    0    0  0.21750713019E+01  0.14690803002E+02 -0.22880858707E+02  0.27277909074E+02  0.51100000000E-03 0. -1.
        -11    1    3    3    0    0  0.72848884388E+00  0.16029806954E+01 -0.18622708800E+02  0.18705761851E+02  0.51100000000E-03 0.  1.
        -12    1    3    3    0    0 -0.12882670558E+01 -0.75363816698E+00  0.10126055347E+01  0.18035998622E+01  0.00000000000E+00 0.  1.
</event>
<event>
 7    1  0.1246400E-009  0.4778727E+02  0.7816164E-02  0.1312668E+00
        -11   -1    0    0    0    0  0.00000000000E+00  0.00000000000E+00  0.45593999997E+02  0.45594000000E+02  0.51100000000E-03 0.  1.
         11   -1    0    0    0    0 -0.00000000000E+00 -0.00000000000E+00 -0.45593999997E+02  0.45594000000E+02  0.51100000000E-03 0. -1.
    9900012    2    1    2    0    0  0.75741235608E+01  0.20786670847E+02  0.37338587047E+02  0.47787272871E+02  0.20000008328E+02 0.  0.
         12    1    1    2    0    0 -0.75741235608E+01 -0.20786670847E+02 -0.37338587047E+02  0.43400727129E+02  0.00000000000E+00 0. -1.
         11    1    3    3    0    0  0.70418977735E+01  0.84765469772E+01  0.61847815322E+01  0.12636917970E+02  0.51100000000E-03 0. -1.
        -11    1    3    3    0    0  0.47769972667E+01  0.10056995495E+02  0.24793217015E+02  0.27178419224E+02  0.51100000000E-03 0.  1.
        -12    1    3    3    0    0 -0.42447714793E+01  0.22531283752E+01  0.63605884998E+01  0.79719356778E+01  0.00000000000E+00 0.  1.
</event>
<event>
 7    1  0.1246400E-009  0.4778727E+02  0.7816164E-02  0.1312668E+00
        -11   -1    0    0    0    0  0.00000000000E+00  0.00000000000E+00  0.45593999997E+02  0.45594000000E+02  0.51100000000E-03 0. -1.
         11   -1    0    0    0    0 -0.00000000000E+00 -0.00000000000E+00 -0.45593999997E+02  0.45594000000E+02  0.51100000000E-03 0.  1.
    9900012    2    1    2    0    0 -0.99636193080E+01 -0.36137714398E+02  0.21872712958E+02  0.47787266322E+02  0.19999978468E+02 0.  0.
         12    1    1    2    0    0  0.99636193080E+01  0.36137714398E+02 -0.21872712958E+02  0.43400733678E+02  0.00000000000E+00 0. -1.
         11    1    3    3    0    0 -0.12656925633E+02 -0.22209239421E+02  0.17317000407E+02  0.30875987198E+02  0.51100000000E-03 0. -1.
        -11    1    3    3    0    0 -0.21714313646E+01 -0.93561391566E+01  0.24800420376E+01  0.99198317958E+01  0.51100000000E-03 0.  1.
        -12    1    3    3    0    0  0.48647376898E+01 -0.45723358212E+01  0.20756705138E+01  0.69914473276E+01  0.00000000000E+00 0.  1.
</event>
<event>
 7    1  0.1246400E-009  0.4778727E+02  0.7816164E-02  0.1312668E+00
        -11   -1    0    0    0    0  0.00000000000E+00  0.00000000000E+00  0.45593999997E+02  0.45594000000E+02  0.51100000000E-03 0.  1.
         11   -1    0    0    0    0 -0.00000000000E+00 -0.00000000000E+00 -0.45593999997E+02  0.45594000000E+02  0.51100000000E-03 0. -1.
    9900012    2    1    2    0    0  0.51766374654E+01 -0.23384427904E+01  0.43027401436E+02  0.47787272305E+02  0.20000005748E+02 0.  0.
         12    1    1    2    0    0 -0.51766374654E+01  0.23384427904E+01 -0.43027401436E+02  0.43400727695E+02  0.00000000000E+00 0. -1.
         11    1    3    3    0    0  0.46661557837E+01 -0.50191820253E+01  0.17393495894E+02  0.18694889614E+02  0.51100000000E-03 0. -1.
        -11    1    3    3    0    0 -0.25240098677E+01 -0.27898703722E+01  0.20929768171E+02  0.21265210990E+02  0.51100000000E-03 0.  1.
         12    1    3    3    0    0  0.30344915493E+01  0.54706096071E+01  0.47041373711E+01  0.78271717013E+01  0.00000000000E+00 0. -1.
</event>
<event>
 7    1  0.1246400E-009  0.4778727E+02  0.7816164E-02  0.1312668E+00
        -11   -1    0    0    0    0  0.00000000000E+00  0.00000000000E+00  0.45593999997E+02  0.45594000000E+02  0.51100000000E-03 0.  1.
         11   -1    0    0    0    0 -0.00000000000E+00 -0.00000000000E+00 -0.45593999997E+02  0.45594000000E+02  0.51100000000E-03 0. -1.
    9900012    2    1    2    0    0 -0.30348246753E+02 -0.21191625685E+01  0.30953452310E+02  0.47787272576E+02  0.20000006984E+02 0.  0.
         12    1    1    2    0    0  0.30348246753E+02  0.21191625685E+01 -0.30953452310E+02  0.43400727424E+02  0.00000000000E+00 0. -1.
         11    1    3    3    0    0 -0.10368841561E+02  0.40165403873E+01  0.92823288351E+01  0.14484719564E+02  0.51100000000E-03 0. -1.
        -11    1    3    3    0    0 -0.16960373971E+02 -0.72293629646E+01  0.23291849908E+02  0.29705693840E+02  0.51100000000E-03 0.  1.
        -12    1    3    3    0    0 -0.30190312222E+01  0.10936600088E+01 -0.16207264329E+01  0.35968591723E+01  0.00000000000E+00 0.  1.
</event>
<event>
 7    1  0.1246400E-009  0.4778727E+02  0.7816164E-02  0.1312668E+00
        -11   -1    0    0    0    0  0.00000000000E+00  0.00000000000E+00  0.45593999997E+02  0.45594000000E+02  0.51100000000E-03 0. -1.
         11   -1    0    0    0    0 -0.00000000000E+00 -0.00000000000E+00 -0.45593999997E+02  0.45594000000E+02  0.51100000000E-03 0.  1.
    9900012    2    1    2    0    0  0.86351567325E+01 -0.20614834464E+02 -0.37203305136E+02  0.47787271379E+02  0.20000001525E+02 0.  0.
         12    1    1    2    0    0 -0.86351567325E+01  0.20614834464E+02  0.37203305136E+02  0.43400728621E+02  0.00000000000E+00 0. -1.
         11    1    3    3    0    0  0.99155840597E+01 -0.18901330113E+02 -0.36639104784E+02  0.42402866494E+02  0.51100000000E-03 0. -1.
        -11    1    3    3    0    0 -0.21614201755E+01 -0.67988790733E+00 -0.22677579711E+01  0.32057309959E+01  0.51100000000E-03 0.  1.
         12    1    3    3    0    0  0.88099284820E+00 -0.10336164442E+01  0.17035576191E+01  0.21786738888E+01  0.00000000000E+00 0. -1.
</event>
<event>
 7    1  0.1246400E-009  0.4778728E+02  0.7816164E-02  0.1312668E+00
        -11   -1    0    0    0    0  0.00000000000E+00  0.00000000000E+00  0.45593999997E+02  0.45594000000E+02  0.51100000000E-03 0.  1.
         11   -1    0    0    0    0 -0.00000000000E+00 -0.00000000000E+00 -0.45593999997E+02  0.45594000000E+02  0.51100000000E-03 0. -1.
    9900012    2    1    2    0    0 -0.36117415774E+02 -0.16922888776E+02  0.17110551757E+02  0.47787275719E+02  0.20000021311E+02 0.  0.
         12    1    1    2    0    0  0.36117415774E+02  0.16922888776E+02 -0.17110551757E+02  0.43400724281E+02  0.00000000000E+00 0. -1.
         11    1    3    3    0    0 -0.12187808779E+02 -0.13359302855E+02  0.65550624380E+01  0.19234929150E+02  0.51100000000E-03 0. -1.
        -11    1    3    3    0    0 -0.21976554103E+01  0.16008524338E+01  0.47499428570E+01  0.54730590371E+01  0.51100000000E-03 0.  1.
        -12    1    3    3    0    0 -0.21731951585E+02 -0.51644383552E+01  0.58055464621E+01  0.23079287531E+02  0.00000000000E+00 0.  1.
</event>
<event>
 7    1  0.1246400E-009  0.4778727E+02  0.7816164E-02  0.1312668E+00
        -11   -1    0    0    0    0  0.00000000000E+00  0.00000000000E+00  0.45593999997E+02  0.45594000000E+02  0.51100000000E-03 0.  1.
         11   -1    0    0    0    0 -0.00000000000E+00 -0.00000000000E+00 -0.45593999997E+02  0.45594000000E+02  0.51100000000E-03 0. -1.
    9900012    2    1    2    0    0 -0.15074811303E+02  0.23584677593E+02  0.33168297882E+02  0.47787274921E+02  0.20000017674E+02 0.  0.
         12    1    1    2    0    0  0.15074811303E+02 -0.23584677593E+02 -0.33168297882E+02  0.43400725079E+02  0.00000000000E+00 0. -1.
         11    1    3    3    0    0 -0.38772817652E+01  0.42771919031E+01  0.13765017492E+02  0.14926600124E+02  0.51100000000E-03 0. -1.
        -11    1    3    3    0    0 -0.14096064271E+02  0.12005132650E+02  0.11989356948E+02  0.22058261903E+02  0.51100000000E-03 0.  1.
         12    1    3    3    0    0  0.28985347330E+01  0.73023530396E+01  0.74139234424E+01  0.10802412894E+02  0.00000000000E+00 0. -1.
</event>
<event>
 7    1  0.1246400E-009  0.4778727E+02  0.7816164E-02  0.1312668E+00
        -11   -1    0    0    0    0  0.00000000000E+00  0.00000000000E+00  0.45593999997E+02  0.45594000000E+02  0.51100000000E-03 0.  1.
         11   -1    0    0    0    0 -0.00000000000E+00 -0.00000000000E+00 -0.45593999997E+02  0.45594000000E+02  0.51100000000E-03 0. -1.
    9900012    2    1    2    0    0  0.28002701965E+02 -0.62184892475E+01  0.32569960322E+02  0.47787271421E+02  0.20000001716E+02 0.  0.
         12    1    1    2    0    0 -0.28002701965E+02  0.62184892475E+01 -0.32569960322E+02  0.43400728579E+02  0.00000000000E+00 0. -1.
         11    1    3    3    0    0  0.27966421988E+01 -0.49572846199E+01  0.11974585405E+01  0.58163378176E+01  0.51100000000E-03 0. -1.
        -11    1    3    3    0    0  0.19054800225E+02 -0.45550887439E+00  0.14364940905E+02  0.23867224963E+02  0.51100000000E-03 0.  1.
        -12    1    3    3    0    0  0.61512595409E+01 -0.80569575312E+00  0.17007560876E+02  0.18103708640E+02  0.00000000000E+00 0.  1.
</event>
<event>
 7    1  0.1246400E-009  0.4778727E+02  0.7816164E-02  0.1312668E+00
        -11   -1    0    0    0    0  0.00000000000E+00  0.00000000000E+00  0.45593999997E+02  0.45594000000E+02  0.51100000000E-03 0.  1.
         11   -1    0    0    0    0 -0.00000000000E+00 -0.00000000000E+00 -0.45593999997E+02  0.45594000000E+02  0.51100000000E-03 0. -1.
    9900012    2    1    2    0    0  0.42493739860E+02 -0.72048120164E+01  0.50986459726E+01  0.47787269197E+02  0.19999991576E+02 0.  0.
         12    1    1    2    0    0 -0.42493739860E+02  0.72048120164E+01 -0.50986459726E+01  0.43400730803E+02  0.00000000000E+00 0. -1.
         11    1    3    3    0    0  0.19181758071E+02 -0.95365864330E+00  0.28911414752E+01  0.19421843548E+02  0.51100000000E-03 0. -1.
        -11    1    3    3    0    0  0.19538441230E+02  0.84049451410E+00 -0.13005847571E+01  0.19599710144E+02  0.51100000000E-03 0.  1.
         12    1    3    3    0    0  0.37735405586E+01 -0.70916478872E+01  0.35080892545E+01  0.87657155054E+01  0.00000000000E+00 0. -1.
</event>
<event>
 7    1  0.1246400E-009  0.4778726E+02  0.7816164E-02  0.1312668E+00
        -11   -1    0    0    0    0  0.00000000000E+00  0.00000000000E+00  0.45593999997E+02  0.45594000000E+02  0.51100000000E-03 0. -1.
         11   -1    0    0    0    0 -0.00000000000E+00 -0.00000000000E+00 -0.45593999997E+02  0.45594000000E+02  0.51100000000E-03 0.  1.
    9900012    2    1    2    0    0  0.13237319044E+02 -0.33270016463E+02 -0.24525576615E+02  0.47787256698E+02  0.19999934588E+02 0.  0.
         12    1    1    2    0    0 -0.13237319044E+02  0.33270016463E+02  0.24525576615E+02  0.43400743302E+02  0.00000000000E+00 0. -1.
         11    1    3    3    0    0  0.10647771741E+02 -0.24580681680E+02 -0.12477540178E+02  0.29551209181E+02  0.51100000000E-03 0.  1.
        -11    1    3    3    0    0 -0.26800499364E+01 -0.72567157412E+01 -0.45986045149E+01  0.89994308018E+01  0.51100000000E-03 0. -1.
        -12    1    3    3    0    0  0.52695972393E+01 -0.14326190412E+01 -0.74494319215E+01  0.92366167147E+01  0.00000000000E+00 0.  1.
</event>
<event>
 7    1  0.1246400E-009  0.4778728E+02  0.7816164E-02  0.1312668E+00
        -11   -1    0    0    0    0  0.00000000000E+00  0.00000000000E+00  0.45593999997E+02  0.45594000000E+02  0.51100000000E-03 0.  1.
         11   -1    0    0    0    0 -0.00000000000E+00 -0.00000000000E+00 -0.45593999997E+02  0.45594000000E+02  0.51100000000E-03 0. -1.
    9900012    2    1    2    0    0 -0.10155872272E+02  0.16686921058E+02  0.38755998793E+02  0.47787279748E+02  0.20000039682E+02 0.  0.
         12    1    1    2    0    0  0.10155872272E+02 -0.16686921058E+02 -0.38755998793E+02  0.43400720252E+02  0.00000000000E+00 0. -1.
         11    1    3    3    0    0 -0.33361600000E+01 -0.30322451432E+01  0.84993194193E+01  0.96209617506E+01  0.51100000000E-03 0. -1.
        -11    1    3    3    0    0 -0.82482985304E+01  0.87519907853E+01  0.13400497965E+02  0.18005696802E+02  0.51100000000E-03 0.  1.
        -12    1    3    3    0    0  0.14285862588E+01  0.10967175416E+02  0.16856181408E+02  0.20160621195E+02  0.00000000000E+00 0.  1.
</event>
<event>
 7    1  0.1246400E-009  0.4778727E+02  0.7816164E-02  0.1312668E+00
        -11   -1    0    0    0    0  0.00000000000E+00  0.00000000000E+00  0.45593999997E+02  0.45594000000E+02  0.51100000000E-03 0.  1.
         11   -1    0    0    0    0 -0.00000000000E+00 -0.00000000000E+00 -0.45593999997E+02  0.45594000000E+02  0.51100000000E-03 0. -1.
    9900012    2    1    2    0    0 -0.34884188542E+02 -0.18243111022E+02  0.18273080188E+02  0.47787272246E+02  0.20000005479E+02 0.  0.
         12    1    1    2    0    0  0.34884188542E+02  0.18243111022E+02 -0.18273080188E+02  0.43400727754E+02  0.00000000000E+00 0. -1.
         11    1    3    3    0    0 -0.69896914301E+01 -0.19103102906E+00  0.91034739006E+01  0.11478916171E+02  0.51100000000E-03 0. -1.
        -11    1    3    3    0    0 -0.24438079014E+02 -0.13003165413E+02  0.11199325702E+02  0.29861796883E+02  0.51100000000E-03 0.  1.
         12    1    3    3    0    0 -0.34564180978E+01 -0.50489145804E+01 -0.20297194152E+01  0.64465591917E+01  0.00000000000E+00 0. -1.
</event>
<event>
 7    1  0.1246400E-009  0.4778727E+02  0.7816164E-02  0.1312668E+00
        -11   -1    0    0    0    0  0.00000000000E+00  0.00000000000E+00  0.45593999997E+02  0.45594000000E+02  0.51100000000E-03 0. -1.
         11   -1    0    0    0    0 -0.00000000000E+00 -0.00000000000E+00 -0.45593999997E+02  0.45594000000E+02  0.51100000000E-03 0.  1.
    9900012    2    1    2    0    0 -0.10056090966E+02 -0.41914155497E+02 -0.50696773782E+01  0.47787273909E+02  0.20000013059E+02 0.  0.
         12    1    1    2    0    0  0.10056090966E+02  0.41914155497E+02  0.50696773782E+01  0.43400726091E+02  0.00000000000E+00 0. -1.
         11    1    3    3    0    0  0.17891809065E+01 -0.56155753736E+01 -0.32358180230E+01  0.67235685191E+01  0.51100000000E-03 0. -1.
        -11    1    3    3    0    0 -0.87745391099E+01 -0.80441836526E+01  0.28984764758E+01  0.12251636355E+02  0.51100000000E-03 0.  1.
        -12    1    3    3    0    0 -0.30707327622E+01 -0.28254396471E+02 -0.47323358311E+01  0.28812069035E+02  0.00000000000E+00 0.  1.
</event>
<event>
 7    1  0.1246400E-009  0.4778727E+02  0.7816164E-02  0.1312668E+00
        -11   -1    0    0    0    0  0.00000000000E+00  0.00000000000E+00  0.45593999997E+02  0.45594000000E+02  0.51100000000E-03 0. -1.
         11   -1    0    0    0    0 -0.00000000000E+00 -0.00000000000E+00 -0.45593999997E+02  0.45594000000E+02  0.51100000000E-03 0.  1.
    9900012    2    1    2    0    0  0.25209367906E+02 -0.21901828467E+02 -0.27720405326E+02  0.47787271989E+02  0.20000004307E+02 0.  0.
         12    1    1    2    0    0 -0.25209367906E+02  0.21901828467E+02  0.27720405326E+02  0.43400728011E+02  0.00000000000E+00 0. -1.
         11    1    3    3    0    0  0.14650304317E+02 -0.14518094474E+02 -0.10566958929E+02  0.23174708305E+02  0.51100000000E-03 0.  1.
        -11    1    3    3    0    0  0.10510803532E+02 -0.81675444077E+01 -0.18655546197E+02  0.22917573535E+02  0.51100000000E-03 0. -1.
         12    1    3    3    0    0  0.48260057545E-01  0.78381041494E+00  0.15020997998E+01  0.16949901499E+01  0.00000000000E+00 0. -1.
</event>
<event>
 7    1  0.1246400E-009  0.4778727E+02  0.7816164E-02  0.1312668E+00
        -11   -1    0    0    0    0  0.00000000000E+00  0.00000000000E+00  0.45593999997E+02  0.45594000000E+02  0.51100000000E-03 0.  1.
         11   -1    0    0    0    0 -0.00000000000E+00 -0.00000000000E+00 -0.45593999997E+02  0.45594000000E+02  0.51100000000E-03 0. -1.
    9900012    2    1    2    0    0  0.16558516442E+02 -0.17221662657E+02  0.36233314838E+02  0.47787271485E+02  0.20000002009E+02 0.  0.
         12    1    1    2    0    0 -0.16558516442E+02  0.17221662657E+02 -0.36233314838E+02  0.43400728515E+02  0.00000000000E+00 0. -1.
         11    1    3    3    0    0  0.32359887625E+01 -0.39621440948E+01  0.19088367031E+00  0.51192427112E+01  0.51100000000E-03 0. -1.
        -11    1    3    3    0    0  0.68118730813E+01 -0.21912598697E+00  0.52595181303E+01  0.86088420998E+01  0.51100000000E-03 0.  1.
        -12    1    3    3    0    0  0.65106545984E+01 -0.13040392575E+02  0.30782913038E+02  0.34059186674E+02  0.00000000000E+00 0.  1.
</event>
<event>
 7    1  0.1246400E-009  0.4778727E+02  0.7816164E-02  0.1312668E+00
        -11   -1    0    0    0    0  0.00000000000E+00  0.00000000000E+00  0.45593999997E+02  0.45594000000E+02  0.51100000000E-03 0.  1.
         11   -1    0    0    0    0 -0.00000000000E+00 -0.00000000000E+00 -0.45593999997E+02  0.45594000000E+02  0.51100000000E-03 0. -1.
    9900012    2    1    2    0    0  0.12493484324E+02 -0.40692606343E+02  0.84645079292E+01  0.47787271250E+02  0.20000000937E+02 0.  0.
         12    1    1    2    0    0 -0.12493484324E+02  0.40692606343E+02 -0.84645079292E+01  0.43400728750E+02  0.00000000000E+00 0. -1.
         11    1    3    3    0    0 -0.75164334917E+00 -0.19342729876E+02  0.56771050080E+01  0.20172647033E+02  0.51100000000E-03 0. -1.
        -11    1    3    3    0    0  0.56851767597E+01 -0.18681295502E+01  0.30481666460E+01  0.67158367289E+01  0.51100000000E-03 0.  1.
         12    1    3    3    0    0  0.75599509131E+01 -0.19481746917E+02 -0.26076372494E+00  0.20898787488E+02  0.00000000000E+00 0. -1.
</event>
<event>
 7    1  0.1246400E-009  0.4778727E+02  0.7816164E-02  0.1312668E+00
        -11   -1    0    0    0    0  0.00000000000E+00  0.00000000000E+00  0.45593999997E+02  0.45594000000E+02  0.51100000000E-03 0. -1.
         11   -1    0    0    0    0 -0.00000000000E+00 -0.00000000000E+00 -0.45593999997E+02  0.45594000000E+02  0.51100000000E-03 0.  1.
    9900012    2    1    2    0    0  0.28740079861E+02  0.44212059691E+01 -0.32219311569E+02  0.47787270852E+02  0.19999999120E+02 0.  0.
         12    1    1    2    0    0 -0.28740079861E+02 -0.44212059691E+01  0.32219311569E+02  0.43400729148E+02  0.00000000000E+00 0. -1.
         11    1    3    3    0    0  0.94384097959E+01  0.85519743360E+01 -0.12573238205E+02  0.17897099311E+02  0.51100000000E-03 0. -1.
        -11    1    3    3    0    0  0.16469054941E+02 -0.19387510923E+01 -0.20338638784E+02  0.26242117946E+02  0.51100000000E-03 0.  1.
         12    1    3    3    0    0  0.28326151233E+01 -0.21920172746E+01  0.69256541949E+00  0.36480535946E+01  0.00000000000E+00 0. -1.
</event>
<event>
 7    1  0.1246400E-009  0.4778729E+02  0.7816164E-02  0.1312668E+00
        -11   -1    0    0    0    0  0.00000000000E+00  0.00000000000E+00  0.45593999997E+02  0.45594000000E+02  0.51100000000E-03 0. -1.
         11   -1    0    0    0    0 -0.00000000000E+00 -0.00000000000E+00 -0.45593999997E+02  0.45594000000E+02  0.51100000000E-03 0.  1.
    9900012    2    1    2    0    0 -0.31357127097E+02  0.23926398572E+02 -0.18107458940E+02  0.47787285286E+02  0.20000064933E+02 0.  0.
         12    1    1    2    0    0  0.31357127097E+02 -0.23926398572E+02  0.18107458940E+02  0.43400714714E+02  0.00000000000E+00 0. -1.
         11    1    3    3    0    0  0.72210823787E+00 -0.55706592315E+00  0.60119996189E+00  0.10923389608E+01  0.51100000000E-03 0. -1.
        -11    1    3    3    0    0 -0.28507892352E+02  0.14996313385E+02 -0.11288697453E+02  0.34132448373E+02  0.51100000000E-03 0.  1.
        -12    1    3    3    0    0 -0.35713429829E+01  0.94871511096E+01 -0.74199614493E+01  0.12562497952E+02  0.00000000000E+00 0.  1.
</event>
<event>
 7    1  0.1246400E-009  0.4778727E+02  0.7816164E-02  0.1312668E+00
        -11   -1    0    0    0    0  0.00000000000E+00  0.00000000000E+00  0.45593999997E+02  0.45594000000E+02  0.51100000000E-03 0.  1.
         11   -1    0    0    0    0 -0.00000000000E+00 -0.00000000000E+00 -0.45593999997E+02  0.45594000000E+02  0.51100000000E-03 0. -1.
    9900012    2    1    2    0    0 -0.37715561240E+02  0.21062168441E+02 -0.41886350316E+01  0.47787272328E+02  0.20000005850E+02 0.  0.
         12    1    1    2    0    0  0.37715561240E+02 -0.21062168441E+02  0.41886350316E+01  0.43400727672E+02  0.00000000000E+00 0. -1.
         11    1    3    3    0    0 -0.42052125587E+01  0.54936559813E+01 -0.28709630621E+01  0.74904270820E+01  0.51100000000E-03 0. -1.
        -11    1    3    3    0    0 -0.20779784178E+02  0.97742060017E+00  0.79446835034E+00  0.20817924050E+02  0.51100000000E-03 0.  1.
        -12    1    3    3    0    0 -0.12730564503E+02  0.14591091860E+02 -0.21121403198E+01  0.19478921196E+02  0.00000000000E+00 0.  1.
</event>
<event>
 7    1  0.1246400E-009  0.4778727E+02  0.7816164E-02  0.1312668E+00
        -11   -1    0    0    0    0  0.00000000000E+00  0.00000000000E+00  0.45593999997E+02  0.45594000000E+02  0.51100000000E-03 0. -1.
         11   -1    0    0    0    0 -0.00000000000E+00 -0.00000000000E+00 -0.45593999997E+02  0.45594000000E+02  0.51100000000E-03 0.  1.
    9900012    2    1    2    0    0 -0.29877484000E+02  0.15109090676E+02 -0.27616566487E+02  0.47787269410E+02  0.19999992548E+02 0.  0.
         12    1    1    2    0    0  0.29877484000E+02 -0.15109090676E+02  0.27616566487E+02  0.43400730590E+02  0.00000000000E+00 0. -1.
         11    1    3    3    0    0 -0.48713399814E+01  0.21962437234E+01  0.18495822824E+01  0.56545905764E+01  0.51100000000E-03 0. -1.
        -11    1    3    3    0    0 -0.53079349608E+01  0.16914734366E+01 -0.12909518718E+02  0.14060260656E+02  0.51100000000E-03 0.  1.
         12    1    3    3    0    0 -0.19698209058E+02  0.11221373516E+02 -0.16556630051E+02  0.28072418177E+02  0.00000000000E+00 0. -1.
</event>
<event>
 7    1  0.1246400E-009  0.4778728E+02  0.7816164E-02  0.1312668E+00
        -11   -1    0    0    0    0  0.00000000000E+00  0.00000000000E+00  0.45593999997E+02  0.45594000000E+02  0.51100000000E-03 0.  1.
         11   -1    0    0    0    0 -0.00000000000E+00 -0.00000000000E+00 -0.45593999997E+02  0.45594000000E+02  0.51100000000E-03 0. -1.
    9900012    2    1    2    0    0  0.25413372663E+02  0.33425995805E+01  0.35022993263E+02  0.47787279509E+02  0.20000038592E+02 0.  0.
         12    1    1    2    0    0 -0.25413372663E+02 -0.33425995805E+01 -0.35022993263E+02  0.43400720491E+02  0.00000000000E+00 0. -1.
         11    1    3    3    0    0  0.11549268102E+02  0.12658327184E+01  0.21267471387E+02  0.24234134307E+02  0.51100000000E-03 0. -1.
        -11    1    3    3    0    0  0.13268698686E+02  0.47568551287E+00  0.15962310984E+02  0.20762466466E+02  0.51100000000E-03 0.  1.
         12    1    3    3    0    0  0.59540587517E+00  0.16010813492E+01 -0.22067891076E+01  0.27906787362E+01  0.00000000000E+00 0. -1.
</event>
<event>
 7    1  0.1246400E-009  0.4778727E+02  0.7816164E-02  0.1312668E+00
        -11   -1    0    0    0    0  0.00000000000E+00  0.00000000000E+00  0.45593999997E+02  0.45594000000E+02  0.51100000000E-03 0.  1.
         11   -1    0    0    0    0 -0.00000000000E+00 -0.00000000000E+00 -0.45593999997E+02  0.45594000000E+02  0.51100000000E-03 0. -1.
    9900012    2    1    2    0    0  0.15349060843E+02  0.71828842438E+01  0.39955422644E+02  0.47787270818E+02  0.19999998969E+02 0.  0.
         12    1    1    2    0    0 -0.15349060843E+02 -0.71828842438E+01 -0.39955422644E+02  0.43400729182E+02  0.00000000000E+00 0. -1.
         11    1    3    3    0    0  0.53245931034E+01  0.32572036384E+01  0.59094030596E+01  0.85954471694E+01  0.51100000000E-03 0. -1.
        -11    1    3    3    0    0  0.14333216838E+02  0.17410866893E+01  0.27452654681E+02  0.31018071137E+02  0.51100000000E-03 0.  1.
         12    1    3    3    0    0 -0.43087490982E+01  0.21845939160E+01  0.65933649040E+01  0.81737525120E+01  0.00000000000E+00 0. -1.
</event>
<event>
 7    1  0.1246400E-009  0.4778727E+02  0.7816164E-02  0.1312668E+00
        -11   -1    0    0    0    0  0.00000000000E+00  0.00000000000E+00  0.45593999997E+02  0.45594000000E+02  0.51100000000E-03 0.  1.
         11   -1    0    0    0    0 -0.00000000000E+00 -0.00000000000E+00 -0.45593999997E+02  0.45594000000E+02  0.51100000000E-03 0. -1.
    9900012    2    1    2    0    0  0.99480501336E+01  0.28835033989E+01  0.42146709494E+02  0.47787269424E+02  0.19999992614E+02 0.  0.
         12    1    1    2    0    0 -0.99480501336E+01 -0.28835033989E+01 -0.42146709494E+02  0.43400730576E+02  0.00000000000E+00 0. -1.
         11    1    3    3    0    0  0.26657808324E+00 -0.67260725992E-01 -0.10286622597E+01  0.10647695456E+01  0.51100000000E-03 0. -1.
        -11    1    3    3    0    0  0.13369616646E+02  0.82499964700E+00  0.35542074365E+02  0.37982447579E+02  0.51100000000E-03 0.  1.
        -12    1    3    3    0    0 -0.36881445957E+01  0.21257644779E+01  0.76332973887E+01  0.87400522995E+01  0.00000000000E+00 0.  1.
</event>
<event>
 7    1  0.1246400E-009  0.4778726E+02  0.7816164E-02  0.1312668E+00
        -11   -1    0    0    0    0  0.00000000000E+00  0.00000000000E+00  0.45593999997E+02  0.45594000000E+02  0.51100000000E-03 0. -1.
         11   -1    0    0    0    0 -0.00000000000E+00 -0.00000000000E+00 -0.45593999997E+02  0.45594000000E+02  0.51100000000E-03 0.  1.
    9900012    2    1    2    0    0 -0.41374338511E+02 -0.11782508137E+02 -0.57411279451E+01  0.47787263424E+02  0.19999965256E+02 0.  0.
         12    1    1    2    0    0  0.41374338511E+02  0.11782508137E+02  0.57411279451E+01  0.43400736576E+02  0.00000000000E+00 0. -1.
         11    1    3    3    0    0 -0.68859266691E+01 -0.68354607150E+01  0.21655979554E+01  0.99412938818E+01  0.51100000000E-03 0. -1.
        -11    1    3    3    0    0 -0.21968686213E+02  0.15137956493E+01 -0.72530627810E+00  0.22032721590E+02  0.51100000000E-03 0.  1.
         12    1    3    3    0    0 -0.12519725629E+02 -0.64608430714E+01 -0.71814196224E+01  0.15813247953E+02  0.00000000000E+00 0. -1.
</event>
<event>
 7    1  0.1246400E-009  0.4778728E+02  0.7816164E-02  0.1312668E+00
        -11   -1    0    0    0    0  0.00000000000E+00  0.00000000000E+00  0.45593999997E+02  0.45594000000E+02  0.51100000000E-03 0.  1.
         11   -1    0    0    0    0 -0.00000000000E+00 -0.00000000000E+00 -0.45593999997E+02  0.45594000000E+02  0.51100000000E-03 0. -1.
    9900012    2    1    2    0    0  0.13203017398E+02  0.15184725017E+02  0.38454218194E+02  0.47787280661E+02  0.20000043847E+02 0.  0.
         12    1    1    2    0    0 -0.13203017398E+02 -0.15184725017E+02 -0.38454218194E+02  0.43400719339E+02  0.00000000000E+00 0. -1.
         11    1    3    3    0    0 -0.57057114111E+00  0.57810475031E+01  0.60996953598E+01  0.84233215185E+01  0.51100000000E-03 0. -1.
        -11    1    3    3    0    0  0.11380425244E+02  0.81415876473E+01  0.33591222657E+02  0.36389143546E+02  0.51100000000E-03 0.  1.
        -12    1    3    3    0    0  0.23931632947E+01  0.12620898662E+01 -0.12366998228E+01  0.29748155972E+01  0.00000000000E+00 0.  1.
</event>
<event>
 7    1  0.1246400E-009  0.4778727E+02  0.7816164E-02  0.1312668E+00
        -11   -1    0    0    0    0  0.00000000000E+00  0.00000000000E+00  0.45593999997E+02  0.45594000000E+02  0.51100000000E-03 0. -1.
         11   -1    0    0    0    0 -0.00000000000E+00 -0.00000000000E+00 -0.45593999997E+02  0.45594000000E+02  0.51100000000E-03 0.  1.
    9900012    2    1    2    0    0  0.21109902802E+02 -0.20302863105E+02  0.32027940825E+02  0.47787271434E+02  0.20000001778E+02 0.  0.
         12    1    1    2    0    0 -0.21109902802E+02  0.20302863105E+02 -0.32027940825E+02  0.43400728566E+02  0.00000000000E+00 0. -1.
         11    1    3    3    0    0  0.16615506478E+02 -0.10313570118E+02  0.21604729436E+02  0.29141192809E+02  0.51100000000E-03 0.  1.
        -11    1    3    3    0    0  0.54774466678E+00  0.23543251036E+01  0.23885127291E+01  0.33982148596E+01  0.51100000000E-03 0. -1.
         12    1    3    3    0    0  0.39466516572E+01 -0.12343618090E+02  0.80346986596E+01  0.15247863766E+02  0.00000000000E+00 0. -1.
</event>
<event>
 7    1  0.1246400E-009  0.4778727E+02  0.7816164E-02  0.1312668E+00
        -11   -1    0    0    0    0  0.00000000000E+00  0.00000000000E+00  0.45593999997E+02  0.45594000000E+02  0.51100000000E-03 0. -1.
         11   -1    0    0    0    0 -0.00000000000E+00 -0.00000000000E+00 -0.45593999997E+02  0.45594000000E+02  0.51100000000E-03 0.  1.
    9900012    2    1    2    0    0  0.36213233664E+02 -0.23679588062E+02 -0.33914772152E+01  0.47787270733E+02  0.19999998582E+02 0.  0.
         12    1    1    2    0    0 -0.36213233664E+02  0.23679588062E+02  0.33914772152E+01  0.43400729267E+02  0.00000000000E+00 0. -1.
         11    1    3    3    0    0  0.33448682010E+01 -0.11592050650E+02 -0.29505510518E+01  0.12420528706E+02  0.51100000000E-03 0. -1.
        -11    1    3    3    0    0  0.12149695683E+02 -0.59874462787E+01  0.17517027097E+01  0.13657711403E+02  0.51100000000E-03 0.  1.
         12    1    3    3    0    0  0.20718669780E+02 -0.61000911327E+01 -0.21926288730E+01  0.21709030624E+02  0.00000000000E+00 0. -1.
</event>
<event>
 7    1  0.1246400E-009  0.4778727E+02  0.7816164E-02  0.1312668E+00
        -11   -1    0    0    0    0  0.00000000000E+00  0.00000000000E+00  0.45593999997E+02  0.45594000000E+02  0.51100000000E-03 0.  1.
         11   -1    0    0    0    0 -0.00000000000E+00 -0.00000000000E+00 -0.45593999997E+02  0.45594000000E+02  0.51100000000E-03 0. -1.
    9900012    2    1    2    0    0 -0.26990333747E+01  0.35838310898E+02  0.24330103928E+02  0.47787271131E+02  0.20000000396E+02 0.  0.
         12    1    1    2    0    0  0.26990333747E+01 -0.35838310898E+02 -0.24330103928E+02  0.43400728869E+02  0.00000000000E+00 0. -1.
         11    1    3    3    0    0  0.54816049112E+01  0.76011531611E+01  0.61935513700E+01  0.11233236427E+02  0.51100000000E-03 0. -1.
        -11    1    3    3    0    0  0.13351766143E+01  0.91510275588E+01  0.10276376831E+02  0.13824902278E+02  0.51100000000E-03 0.  1.
         12    1    3    3    0    0 -0.95158149002E+01  0.19086130178E+02  0.78601757267E+01  0.22729132426E+02  0.00000000000E+00 0. -1.
</event>
<event>
 7    1  0.1246400E-009  0.4778727E+02  0.7816164E-02  0.1312668E+00
        -11   -1    0    0    0    0  0.00000000000E+00  0.00000000000E+00  0.45593999997E+02  0.45594000000E+02  0.51100000000E-03 0. -1.
         11   -1    0    0    0    0 -0.00000000000E+00 -0.00000000000E+00 -0.45593999997E+02  0.45594000000E+02  0.51100000000E-03 0.  1.
    9900012    2    1    2    0    0  0.18746569139E+02  0.18676615173E+02 -0.34400192714E+02  0.47787273422E+02  0.20000010839E+02 0.  0.
         12    1    1    2    0    0 -0.18746569139E+02 -0.18676615173E+02  0.34400192714E+02  0.43400726578E+02  0.00000000000E+00 0. -1.
         11    1    3    3    0    0  0.63106785830E+01  0.11780110060E+02 -0.14434588636E+02  0.19671121131E+02  0.51100000000E-03 0. -1.
        -11    1    3    3    0    0  0.14830633396E+01  0.79275729618E+01 -0.12297158772E+02  0.14705985314E+02  0.51100000000E-03 0.  1.
         12    1    3    3    0    0  0.10952827216E+02 -0.10310678488E+01 -0.76684453059E+01  0.13410166977E+02  0.00000000000E+00 0. -1.
</event>
<event>
 7    1  0.1246400E-009  0.4778727E+02  0.7816164E-02  0.1312668E+00
        -11   -1    0    0    0    0  0.00000000000E+00  0.00000000000E+00  0.45593999997E+02  0.45594000000E+02  0.51100000000E-03 0. -1.
         11   -1    0    0    0    0 -0.00000000000E+00 -0.00000000000E+00 -0.45593999997E+02  0.45594000000E+02  0.51100000000E-03 0.  1.
    9900012    2    1    2    0    0 -0.26283123299E+02  0.18953373724E+02 -0.28871967148E+02  0.47787269213E+02  0.19999991649E+02 0.  0.
         12    1    1    2    0    0  0.26283123299E+02 -0.18953373724E+02  0.28871967148E+02  0.43400730787E+02  0.00000000000E+00 0. -1.
         11    1    3    3    0    0 -0.78796491070E+00 -0.32280197962E+01 -0.52745776426E+01  0.62339530055E+01  0.51100000000E-03 0. -1.
        -11    1    3    3    0    0 -0.51280329888E+01  0.74474121649E+01 -0.69216727029E+01  0.11387283414E+02  0.51100000000E-03 0.  1.
         12    1    3    3    0    0 -0.20367125399E+02  0.14733981355E+02 -0.16675716802E+02  0.30166032793E+02  0.00000000000E+00 0. -1.
</event>
<event>
 7    1  0.1246400E-009  0.4778726E+02  0.7816164E-02  0.1312668E+00
        -11   -1    0    0    0    0  0.00000000000E+00  0.00000000000E+00  0.45593999997E+02  0.45594000000E+02  0.51100000000E-03 0.  1.
         11   -1    0    0    0    0 -0.00000000000E+00 -0.00000000000E+00 -0.45593999997E+02  0.45594000000E+02  0.51100000000E-03 0. -1.
    9900012    2    1    2    0    0  0.26204839396E+02 -0.27415613278E+02 -0.21102480994E+02  0.47787260798E+02  0.19999953283E+02 0.  0.
         12    1    1    2    0    0 -0.26204839396E+02  0.27415613278E+02  0.21102480994E+02  0.43400739202E+02  0.00000000000E+00 0. -1.
         11    1    3    3    0    0  0.14019698176E+02 -0.15512795751E+02 -0.15093898350E+02  0.25788069657E+02  0.51100000000E-03 0. -1.
        -11    1    3    3    0    0  0.13044505046E+02 -0.11487725799E+02 -0.15625599066E+01  0.17451892437E+02  0.51100000000E-03 0.  1.
        -12    1    3    3    0    0 -0.85936382561E+00 -0.41509172825E+00 -0.44460227371E+01  0.45472987043E+01  0.00000000000E+00 0.  1.
</event>
<event>
 7    1  0.1246400E-009  0.4778726E+02  0.7816164E-02  0.1312668E+00
        -11   -1    0    0    0    0  0.00000000000E+00  0.00000000000E+00  0.45593999997E+02  0.45594000000E+02  0.51100000000E-03 0.  1.
         11   -1    0    0    0    0 -0.00000000000E+00 -0.00000000000E+00 -0.45593999997E+02  0.45594000000E+02  0.51100000000E-03 0. -1.
    9900012    2    1    2    0    0  0.76907019825E+01 -0.77461247672E+01  0.42005655479E+02  0.47787257632E+02  0.19999938847E+02 0.  0.
         12    1    1    2    0    0 -0.76907019825E+01  0.77461247672E+01 -0.42005655479E+02  0.43400742368E+02  0.00000000000E+00 0. -1.
         11    1    3    3    0    0  0.21075532525E+01  0.19622825882E+01  0.10831837873E+01  0.30766249441E+01  0.51100000000E-03 0. -1.
        -11    1    3    3    0    0 -0.94853326041E+00 -0.10058825640E+02  0.15828876382E+02  0.18778525405E+02  0.51100000000E-03 0.  1.
         12    1    3    3    0    0  0.65316819904E+01  0.35041828414E+00  0.25093595309E+02  0.25932107283E+02  0.00000000000E+00 0. -1.
</event>
<event>
 7    1  0.1246400E-009  0.4778727E+02  0.7816164E-02  0.1312668E+00
        -11   -1    0    0    0    0  0.00000000000E+00  0.00000000000E+00  0.45593999997E+02  0.45594000000E+02  0.51100000000E-03 0.  1.
         11   -1    0    0    0    0 -0.00000000000E+00 -0.00000000000E+00 -0.45593999997E+02  0.45594000000E+02  0.51100000000E-03 0. -1.
    9900012    2    1    2    0    0  0.25595011764E+02  0.80025136716E+01  0.34124458074E+02  0.47787268542E+02  0.19999988589E+02 0.  0.
         12    1    1    2    0    0 -0.25595011764E+02 -0.80025136716E+01 -0.34124458074E+02  0.43400731458E+02  0.00000000000E+00 0. -1.
         11    1    3    3    0    0  0.49791362797E+01 -0.18919801327E+01  0.14597681290E+02  0.15539101847E+02  0.51100000000E-03 0.  1.
        -11    1    3    3    0    0  0.86593075382E+00  0.52200891370E+01  0.30588941561E+01  0.61119555290E+01  0.51100000000E-03 0. -1.
        -12    1    3    3    0    0  0.19749944730E+02  0.46744046672E+01  0.16467882628E+02  0.26136211166E+02  0.00000000000E+00 0.  1.
</event>
<event>
 7    1  0.1246400E-009  0.4778727E+02  0.7816164E-02  0.1312668E+00
        -11   -1    0    0    0    0  0.00000000000E+00  0.00000000000E+00  0.45593999997E+02  0.45594000000E+02  0.51100000000E-03 0.  1.
         11   -1    0    0    0    0 -0.00000000000E+00 -0.00000000000E+00 -0.45593999997E+02  0.45594000000E+02  0.51100000000E-03 0. -1.
    9900012    2    1    2    0    0 -0.15669132208E+02 -0.30098129828E+02  0.27059268398E+02  0.47787272708E+02  0.20000007583E+02 0.  0.
         12    1    1    2    0    0  0.15669132208E+02  0.30098129828E+02 -0.27059268398E+02  0.43400727292E+02  0.00000000000E+00 0. -1.
         11    1    3    3    0    0 -0.17978779328E+02 -0.25930378726E+02  0.16708853450E+02  0.35704437131E+02  0.51100000000E-03 0. -1.
        -11    1    3    3    0    0 -0.40654208411E+00 -0.22287206125E+01  0.17658856921E+01  0.28724248595E+01  0.51100000000E-03 0.  1.
        -12    1    3    3    0    0  0.27161892038E+01 -0.19390304894E+01  0.85845292560E+01  0.92104107171E+01  0.00000000000E+00 0.  1.
</event>
<event>
 7    1  0.1246400E-009  0.4778728E+02  0.7816164E-02  0.1312668E+00
        -11   -1    0    0    0    0  0.00000000000E+00  0.00000000000E+00  0.45593999997E+02  0.45594000000E+02  0.51100000000E-03 0. -1.
         11   -1    0    0    0    0 -0.00000000000E+00 -0.00000000000E+00 -0.45593999997E+02  0.45594000000E+02  0.51100000000E-03 0.  1.
    9900012    2    1    2    0    0  0.42113742848E+02 -0.39497665305E+01  0.97187909686E+01  0.47787275464E+02  0.20000020152E+02 0.  0.
         12    1    1    2    0    0 -0.42113742848E+02  0.39497665305E+01 -0.97187909686E+01  0.43400724536E+02  0.00000000000E+00 0. -1.
         11    1    3    3    0    0  0.27825776851E+02 -0.86889583851E+01  0.11500801490E+02  0.31337522084E+02  0.51100000000E-03 0. -1.
        -11    1    3    3    0    0  0.13718773006E+02  0.25530183192E+01 -0.22723023189E+01  0.14138104308E+02  0.51100000000E-03 0.  1.
         12    1    3    3    0    0  0.56919299140E+00  0.21861735354E+01  0.49029179713E+00  0.23116490726E+01  0.00000000000E+00 0. -1.
</event>
<event>
 7    1  0.1246400E-009  0.4778727E+02  0.7816164E-02  0.1312668E+00
        -11   -1    0    0    0    0  0.00000000000E+00  0.00000000000E+00  0.45593999997E+02  0.45594000000E+02  0.51100000000E-03 0.  1.
         11   -1    0    0    0    0 -0.00000000000E+00 -0.00000000000E+00 -0.45593999997E+02  0.45594000000E+02  0.51100000000E-03 0. -1.
    9900012    2    1    2    0    0  0.11414964737E+02 -0.25193757680E+02  0.33445430874E+02  0.47787266223E+02  0.19999978019E+02 0.  0.
         12    1    1    2    0    0 -0.11414964737E+02  0.25193757680E+02 -0.33445430874E+02  0.43400733777E+02  0.00000000000E+00 0. -1.
         11    1    3    3    0    0  0.32426245910E+01 -0.40246024315E+01 -0.14785249265E+01  0.53756929962E+01  0.51100000000E-03 0. -1.
        -11    1    3    3    0    0  0.14400742051E+01 -0.14087184236E+02  0.18450685836E+02  0.23258340042E+02  0.51100000000E-03 0.  1.
        -12    1    3    3    0    0  0.67322659412E+01 -0.70819710123E+01  0.16473269964E+02  0.19153233185E+02  0.00000000000E+00 0.  1.
</event>
<event>
 7    1  0.1246400E-009  0.4778724E+02  0.7816164E-02  0.1312668E+00
        -11   -1    0    0    0    0  0.00000000000E+00  0.00000000000E+00  0.45593999997E+02  0.45594000000E+02  0.51100000000E-03 0.  1.
         11   -1    0    0    0    0 -0.00000000000E+00 -0.00000000000E+00 -0.45593999997E+02  0.45594000000E+02  0.51100000000E-03 0. -1.
    9900012    2    1    2    0    0  0.34454172242E+02 -0.20605715076E+02  0.16490617712E+02  0.47787240200E+02  0.19999859370E+02 0.  0.
         12    1    1    2    0    0 -0.34454172242E+02  0.20605715076E+02 -0.16490617712E+02  0.43400759800E+02  0.00000000000E+00 0. -1.
         11    1    3    3    0    0  0.12231509310E+02 -0.10284198228E+02  0.43726354542E+01  0.16567875370E+02  0.51100000000E-03 0. -1.
        -11    1    3    3    0    0  0.19491823958E+02 -0.18911341710E+01  0.61149595008E+01  0.20515855322E+02  0.51100000000E-03 0.  1.
         12    1    3    3    0    0  0.27308389744E+01 -0.84303826764E+01  0.60030227569E+01  0.10703509508E+02  0.00000000000E+00 0. -1.
</event>
<event>
 7    1  0.1246400E-009  0.4778727E+02  0.7816164E-02  0.1312668E+00
        -11   -1    0    0    0    0  0.00000000000E+00  0.00000000000E+00  0.45593999997E+02  0.45594000000E+02  0.51100000000E-03 0. -1.
         11   -1    0    0    0    0 -0.00000000000E+00 -0.00000000000E+00 -0.45593999997E+02  0.45594000000E+02  0.51100000000E-03 0.  1.
    9900012    2    1    2    0    0 -0.22074815365E+02 -0.88338328642E+01 -0.36308253520E+02  0.47787270166E+02  0.19999995994E+02 0.  0.
         12    1    1    2    0    0  0.22074815365E+02  0.88338328642E+01  0.36308253520E+02  0.43400729834E+02  0.00000000000E+00 0. -1.
         11    1    3    3    0    0 -0.41788723282E+01 -0.51003815402E+01 -0.28071188549E+01  0.71663646514E+01  0.51100000000E-03 0.  1.
        -11    1    3    3    0    0 -0.89009494310E+01  0.10315187031E+01 -0.27226819773E+02  0.28663402569E+02  0.51100000000E-03 0. -1.
         12    1    3    3    0    0 -0.89949936060E+01 -0.47649700271E+01 -0.62743148916E+01  0.11957502945E+02  0.00000000000E+00 0. -1.
</event>
<event>
 7    1  0.1246400E-009  0.4778727E+02  0.7816164E-02  0.1312668E+00
        -11   -1    0    0    0    0  0.00000000000E+00  0.00000000000E+00  0.45593999997E+02  0.45594000000E+02  0.51100000000E-03 0.  1.
         11   -1    0    0    0    0 -0.00000000000E+00 -0.00000000000E+00 -0.45593999997E+02  0.45594000000E+02  0.51100000000E-03 0. -1.
    9900012    2    1    2    0    0  0.13137879280E+02  0.21659504097E+02  0.35240395379E+02  0.47787268945E+02  0.19999990426E+02 0.  0.
         12    1    1    2    0    0 -0.13137879280E+02 -0.21659504097E+02 -0.35240395379E+02  0.43400731055E+02  0.00000000000E+00 0. -1.
         11    1    3    3    0    0  0.25885096009E+01  0.36293275759E+01  0.48219616396E+01  0.65668649233E+01  0.51100000000E-03 0. -1.
        -11    1    3    3    0    0  0.41863040522E+01  0.17497783979E+02  0.29793683652E+02  0.34804614229E+02  0.51100000000E-03 0.  1.
         12    1    3    3    0    0  0.63630656266E+01  0.53239254254E+00  0.62475008672E+00  0.64157897923E+01  0.00000000000E+00 0. -1.
</event>
<event>
 7    1  0.1246400E-009  0.4778726E+02  0.7816164E-02  0.1312668E+00
        -11   -1    0    0    0    0  0.00000000000E+00  0.00000000000E+00  0.45593999997E+02  0.45594000000E+02  0.51100000000E-03 0. -1.
         11   -1    0    0    0    0 -0.00000000000E+00 -0.00000000000E+00 -0.45593999997E+02  0.45594000000E+02  0.51100000000E-03 0.  1.
    9900012    2    1    2    0    0 -0.33741382219E+02  0.25915423476E+02 -0.85752203656E+01  0.47787257468E+02  0.19999938099E+02 0.  0.
         12    1    1    2    0    0  0.33741382219E+02 -0.25915423476E+02  0.85752203656E+01  0.43400742532E+02  0.00000000000E+00 0. -1.
         11    1    3    3    0    0 -0.23884552573E+01  0.35167528909E+01  0.35267891979E+01  0.55236321130E+01  0.51100000000E-03 0. -1.
        -11    1    3    3    0    0 -0.20164263158E+02  0.13839575367E+02 -0.13788733393E+02  0.28075977702E+02  0.51100000000E-03 0.  1.
         12    1    3    3    0    0 -0.11188663804E+02  0.85590952176E+01  0.16867238293E+01  0.14187647653E+02  0.00000000000E+00 0. -1.
</event>
<event>
 7    1  0.1246400E-009  0.4778727E+02  0.7816164E-02  0.1312668E+00
        -11   -1    0    0    0    0  0.00000000000E+00  0.00000000000E+00  0.45593999997E+02  0.45594000000E+02  0.51100000000E-03 0. -1.
         11   -1    0    0    0    0 -0.00000000000E+00 -0.00000000000E+00 -0.45593999997E+02  0.45594000000E+02  0.51100000000E-03 0.  1.
    9900012    2    1    2    0    0 -0.50197615522E+01 -0.41278234032E+02  0.12431121261E+02  0.47787269746E+02  0.19999994078E+02 0.  0.
         12    1    1    2    0    0  0.50197615522E+01  0.41278234032E+02 -0.12431121261E+02  0.43400730254E+02  0.00000000000E+00 0. -1.
         11    1    3    3    0    0  0.56633368875E+01 -0.22255350957E+02  0.58108451268E+01  0.23688392775E+02  0.51100000000E-03 0. -1.
        -11    1    3    3    0    0 -0.48730631336E+01 -0.10257539034E+02 -0.55227851212E+00  0.11369646571E+02  0.51100000000E-03 0.  1.
         12    1    3    3    0    0 -0.58100353061E+01 -0.87653440413E+01  0.71725546462E+01  0.12729230400E+02  0.00000000000E+00 0. -1.
</event>
<event>
 7    1  0.1246400E-009  0.4778727E+02  0.7816164E-02  0.1312668E+00
        -11   -1    0    0    0    0  0.00000000000E+00  0.00000000000E+00  0.45593999997E+02  0.45594000000E+02  0.51100000000E-03 0.  1.
         11   -1    0    0    0    0 -0.00000000000E+00 -0.00000000000E+00 -0.45593999997E+02  0.45594000000E+02  0.51100000000E-03 0. -1.
    9900012    2    1    2    0    0 -0.23685428382E+02 -0.33381406918E+02 -0.14432788854E+02  0.47787271440E+02  0.20000001802E+02 0.  0.
         12    1    1    2    0    0  0.23685428382E+02  0.33381406918E+02  0.14432788854E+02  0.43400728560E+02  0.00000000000E+00 0. -1.
         11    1    3    3    0    0 -0.10318437740E+02 -0.14890827930E+02 -0.81780746017E+01  0.19876816100E+02  0.51100000000E-03 0. -1.
        -11    1    3    3    0    0 -0.10873577709E+02 -0.94620274880E+01 -0.10291567128E+02  0.17711042053E+02  0.51100000000E-03 0.  1.
         12    1    3    3    0    0 -0.24934129330E+01 -0.90285515000E+01  0.40368528765E+01  0.10199413287E+02  0.00000000000E+00 0. -1.
</event>
<event>
 7    1  0.1246400E-009  0.4778727E+02  0.7816164E-02  0.1312668E+00
        -11   -1    0    0    0    0  0.00000000000E+00  0.00000000000E+00  0.45593999997E+02  0.45594000000E+02  0.51100000000E-03 0.  1.
         11   -1    0    0    0    0 -0.00000000000E+00 -0.00000000000E+00 -0.45593999997E+02  0.45594000000E+02  0.51100000000E-03 0. -1.
    9900012    2    1    2    0    0 -0.37438647023E+02  0.17171055494E+02  0.13679402014E+02  0.47787268703E+02  0.19999989324E+02 0.  0.
         12    1    1    2    0    0  0.37438647023E+02 -0.17171055494E+02 -0.13679402014E+02  0.43400731297E+02  0.00000000000E+00 0. -1.
         11    1    3    3    0    0 -0.35428385950E+02  0.11645186873E+02  0.88308283609E+01  0.38324462659E+02  0.51100000000E-03 0. -1.
        -11    1    3    3    0    0 -0.36745434691E+01  0.52903825656E+01  0.37220951948E+01  0.74393823868E+01  0.51100000000E-03 0.  1.
         12    1    3    3    0    0  0.16642823964E+01  0.23548605597E+00  0.11264784586E+01  0.20234236569E+01  0.00000000000E+00 0. -1.
</event>
<event>
 7    1  0.1246400E-009  0.4778727E+02  0.7816164E-02  0.1312668E+00
        -11   -1    0    0    0    0  0.00000000000E+00  0.00000000000E+00  0.45593999997E+02  0.45594000000E+02  0.51100000000E-03 0.  1.
         11   -1    0    0    0    0 -0.00000000000E+00 -0.00000000000E+00 -0.45593999997E+02  0.45594000000E+02  0.51100000000E-03 0. -1.
    9900012    2    1    2    0    0  0.28593537855E+02 -0.19693705426E+02  0.26042099329E+02  0.47787269846E+02  0.19999994536E+02 0.  0.
         12    1    1    2    0    0 -0.28593537855E+02  0.19693705426E+02 -0.26042099329E+02  0.43400730154E+02  0.00000000000E+00 0. -1.
         11    1    3    3    0    0  0.77388830153E+00 -0.28783202533E+01 -0.93069404956E+00  0.31224705377E+01  0.51100000000E-03 0. -1.
        -11    1    3    3    0    0  0.15156494092E+02 -0.10428116322E+02  0.23886379082E+02  0.30150025359E+02  0.51100000000E-03 0.  1.
         12    1    3    3    0    0  0.12663155461E+02 -0.63872688501E+01  0.30864142956E+01  0.14514773949E+02  0.00000000000E+00 0. -1.
</event>
<event>
 7    1  0.1246400E-009  0.4778727E+02  0.7816164E-02  0.1312668E+00
        -11   -1    0    0    0    0  0.00000000000E+00  0.00000000000E+00  0.45593999997E+02  0.45594000000E+02  0.51100000000E-03 0.  1.
         11   -1    0    0    0    0 -0.00000000000E+00 -0.00000000000E+00 -0.45593999997E+02  0.45594000000E+02  0.51100000000E-03 0. -1.
    9900012    2    1    2    0    0 -0.57024284094E+01  0.30161287678E+02  0.30682285205E+02  0.47787267408E+02  0.19999983420E+02 0.  0.
         12    1    1    2    0    0  0.57024284094E+01 -0.30161287678E+02 -0.30682285205E+02  0.43400732592E+02  0.00000000000E+00 0. -1.
         11    1    3    3    0    0  0.36633039084E+00 -0.18878431220E+01  0.10456600297E+01  0.21889620296E+01  0.51100000000E-03 0. -1.
        -11    1    3    3    0    0  0.20198975606E+01  0.17119960061E+02  0.18530207851E+02  0.25308923760E+02  0.51100000000E-03 0.  1.
        -12    1    3    3    0    0 -0.80886563608E+01  0.14929170739E+02  0.11106417324E+02  0.20289381618E+02  0.00000000000E+00 0.  1.
</event>
<event>
 7    1  0.1246400E-009  0.4778730E+02  0.7816164E-02  0.1312668E+00
        -11   -1    0    0    0    0  0.00000000000E+00  0.00000000000E+00  0.45593999997E+02  0.45594000000E+02  0.51100000000E-03 0.  1.
         11   -1    0    0    0    0 -0.00000000000E+00 -0.00000000000E+00 -0.45593999997E+02  0.45594000000E+02  0.51100000000E-03 0. -1.
    9900012    2    1    2    0    0 -0.29614623363E+02  0.18129522622E+02  0.26036810396E+02  0.47787297206E+02  0.20000119280E+02 0.  0.
         12    1    1    2    0    0  0.29614623363E+02 -0.18129522622E+02 -0.26036810396E+02  0.43400702794E+02  0.00000000000E+00 0. -1.
         11    1    3    3    0    0 -0.21096208000E+02  0.77729016369E+01  0.14280855377E+02  0.26634767174E+02  0.51100000000E-03 0. -1.
        -11    1    3    3    0    0 -0.69093843979E+01  0.11649166164E+02  0.55935357329E+01  0.14653678969E+02  0.51100000000E-03 0.  1.
         12    1    3    3    0    0 -0.16090309646E+01 -0.12925451786E+01  0.61624192856E+01  0.64988510627E+01  0.00000000000E+00 0. -1.
</event>
<event>
 7    1  0.1246400E-009  0.4778727E+02  0.7816164E-02  0.1312668E+00
        -11   -1    0    0    0    0  0.00000000000E+00  0.00000000000E+00  0.45593999997E+02  0.45594000000E+02  0.51100000000E-03 0.  1.
         11   -1    0    0    0    0 -0.00000000000E+00 -0.00000000000E+00 -0.45593999997E+02  0.45594000000E+02  0.51100000000E-03 0. -1.
    9900012    2    1    2    0    0  0.80010461898E+01 -0.34455017436E+01  0.42517467841E+02  0.47787270812E+02  0.19999998941E+02 0.  0.
         12    1    1    2    0    0 -0.80010461898E+01  0.34455017436E+01 -0.42517467841E+02  0.43400729188E+02  0.00000000000E+00 0. -1.
         11    1    3    3    0    0  0.25146893816E+01  0.45482072232E+01  0.10875454602E+02  0.12053437878E+02  0.51100000000E-03 0. -1.
        -11    1    3    3    0    0  0.45106192014E+01 -0.62937213776E+01  0.32631864868E+02  0.33537966834E+02  0.51100000000E-03 0.  1.
         12    1    3    3    0    0  0.97573760687E+00 -0.16999875891E+01 -0.98985162833E+00  0.21958660995E+01  0.00000000000E+00 0. -1.
</event>
<event>
 7    1  0.1246400E-009  0.4778728E+02  0.7816164E-02  0.1312668E+00
        -11   -1    0    0    0    0  0.00000000000E+00  0.00000000000E+00  0.45593999997E+02  0.45594000000E+02  0.51100000000E-03 0.  1.
         11   -1    0    0    0    0 -0.00000000000E+00 -0.00000000000E+00 -0.45593999997E+02  0.45594000000E+02  0.51100000000E-03 0. -1.
    9900012    2    1    2    0    0  0.28307567925E+02  0.45334957179E+01  0.32584533621E+02  0.47787276313E+02  0.20000024021E+02 0.  0.
         12    1    1    2    0    0 -0.28307567925E+02 -0.45334957179E+01 -0.32584533621E+02  0.43400723687E+02  0.00000000000E+00 0. -1.
         11    1    3    3    0    0  0.92039599479E+01 -0.17948887547E+01  0.18238453303E+02  0.20507941962E+02  0.51100000000E-03 0. -1.
        -11    1    3    3    0    0  0.76199564640E+01 -0.18359479841E+01  0.10532142397E+01  0.79084576252E+01  0.51100000000E-03 0.  1.
         12    1    3    3    0    0  0.11483651513E+02  0.81643324567E+01  0.13292866078E+02  0.19370876725E+02  0.00000000000E+00 0. -1.
</event>
<event>
 7    1  0.1246400E-009  0.4778726E+02  0.7816164E-02  0.1312668E+00
        -11   -1    0    0    0    0  0.00000000000E+00  0.00000000000E+00  0.45593999997E+02  0.45594000000E+02  0.51100000000E-03 0. -1.
         11   -1    0    0    0    0 -0.00000000000E+00 -0.00000000000E+00 -0.45593999997E+02  0.45594000000E+02  0.51100000000E-03 0.  1.
    9900012    2    1    2    0    0  0.12619405847E+02  0.30966324310E+02  0.27666971392E+02  0.47787263242E+02  0.19999964424E+02 0.  0.
         12    1    1    2    0    0 -0.12619405847E+02 -0.30966324310E+02 -0.27666971392E+02  0.43400736758E+02  0.00000000000E+00 0. -1.
         11    1    3    3    0    0  0.32948634968E+01  0.70951957079E+01  0.14863781040E+02  0.16796723331E+02  0.51100000000E-03 0. -1.
        -11    1    3    3    0    0  0.62657109409E+01  0.21882888556E+02  0.14477719306E+02  0.26976365614E+02  0.51100000000E-03 0.  1.
        -12    1    3    3    0    0  0.30588314093E+01  0.19882400453E+01 -0.16745289538E+01  0.40141742969E+01  0.00000000000E+00 0.  1.
</event>
<event>
 7    1  0.1328377E-009  0.4778727E+02  0.7816164E-02  0.1312668E+00
        -11   -1    0    0    0    0  0.00000000000E+00  0.00000000000E+00  0.45593999997E+02  0.45594000000E+02  0.51100000000E-03 0.  1.
         11   -1    0    0    0    0 -0.00000000000E+00 -0.00000000000E+00 -0.45593999997E+02  0.45594000000E+02  0.51100000000E-03 0. -1.
    9900012    2    1    2    0    0  0.12678320449E+01 -0.23755493625E+02  0.36300040079E+02  0.47787265153E+02  0.19999973141E+02 0.  0.
         12    1    1    2    0    0 -0.12678320449E+01  0.23755493625E+02 -0.36300040079E+02  0.43400734847E+02  0.00000000000E+00 0. -1.
         11    1    3    3    0    0 -0.30371794397E+01 -0.53926398332E+01  0.11400134478E+01  0.62932228819E+01  0.51100000000E-03 0. -1.
        -11    1    3    3    0    0  0.65828210305E+01 -0.10652964130E+02  0.13616645113E+02  0.18499518963E+02  0.51100000000E-03 0.  1.
        -12    1    3    3    0    0 -0.22778095459E+01 -0.77098896616E+01  0.21543381519E+02  0.22994523308E+02  0.00000000000E+00 0.  1.
</event>
<event>
 7    1  0.1246400E-009  0.4778727E+02  0.7816164E-02  0.1312668E+00
        -11   -1    0    0    0    0  0.00000000000E+00  0.00000000000E+00  0.45593999997E+02  0.45594000000E+02  0.51100000000E-03 0.  1.
         11   -1    0    0    0    0 -0.00000000000E+00 -0.00000000000E+00 -0.45593999997E+02  0.45594000000E+02  0.51100000000E-03 0. -1.
    9900012    2    1    2    0    0 -0.30517770229E+02 -0.14954662019E+01  0.30822922559E+02  0.47787271044E+02  0.19999999996E+02 0.  0.
         12    1    1    2    0    0  0.30517770229E+02  0.14954662019E+01 -0.30822922559E+02  0.43400728956E+02  0.00000000000E+00 0. -1.
         11    1    3    3    0    0 -0.17688078718E+02 -0.48215532844E+01  0.15092446825E+02  0.23746525140E+02  0.51100000000E-03 0. -1.
        -11    1    3    3    0    0 -0.11244809551E+02  0.76326769774E+01  0.11690715815E+02  0.17926972310E+02  0.51100000000E-03 0.  1.
         12    1    3    3    0    0 -0.15848819597E+01 -0.43065898949E+01  0.40397599183E+01  0.61137735930E+01  0.00000000000E+00 0. -1.
</event>
<event>
 7    1  0.1246400E-009  0.4778728E+02  0.7816164E-02  0.1312668E+00
        -11   -1    0    0    0    0  0.00000000000E+00  0.00000000000E+00  0.45593999997E+02  0.45594000000E+02  0.51100000000E-03 0.  1.
         11   -1    0    0    0    0 -0.00000000000E+00 -0.00000000000E+00 -0.45593999997E+02  0.45594000000E+02  0.51100000000E-03 0. -1.
    9900012    2    1    2    0    0  0.25342195917E+02  0.24451454961E+02  0.25367741003E+02  0.47787276191E+02  0.20000023464E+02 0.  0.
         12    1    1    2    0    0 -0.25342195917E+02 -0.24451454961E+02 -0.25367741003E+02  0.43400723809E+02  0.00000000000E+00 0. -1.
         11    1    3    3    0    0  0.75863651949E+01  0.12201556566E+02  0.36343807001E+01  0.14820244358E+02  0.51100000000E-03 0. -1.
        -11    1    3    3    0    0  0.10529864340E+02  0.13491540869E+02  0.17605295784E+02  0.24552925650E+02  0.51100000000E-03 0.  1.
         12    1    3    3    0    0  0.72259663821E+01 -0.12416424742E+01  0.41280645183E+01  0.84141061828E+01  0.00000000000E+00 0. -1.
</event>
<event>
 7    1  0.1246400E-009  0.4778726E+02  0.7816164E-02  0.1312668E+00
        -11   -1    0    0    0    0  0.00000000000E+00  0.00000000000E+00  0.45593999997E+02  0.45594000000E+02  0.51100000000E-03 0.  1.
         11   -1    0    0    0    0 -0.00000000000E+00 -0.00000000000E+00 -0.45593999997E+02  0.45594000000E+02  0.51100000000E-03 0. -1.
    9900012    2    1    2    0    0 -0.13905076996E+02 -0.29422712356E+02  0.28715452964E+02  0.47787257984E+02  0.19999940452E+02 0.  0.
         12    1    1    2    0    0  0.13905076996E+02  0.29422712356E+02 -0.28715452964E+02  0.43400742016E+02  0.00000000000E+00 0. -1.
         11    1    3    3    0    0  0.18924683269E+01  0.32966478520E+00  0.15359141147E+01  0.24595015080E+01  0.51100000000E-03 0. -1.
        -11    1    3    3    0    0 -0.91863015004E+01 -0.27932524078E+02  0.21547875269E+02  0.36454423127E+02  0.51100000000E-03 0.  1.
         12    1    3    3    0    0 -0.66112438222E+01 -0.18198530629E+01  0.56316635802E+01  0.88733333492E+01  0.00000000000E+00 0. -1.
</event>
<event>
 7    1  0.1246400E-009  0.4778727E+02  0.7816164E-02  0.1312668E+00
        -11   -1    0    0    0    0  0.00000000000E+00  0.00000000000E+00  0.45593999997E+02  0.45594000000E+02  0.51100000000E-03 0.  1.
         11   -1    0    0    0    0 -0.00000000000E+00 -0.00000000000E+00 -0.45593999997E+02  0.45594000000E+02  0.51100000000E-03 0. -1.
    9900012    2    1    2    0    0 -0.29611602193E+02  0.31014388786E+02 -0.66995458964E+01  0.47787271764E+02  0.20000003279E+02 0.  0.
         12    1    1    2    0    0  0.29611602193E+02 -0.31014388786E+02  0.66995458964E+01  0.43400728236E+02  0.00000000000E+00 0. -1.
         11    1    3    3    0    0 -0.89746928751E+01  0.38026945568E+01 -0.84441969581E+01  0.12896125799E+02  0.51100000000E-03 0. -1.
        -11    1    3    3    0    0 -0.69702518654E+01  0.44247996443E+01  0.92135480670E+00  0.83073556503E+01  0.51100000000E-03 0.  1.
        -12    1    3    3    0    0 -0.13666657453E+02  0.22786894585E+02  0.82329625503E+00  0.26583790314E+02  0.00000000000E+00 0.  1.
</event>
<event>
 7    1  0.1246400E-009  0.4778727E+02  0.7816164E-02  0.1312668E+00
        -11   -1    0    0    0    0  0.00000000000E+00  0.00000000000E+00  0.45593999997E+02  0.45594000000E+02  0.51100000000E-03 0.  1.
         11   -1    0    0    0    0 -0.00000000000E+00 -0.00000000000E+00 -0.45593999997E+02  0.45594000000E+02  0.51100000000E-03 0. -1.
    9900012    2    1    2    0    0  0.90283320201E+01  0.15833813910E+02  0.39387857269E+02  0.47787265648E+02  0.19999975396E+02 0.  0.
         12    1    1    2    0    0 -0.90283320201E+01 -0.15833813910E+02 -0.39387857269E+02  0.43400734352E+02  0.00000000000E+00 0. -1.
         11    1    3    3    0    0 -0.22913762283E+01  0.77315051764E+01  0.11638998096E+02  0.14159549931E+02  0.51100000000E-03 0. -1.
        -11    1    3    3    0    0  0.11262191165E+02  0.11191865359E+02  0.22528589742E+02  0.27561425146E+02  0.51100000000E-03 0.  1.
         12    1    3    3    0    0  0.57517083864E-01 -0.30895566256E+01  0.52202694311E+01  0.60662905709E+01  0.00000000000E+00 0. -1.
</event>
<event>
 7    1  0.1246400E-009  0.4778727E+02  0.7816164E-02  0.1312668E+00
        -11   -1    0    0    0    0  0.00000000000E+00  0.00000000000E+00  0.45593999997E+02  0.45594000000E+02  0.51100000000E-03 0. -1.
         11   -1    0    0    0    0 -0.00000000000E+00 -0.00000000000E+00 -0.45593999997E+02  0.45594000000E+02  0.51100000000E-03 0.  1.
    9900012    2    1    2    0    0  0.11957832268E+02 -0.48773135035E+01 -0.41434831874E+02  0.47787271527E+02  0.20000002200E+02 0.  0.
         12    1    1    2    0    0 -0.11957832268E+02  0.48773135035E+01  0.41434831874E+02  0.43400728473E+02  0.00000000000E+00 0. -1.
         11    1    3    3    0    0 -0.14076012544E+01  0.72697557175E+00  0.20603776997E+00  0.15975877431E+01  0.51100000000E-03 0. -1.
        -11    1    3    3    0    0  0.12511952523E+01 -0.34510001484E+00  0.94340079110E+00  0.16045525524E+01  0.51100000000E-03 0.  1.
        -12    1    3    3    0    0  0.12114238270E+02 -0.52591890605E+01 -0.42584270435E+02  0.44585131231E+02  0.00000000000E+00 0.  1.
</event>
<event>
 7    1  0.1246400E-009  0.4778727E+02  0.7816164E-02  0.1312668E+00
        -11   -1    0    0    0    0  0.00000000000E+00  0.00000000000E+00  0.45593999997E+02  0.45594000000E+02  0.51100000000E-03 0.  1.
         11   -1    0    0    0    0 -0.00000000000E+00 -0.00000000000E+00 -0.45593999997E+02  0.45594000000E+02  0.51100000000E-03 0. -1.
    9900012    2    1    2    0    0 -0.17403674745E+02 -0.24956838714E+02  0.30949821931E+02  0.47787272232E+02  0.20000005416E+02 0.  0.
         12    1    1    2    0    0  0.17403674745E+02  0.24956838714E+02 -0.30949821931E+02  0.43400727768E+02  0.00000000000E+00 0. -1.
         11    1    3    3    0    0 -0.14619572553E+02 -0.15500447250E+02  0.19423085347E+02  0.28831441366E+02  0.51100000000E-03 0. -1.
        -11    1    3    3    0    0 -0.76236796633E+00 -0.29175216669E+01  0.11727121977E+02  0.12108613782E+02  0.51100000000E-03 0.  1.
         12    1    3    3    0    0 -0.20217342254E+01 -0.65388697970E+01 -0.20038539286E+00  0.68472170848E+01  0.00000000000E+00 0. -1.
</event>
<event>
 7    1  0.1246400E-009  0.4778727E+02  0.7816164E-02  0.1312668E+00
        -11   -1    0    0    0    0  0.00000000000E+00  0.00000000000E+00  0.45593999997E+02  0.45594000000E+02  0.51100000000E-03 0.  1.
         11   -1    0    0    0    0 -0.00000000000E+00 -0.00000000000E+00 -0.45593999997E+02  0.45594000000E+02  0.51100000000E-03 0. -1.
    9900012    2    1    2    0    0 -0.29883706127E+02 -0.10615255967E+02  0.29629439548E+02  0.47787271446E+02  0.20000001829E+02 0.  0.
         12    1    1    2    0    0  0.29883706127E+02  0.10615255967E+02 -0.29629439548E+02  0.43400728554E+02  0.00000000000E+00 0. -1.
         11    1    3    3    0    0 -0.15146411247E+02 -0.25189962143E+01  0.91737185911E+01  0.17886202186E+02  0.51100000000E-03 0. -1.
        -11    1    3    3    0    0 -0.12880006327E+02 -0.11189317192E+02  0.19961690819E+02  0.26259559837E+02  0.51100000000E-03 0.  1.
        -12    1    3    3    0    0 -0.18572885531E+01  0.30930574401E+01  0.49403013739E+00  0.36415094225E+01  0.00000000000E+00 0.  1.
</event>
<event>
 7    1  0.1246400E-009  0.4778727E+02  0.7816164E-02  0.1312668E+00
        -11   -1    0    0    0    0  0.00000000000E+00  0.00000000000E+00  0.45593999997E+02  0.45594000000E+02  0.51100000000E-03 0. -1.
         11   -1    0    0    0    0 -0.00000000000E+00 -0.00000000000E+00 -0.45593999997E+02  0.45594000000E+02  0.51100000000E-03 0.  1.
    9900012    2    1    2    0    0  0.10200557316E+02 -0.31884773641E+02 -0.27621243719E+02  0.47787271155E+02  0.20000000506E+02 0.  0.
         12    1    1    2    0    0 -0.10200557316E+02  0.31884773641E+02  0.27621243719E+02  0.43400728845E+02  0.00000000000E+00 0. -1.
         11    1    3    3    0    0  0.26874528369E+01 -0.24585982781E+01  0.16028393165E+01  0.39794726258E+01  0.51100000000E-03 0. -1.
        -11    1    3    3    0    0 -0.16737348590E+01 -0.99128844359E+01 -0.14687561242E+02  0.17798626962E+02  0.51100000000E-03 0.  1.
        -12    1    3    3    0    0  0.91868393377E+01 -0.19513290927E+02 -0.14536521793E+02  0.26009171568E+02  0.00000000000E+00 0.  1.
</event>
<event>
 7    1  0.1246400E-009  0.4778727E+02  0.7816164E-02  0.1312668E+00
        -11   -1    0    0    0    0  0.00000000000E+00  0.00000000000E+00  0.45593999997E+02  0.45594000000E+02  0.51100000000E-03 0. -1.
         11   -1    0    0    0    0 -0.00000000000E+00 -0.00000000000E+00 -0.45593999997E+02  0.45594000000E+02  0.51100000000E-03 0.  1.
    9900012    2    1    2    0    0  0.11582513567E+02 -0.31063731674E+02 -0.28009163100E+02  0.47787271163E+02  0.20000000541E+02 0.  0.
         12    1    1    2    0    0 -0.11582513567E+02  0.31063731674E+02  0.28009163100E+02  0.43400728837E+02  0.00000000000E+00 0. -1.
         11    1    3    3    0    0 -0.18911653968E+01 -0.27240659867E+00  0.60188880102E+00  0.20032429465E+01  0.51100000000E-03 0. -1.
        -11    1    3    3    0    0 -0.80331644276E+00  0.22887121690E+00  0.44570914593E+00  0.94676092284E+00  0.51100000000E-03 0.  1.
        -12    1    3    3    0    0  0.14276995407E+02 -0.31020196292E+02 -0.29056761047E+02  0.44837267294E+02  0.00000000000E+00 0.  1.
</event>
<event>
 7    1  0.1246400E-009  0.4778728E+02  0.7816164E-02  0.1312668E+00
        -11   -1    0    0    0    0  0.00000000000E+00  0.00000000000E+00  0.45593999997E+02  0.45594000000E+02  0.51100000000E-03 0. -1.
         11   -1    0    0    0    0 -0.00000000000E+00 -0.00000000000E+00 -0.45593999997E+02  0.45594000000E+02  0.51100000000E-03 0.  1.
    9900012    2    1    2    0    0 -0.38719516563E+02  0.18923852734E+02  0.51292945733E+01  0.47787276181E+02  0.20000023421E+02 0.  0.
         12    1    1    2    0    0  0.38719516563E+02 -0.18923852734E+02 -0.51292945733E+01  0.43400723819E+02  0.00000000000E+00 0. -1.
         11    1    3    3    0    0  0.10846950404E+01  0.45818970548E+00 -0.19974165122E+01  0.23186578275E+01  0.51100000000E-03 0. -1.
        -11    1    3    3    0    0 -0.98690926156E+01  0.16051518324E+01 -0.13286995342E+01  0.10086671610E+02  0.51100000000E-03 0.  1.
        -12    1    3    3    0    0 -0.29935118988E+02  0.16860511196E+02  0.84554106197E+01  0.35381946743E+02  0.00000000000E+00 0.  1.
</event>
<event>
 7    1  0.1246400E-009  0.4778728E+02  0.7816164E-02  0.1312668E+00
        -11   -1    0    0    0    0  0.00000000000E+00  0.00000000000E+00  0.45593999997E+02  0.45594000000E+02  0.51100000000E-03 0.  1.
         11   -1    0    0    0    0 -0.00000000000E+00 -0.00000000000E+00 -0.45593999997E+02  0.45594000000E+02  0.51100000000E-03 0. -1.
    9900012    2    1    2    0    0  0.41777029388E+02  0.43399631674E+01  0.10930115132E+02  0.47787275563E+02  0.20000020604E+02 0.  0.
         12    1    1    2    0    0 -0.41777029388E+02 -0.43399631674E+01 -0.10930115132E+02  0.43400724437E+02  0.00000000000E+00 0. -1.
         11    1    3    3    0    0  0.15999769989E+02  0.32549072067E+01  0.10171878104E+02  0.19236791964E+02  0.51100000000E-03 0. -1.
        -11    1    3    3    0    0  0.26790907242E+02  0.22081034004E+01  0.54123636710E-01  0.26881803532E+02  0.51100000000E-03 0.  1.
         12    1    3    3    0    0 -0.10136478429E+01 -0.11230474397E+01  0.70411339140E+00  0.16686800680E+01  0.00000000000E+00 0. -1.
</event>
<event>
 7    1  0.1246400E-009  0.4778727E+02  0.7816164E-02  0.1312668E+00
        -11   -1    0    0    0    0  0.00000000000E+00  0.00000000000E+00  0.45593999997E+02  0.45594000000E+02  0.51100000000E-03 0. -1.
         11   -1    0    0    0    0 -0.00000000000E+00 -0.00000000000E+00 -0.45593999997E+02  0.45594000000E+02  0.51100000000E-03 0.  1.
    9900012    2    1    2    0    0 -0.27815231681E+02 -0.18515270120E+02 -0.27696945270E+02  0.47787272836E+02  0.20000008167E+02 0.  0.
         12    1    1    2    0    0  0.27815231681E+02  0.18515270120E+02  0.27696945270E+02  0.43400727164E+02  0.00000000000E+00 0. -1.
         11    1    3    3    0    0 -0.11912541220E+02 -0.18240994230E+02 -0.19675391685E+02  0.29355809426E+02  0.51100000000E-03 0. -1.
        -11    1    3    3    0    0 -0.43969768410E+01  0.43288793728E+00 -0.54135009186E-01  0.44185663022E+01  0.51100000000E-03 0.  1.
         12    1    3    3    0    0 -0.11505713620E+02 -0.70716382691E+00 -0.79674185756E+01  0.14012897107E+02  0.00000000000E+00 0. -1.
</event>
<event>
 7    1  0.1246400E-009  0.4778727E+02  0.7816164E-02  0.1312668E+00
        -11   -1    0    0    0    0  0.00000000000E+00  0.00000000000E+00  0.45593999997E+02  0.45594000000E+02  0.51100000000E-03 0.  1.
         11   -1    0    0    0    0 -0.00000000000E+00 -0.00000000000E+00 -0.45593999997E+02  0.45594000000E+02  0.51100000000E-03 0. -1.
    9900012    2    1    2    0    0  0.30818918816E+02 -0.25343525366E+01  0.30453150879E+02  0.47787273068E+02  0.20000009226E+02 0.  0.
         12    1    1    2    0    0 -0.30818918816E+02  0.25343525366E+01 -0.30453150879E+02  0.43400726932E+02  0.00000000000E+00 0. -1.
         11    1    3    3    0    0  0.13536258639E+02  0.10756938780E+01  0.12303103378E+02  0.18323585027E+02  0.51100000000E-03 0. -1.
        -11    1    3    3    0    0  0.47332676859E+01  0.44047393189E+01  0.11419300213E+02  0.13122727197E+02  0.51100000000E-03 0.  1.
        -12    1    3    3    0    0  0.12549392491E+02 -0.80147857334E+01  0.67307472876E+01  0.16340960844E+02  0.00000000000E+00 0.  1.
</event>
<event>
 7    1  0.1246400E-009  0.4778727E+02  0.7816164E-02  0.1312668E+00
        -11   -1    0    0    0    0  0.00000000000E+00  0.00000000000E+00  0.45593999997E+02  0.45594000000E+02  0.51100000000E-03 0.  1.
         11   -1    0    0    0    0 -0.00000000000E+00 -0.00000000000E+00 -0.45593999997E+02  0.45594000000E+02  0.51100000000E-03 0. -1.
    9900012    2    1    2    0    0  0.31946537721E+02  0.24251982648E+02  0.16579620219E+02  0.47787265660E+02  0.19999975448E+02 0.  0.
         12    1    1    2    0    0 -0.31946537721E+02 -0.24251982648E+02 -0.16579620219E+02  0.43400734340E+02  0.00000000000E+00 0. -1.
         11    1    3    3    0    0  0.10143436889E+02  0.33067392739E+01  0.94597081265E+01  0.14258678573E+02  0.51100000000E-03 0. -1.
        -11    1    3    3    0    0  0.11140019224E+02  0.26292493441E+01  0.11135991196E+01  0.11500134072E+02  0.51100000000E-03 0.  1.
        -12    1    3    3    0    0  0.10663081608E+02  0.18315994030E+02  0.60063129724E+01  0.22028453014E+02  0.00000000000E+00 0.  1.
</event>
<event>
 7    1  0.1246400E-009  0.4778726E+02  0.7816164E-02  0.1312668E+00
        -11   -1    0    0    0    0  0.00000000000E+00  0.00000000000E+00  0.45593999997E+02  0.45594000000E+02  0.51100000000E-03 0.  1.
         11   -1    0    0    0    0 -0.00000000000E+00 -0.00000000000E+00 -0.45593999997E+02  0.45594000000E+02  0.51100000000E-03 0. -1.
    9900012    2    1    2    0    0 -0.27320781666E+02 -0.26098317110E+02  0.21355951890E+02  0.47787263279E+02  0.19999964593E+02 0.  0.
         12    1    1    2    0    0  0.27320781666E+02  0.26098317110E+02 -0.21355951890E+02  0.43400736721E+02  0.00000000000E+00 0. -1.
         11    1    3    3    0    0 -0.54635798366E+01 -0.12647484820E+02  0.11711952313E+02  0.18082571834E+02  0.51100000000E-03 0.  1.
        -11    1    3    3    0    0 -0.14668967316E+02 -0.56696624908E+01  0.10756390158E+02  0.19053178327E+02  0.51100000000E-03 0. -1.
         12    1    3    3    0    0 -0.71882345135E+01 -0.77811697995E+01 -0.11123905817E+01  0.10651513117E+02  0.00000000000E+00 0. -1.
</event>
<event>
 7    1  0.1246400E-009  0.4778727E+02  0.7816164E-02  0.1312668E+00
        -11   -1    0    0    0    0  0.00000000000E+00  0.00000000000E+00  0.45593999997E+02  0.45594000000E+02  0.51100000000E-03 0.  1.
         11   -1    0    0    0    0 -0.00000000000E+00 -0.00000000000E+00 -0.45593999997E+02  0.45594000000E+02  0.51100000000E-03 0. -1.
    9900012    2    1    2    0    0  0.71850529242E+01  0.31928707300E+02  0.28505366211E+02  0.47787271455E+02  0.20000001873E+02 0.  0.
         12    1    1    2    0    0 -0.71850529242E+01 -0.31928707300E+02 -0.28505366211E+02  0.43400728545E+02  0.00000000000E+00 0. -1.
         11    1    3    3    0    0  0.41393780322E+01  0.92194085015E+01  0.54443395439E+01  0.11479232420E+02  0.51100000000E-03 0. -1.
        -11    1    3    3    0    0  0.65256617773E+01  0.20287589904E+02  0.23862148279E+02  0.31993322530E+02  0.51100000000E-03 0.  1.
         12    1    3    3    0    0 -0.34799868854E+01  0.24217088947E+01 -0.80112161150E+00  0.43147165063E+01  0.00000000000E+00 0. -1.
</event>
<event>
 7    1  0.1246400E-009  0.4778727E+02  0.7816164E-02  0.1312668E+00
        -11   -1    0    0    0    0  0.00000000000E+00  0.00000000000E+00  0.45593999997E+02  0.45594000000E+02  0.51100000000E-03 0.  1.
         11   -1    0    0    0    0 -0.00000000000E+00 -0.00000000000E+00 -0.45593999997E+02  0.45594000000E+02  0.51100000000E-03 0. -1.
    9900012    2    1    2    0    0 -0.37798888483E+02 -0.19365067924E+02  0.89365111868E+01  0.47787273526E+02  0.20000011314E+02 0.  0.
         12    1    1    2    0    0  0.37798888483E+02  0.19365067924E+02 -0.89365111868E+01  0.43400726474E+02  0.00000000000E+00 0. -1.
         11    1    3    3    0    0 -0.46096214706E+01 -0.11100529085E+02 -0.50879359502E+00  0.12030346099E+02  0.51100000000E-03 0. -1.
        -11    1    3    3    0    0 -0.15843125104E+02 -0.61251026383E+01  0.53133334871E+01  0.17797556248E+02  0.51100000000E-03 0.  1.
         12    1    3    3    0    0 -0.17346141909E+02 -0.21394362012E+01  0.41319712946E+01  0.17959371179E+02  0.00000000000E+00 0. -1.
</event>
<event>
 7    1  0.1246400E-009  0.4778727E+02  0.7816164E-02  0.1312668E+00
        -11   -1    0    0    0    0  0.00000000000E+00  0.00000000000E+00  0.45593999997E+02  0.45594000000E+02  0.51100000000E-03 0. -1.
         11   -1    0    0    0    0 -0.00000000000E+00 -0.00000000000E+00 -0.45593999997E+02  0.45594000000E+02  0.51100000000E-03 0.  1.
    9900012    2    1    2    0    0 -0.39994753662E+02 -0.13897815770E+02  0.95338372834E+01  0.47787266631E+02  0.19999979877E+02 0.  0.
         12    1    1    2    0    0  0.39994753662E+02  0.13897815770E+02 -0.95338372834E+01  0.43400733369E+02  0.00000000000E+00 0. -1.
         11    1    3    3    0    0  0.11754684918E+01  0.29104799320E-01  0.14427724947E+01  0.18612270139E+01  0.51100000000E-03 0. -1.
        -11    1    3    3    0    0 -0.31159190630E+00 -0.16416576571E+01 -0.14434037863E+01  0.22080634345E+01  0.51100000000E-03 0.  1.
        -12    1    3    3    0    0 -0.40858630247E+02 -0.12285262912E+02  0.95344685750E+01  0.43717976183E+02  0.00000000000E+00 0.  1.
</event>
<event>
 7    1  0.1246400E-009  0.4778727E+02  0.7816164E-02  0.1312668E+00
        -11   -1    0    0    0    0  0.00000000000E+00  0.00000000000E+00  0.45593999997E+02  0.45594000000E+02  0.51100000000E-03 0.  1.
         11   -1    0    0    0    0 -0.00000000000E+00 -0.00000000000E+00 -0.45593999997E+02  0.45594000000E+02  0.51100000000E-03 0. -1.
    9900012    2    1    2    0    0  0.61690916663E+01  0.18729602437E+02  0.38662223494E+02  0.47787271608E+02  0.20000002568E+02 0.  0.
         12    1    1    2    0    0 -0.61690916663E+01 -0.18729602437E+02 -0.38662223494E+02  0.43400728392E+02  0.00000000000E+00 0. -1.
         11    1    3    3    0    0 -0.20647128025E-01  0.89380566079E+01  0.59794072714E+01  0.10753724648E+02  0.51100000000E-03 0. -1.
        -11    1    3    3    0    0 -0.11927995566E+01  0.62858925140E+01  0.25038631155E+02  0.25843147368E+02  0.51100000000E-03 0.  1.
        -12    1    3    3    0    0  0.73825383509E+01  0.35056533156E+01  0.76441850678E+01  0.11190399592E+02  0.00000000000E+00 0.  1.
</event>
<event>
 7    1  0.1246400E-009  0.4778727E+02  0.7816164E-02  0.1312668E+00
        -11   -1    0    0    0    0  0.00000000000E+00  0.00000000000E+00  0.45593999997E+02  0.45594000000E+02  0.51100000000E-03 0.  1.
         11   -1    0    0    0    0 -0.00000000000E+00 -0.00000000000E+00 -0.45593999997E+02  0.45594000000E+02  0.51100000000E-03 0. -1.
    9900012    2    1    2    0    0 -0.34546573706E+01  0.35758974267E+02  0.24351270644E+02  0.47787270972E+02  0.19999999672E+02 0.  0.
         12    1    1    2    0    0  0.34546573706E+01 -0.35758974267E+02 -0.24351270644E+02  0.43400729028E+02  0.00000000000E+00 0. -1.
         11    1    3    3    0    0 -0.73813092823E+01  0.23166789641E+02  0.13466535035E+02  0.27794449718E+02  0.51100000000E-03 0. -1.
        -11    1    3    3    0    0  0.33359219890E+01  0.14014740042E+02  0.11397206258E+02  0.18369475352E+02  0.51100000000E-03 0.  1.
         12    1    3    3    0    0  0.59072992264E+00 -0.14225554164E+01 -0.51247064893E+00  0.16233459028E+01  0.00000000000E+00 0. -1.
</event>
<event>
 7    1  0.1246400E-009  0.4778728E+02  0.7816164E-02  0.1312668E+00
        -11   -1    0    0    0    0  0.00000000000E+00  0.00000000000E+00  0.45593999997E+02  0.45594000000E+02  0.51100000000E-03 0. -1.
         11   -1    0    0    0    0 -0.00000000000E+00 -0.00000000000E+00 -0.45593999997E+02  0.45594000000E+02  0.51100000000E-03 0.  1.
    9900012    2    1    2    0    0 -0.17112215591E+02  0.87141657364E+01 -0.38921173149E+02  0.47787281962E+02  0.20000049777E+02 0.  0.
         12    1    1    2    0    0  0.17112215591E+02 -0.87141657364E+01  0.38921173149E+02  0.43400718038E+02  0.00000000000E+00 0. -1.
         11    1    3    3    0    0  0.26093044366E+00  0.23462328564E+00 -0.16264864668E+02  0.16268649474E+02  0.51100000000E-03 0. -1.
        -11    1    3    3    0    0 -0.10646196720E+02  0.90336040271E+01 -0.19708922822E+02  0.24153449969E+02  0.51100000000E-03 0.  1.
         12    1    3    3    0    0 -0.67269493149E+01 -0.55406157636E+00 -0.29473856587E+01  0.73651825189E+01  0.00000000000E+00 0. -1.
</event>
<event>
 7    1  0.1246400E-009  0.4778727E+02  0.7816164E-02  0.1312668E+00
        -11   -1    0    0    0    0  0.00000000000E+00  0.00000000000E+00  0.45593999997E+02  0.45594000000E+02  0.51100000000E-03 0.  1.
         11   -1    0    0    0    0 -0.00000000000E+00 -0.00000000000E+00 -0.45593999997E+02  0.45594000000E+02  0.51100000000E-03 0. -1.
    9900012    2    1    2    0    0 -0.27930349005E+02 -0.17051784243E+02  0.28508866572E+02  0.47787271727E+02  0.20000003113E+02 0.  0.
         12    1    1    2    0    0  0.27930349005E+02  0.17051784243E+02 -0.28508866572E+02  0.43400728273E+02  0.00000000000E+00 0. -1.
         11    1    3    3    0    0  0.15885630139E+01 -0.33278978703E+01  0.23619740390E+01  0.43791960799E+01  0.51100000000E-03 0. -1.
        -11    1    3    3    0    0 -0.96236028790E+01  0.26176134041E-01  0.12027376264E+02  0.15403642349E+02  0.51100000000E-03 0.  1.
         12    1    3    3    0    0 -0.19895309139E+02 -0.13750062507E+02  0.14119516269E+02  0.28004433299E+02  0.00000000000E+00 0. -1.
</event>
<event>
 7    1  0.1246400E-009  0.4778727E+02  0.7816164E-02  0.1312668E+00
        -11   -1    0    0    0    0  0.00000000000E+00  0.00000000000E+00  0.45593999997E+02  0.45594000000E+02  0.51100000000E-03 0.  1.
         11   -1    0    0    0    0 -0.00000000000E+00 -0.00000000000E+00 -0.45593999997E+02  0.45594000000E+02  0.51100000000E-03 0. -1.
    9900012    2    1    2    0    0 -0.43916857558E+01 -0.33235539796E+02  0.27563293575E+02  0.47787272333E+02  0.20000005875E+02 0.  0.
         12    1    1    2    0    0  0.43916857558E+01  0.33235539796E+02 -0.27563293575E+02  0.43400727667E+02  0.00000000000E+00 0. -1.
         11    1    3    3    0    0 -0.46458096690E+01 -0.39589475543E+01  0.67557098872E+01  0.91047476384E+01  0.51100000000E-03 0. -1.
        -11    1    3    3    0    0 -0.70933557641E+00 -0.15983445509E+02  0.19598613142E+02  0.25299789024E+02  0.51100000000E-03 0.  1.
        -12    1    3    3    0    0  0.96345948960E+00 -0.13293146733E+02  0.12089705457E+01  0.13382735671E+02  0.00000000000E+00 0.  1.
</event>
<event>
 7    1  0.1246400E-009  0.4778727E+02  0.7816164E-02  0.1312668E+00
        -11   -1    0    0    0    0  0.00000000000E+00  0.00000000000E+00  0.45593999997E+02  0.45594000000E+02  0.51100000000E-03 0.  1.
         11   -1    0    0    0    0 -0.00000000000E+00 -0.00000000000E+00 -0.45593999997E+02  0.45594000000E+02  0.51100000000E-03 0. -1.
    9900012    2    1    2    0    0 -0.32651314208E+02 -0.25869754167E+02  0.12176636633E+02  0.47787274432E+02  0.20000015446E+02 0.  0.
         12    1    1    2    0    0  0.32651314208E+02  0.25869754167E+02 -0.12176636633E+02  0.43400725568E+02  0.00000000000E+00 0. -1.
         11    1    3    3    0    0 -0.24386588900E+01 -0.93121809954E+01  0.25311003530E+01  0.99534035049E+01  0.51100000000E-03 0. -1.
        -11    1    3    3    0    0 -0.12868057659E+02 -0.33866418839E+01  0.89651315835E+01  0.16044620149E+02  0.51100000000E-03 0.  1.
        -12    1    3    3    0    0 -0.17344597659E+02 -0.13170931287E+02  0.68040469688E+00  0.21789250778E+02  0.00000000000E+00 0.  1.
</event>
<event>
 7    1  0.1246400E-009  0.4778729E+02  0.7816164E-02  0.1312668E+00
        -11   -1    0    0    0    0  0.00000000000E+00  0.00000000000E+00  0.45593999997E+02  0.45594000000E+02  0.51100000000E-03 0. -1.
         11   -1    0    0    0    0 -0.00000000000E+00 -0.00000000000E+00 -0.45593999997E+02  0.45594000000E+02  0.51100000000E-03 0.  1.
    9900012    2    1    2    0    0 -0.11389298862E+02  0.13526233320E+02 -0.39635167046E+02  0.47787290522E+02  0.20000088807E+02 0.  0.
         12    1    1    2    0    0  0.11389298862E+02 -0.13526233320E+02  0.39635167046E+02  0.43400709478E+02  0.00000000000E+00 0. -1.
         11    1    3    3    0    0  0.23498260241E+01  0.28274472226E+01 -0.62860893865E+01  0.72822427985E+01  0.51100000000E-03 0. -1.
        -11    1    3    3    0    0  0.14089305666E+01  0.16928887772E+01  0.57527124010E+00  0.22763776081E+01  0.51100000000E-03 0.  1.
        -12    1    3    3    0    0 -0.15148055453E+02  0.90058973197E+01 -0.33924348900E+02  0.38228670116E+02  0.00000000000E+00 0.  1.
</event>
<event>
 7    1  0.1246400E-009  0.4778727E+02  0.7816164E-02  0.1312668E+00
        -11   -1    0    0    0    0  0.00000000000E+00  0.00000000000E+00  0.45593999997E+02  0.45594000000E+02  0.51100000000E-03 0.  1.
         11   -1    0    0    0    0 -0.00000000000E+00 -0.00000000000E+00 -0.45593999997E+02  0.45594000000E+02  0.51100000000E-03 0. -1.
    9900012    2    1    2    0    0  0.18588824350E+02  0.22960250172E+01  0.39151081776E+02  0.47787270446E+02  0.19999997270E+02 0.  0.
         12    1    1    2    0    0 -0.18588824350E+02 -0.22960250172E+01 -0.39151081776E+02  0.43400729554E+02  0.00000000000E+00 0. -1.
         11    1    3    3    0    0  0.77486204463E+01 -0.31809625734E+01  0.93166606071E+01  0.12528360102E+02  0.51100000000E-03 0. -1.
        -11    1    3    3    0    0  0.11355846622E+02  0.86813385558E+01  0.28220689877E+02  0.31634288818E+02  0.51100000000E-03 0.  1.
         12    1    3    3    0    0 -0.51564271821E+00 -0.32043509653E+01  0.16137312917E+01  0.36246215255E+01  0.00000000000E+00 0. -1.
</event>
<event>
 7    1  0.1246400E-009  0.4778727E+02  0.7816164E-02  0.1312668E+00
        -11   -1    0    0    0    0  0.00000000000E+00  0.00000000000E+00  0.45593999997E+02  0.45594000000E+02  0.51100000000E-03 0.  1.
         11   -1    0    0    0    0 -0.00000000000E+00 -0.00000000000E+00 -0.45593999997E+02  0.45594000000E+02  0.51100000000E-03 0. -1.
    9900012    2    1    2    0    0 -0.34849182536E+02 -0.16218261750E+02  0.20152555804E+02  0.47787273703E+02  0.20000012122E+02 0.  0.
         12    1    1    2    0    0  0.34849182536E+02  0.16218261750E+02 -0.20152555804E+02  0.43400726297E+02  0.00000000000E+00 0. -1.
         11    1    3    3    0    0 -0.80243839268E+01 -0.11320358287E+02  0.13246148273E+02  0.19183370233E+02  0.51100000000E-03 0. -1.
        -11    1    3    3    0    0 -0.13179472880E+02 -0.39562176943E+01  0.56266491056E+01  0.14866383025E+02  0.51100000000E-03 0.  1.
         12    1    3    3    0    0 -0.13645325730E+02 -0.94168576822E+00  0.12797584261E+01  0.13737520445E+02  0.00000000000E+00 0. -1.
</event>
<event>
 7    1  0.1246400E-009  0.4778727E+02  0.7816164E-02  0.1312668E+00
        -11   -1    0    0    0    0  0.00000000000E+00  0.00000000000E+00  0.45593999997E+02  0.45594000000E+02  0.51100000000E-03 0. -1.
         11   -1    0    0    0    0 -0.00000000000E+00 -0.00000000000E+00 -0.45593999997E+02  0.45594000000E+02  0.51100000000E-03 0.  1.
    9900012    2    1    2    0    0 -0.40435056999E+02  0.10888270801E+02  0.11405036871E+02  0.47787272569E+02  0.20000006949E+02 0.  0.
         12    1    1    2    0    0  0.40435056999E+02 -0.10888270801E+02 -0.11405036871E+02  0.43400727431E+02  0.00000000000E+00 0. -1.
         11    1    3    3    0    0 -0.60255204378E+01  0.37509765972E+01  0.85851513988E+01  0.11139189682E+02  0.51100000000E-03 0. -1.
        -11    1    3    3    0    0 -0.30481760203E+01  0.28378865837E+01  0.27546786605E+01  0.49933187457E+01  0.51100000000E-03 0.  1.
        -12    1    3    3    0    0 -0.31361360541E+02  0.42994076204E+01  0.65206811255E-01  0.31654764140E+02  0.00000000000E+00 0.  1.
</event>
<event>
 7    1  0.1246400E-009  0.4778727E+02  0.7816164E-02  0.1312668E+00
        -11   -1    0    0    0    0  0.00000000000E+00  0.00000000000E+00  0.45593999997E+02  0.45594000000E+02  0.51100000000E-03 0. -1.
         11   -1    0    0    0    0 -0.00000000000E+00 -0.00000000000E+00 -0.45593999997E+02  0.45594000000E+02  0.51100000000E-03 0.  1.
    9900012    2    1    2    0    0 -0.10356013672E+02  0.40119304773E+02 -0.12915795243E+02  0.47787269575E+02  0.19999993302E+02 0.  0.
         12    1    1    2    0    0  0.10356013672E+02 -0.40119304773E+02  0.12915795243E+02  0.43400730425E+02  0.00000000000E+00 0. -1.
         11    1    3    3    0    0  0.34928665634E+01  0.88636388513E+01 -0.58890196800E+01  0.11200212657E+02  0.51100000000E-03 0. -1.
        -11    1    3    3    0    0 -0.73956310039E+01  0.18730297592E+02 -0.95261592113E+01  0.22277053562E+02  0.51100000000E-03 0.  1.
         12    1    3    3    0    0 -0.64532492314E+01  0.12525368330E+02  0.24993836479E+01  0.14310003356E+02  0.00000000000E+00 0. -1.
</event>
<event>
 7    1  0.1246400E-009  0.4778727E+02  0.7816164E-02  0.1312668E+00
        -11   -1    0    0    0    0  0.00000000000E+00  0.00000000000E+00  0.45593999997E+02  0.45594000000E+02  0.51100000000E-03 0.  1.
         11   -1    0    0    0    0 -0.00000000000E+00 -0.00000000000E+00 -0.45593999997E+02  0.45594000000E+02  0.51100000000E-03 0. -1.
    9900012    2    1    2    0    0  0.22772639758E+02 -0.36634341607E+02  0.47911608127E+01  0.47787270416E+02  0.19999997135E+02 0.  0.
         12    1    1    2    0    0 -0.22772639758E+02  0.36634341607E+02 -0.47911608127E+01  0.43400729584E+02  0.00000000000E+00 0. -1.
         11    1    3    3    0    0  0.20263188353E+02 -0.19358267666E+02 -0.73413562291E+00  0.28033520732E+02  0.51100000000E-03 0. -1.
        -11    1    3    3    0    0  0.45717578715E+01 -0.62349329379E+01  0.23839381421E+01  0.80906439857E+01  0.51100000000E-03 0.  1.
        -12    1    3    3    0    0 -0.20623064669E+01 -0.11041141003E+02  0.31413582935E+01  0.11663105699E+02  0.00000000000E+00 0.  1.
</event>
<event>
 7    1  0.1246400E-009  0.4778728E+02  0.7816164E-02  0.1312668E+00
        -11   -1    0    0    0    0  0.00000000000E+00  0.00000000000E+00  0.45593999997E+02  0.45594000000E+02  0.51100000000E-03 0. -1.
         11   -1    0    0    0    0 -0.00000000000E+00 -0.00000000000E+00 -0.45593999997E+02  0.45594000000E+02  0.51100000000E-03 0.  1.
    9900012    2    1    2    0    0  0.40641725303E+02 -0.14588092868E+02 -0.43658111369E+01  0.47787278854E+02  0.20000035606E+02 0.  0.
         12    1    1    2    0    0 -0.40641725303E+02  0.14588092868E+02  0.43658111369E+01  0.43400721146E+02  0.00000000000E+00 0. -1.
         11    1    3    3    0    0  0.19046996093E+02 -0.46286793330E+01  0.53846407217E+01  0.20327495874E+02  0.51100000000E-03 0. -1.
        -11    1    3    3    0    0  0.12285214517E+02 -0.35148263935E+00 -0.48319167238E+01  0.13205962868E+02  0.51100000000E-03 0.  1.
         12    1    3    3    0    0  0.93095146926E+01 -0.96079308960E+01 -0.49185351348E+01  0.14253820112E+02  0.00000000000E+00 0. -1.
</event>
<event>
 7    1  0.1246400E-009  0.4778727E+02  0.7816164E-02  0.1312668E+00
        -11   -1    0    0    0    0  0.00000000000E+00  0.00000000000E+00  0.45593999997E+02  0.45594000000E+02  0.51100000000E-03 0. -1.
         11   -1    0    0    0    0 -0.00000000000E+00 -0.00000000000E+00 -0.45593999997E+02  0.45594000000E+02  0.51100000000E-03 0.  1.
    9900012    2    1    2    0    0  0.23628072650E+02 -0.35948037703E+02 -0.57511766203E+01  0.47787271154E+02  0.20000000498E+02 0.  0.
         12    1    1    2    0    0 -0.23628072650E+02  0.35948037703E+02  0.57511766203E+01  0.43400728846E+02  0.00000000000E+00 0. -1.
         11    1    3    3    0    0 -0.14745397919E+01 -0.57136080674E+01 -0.58170884810E+01  0.82860185495E+01  0.51100000000E-03 0. -1.
        -11    1    3    3    0    0  0.12548035407E+02 -0.13020885642E+02 -0.14554265214E+01  0.18141524801E+02  0.51100000000E-03 0.  1.
        -12    1    3    3    0    0  0.12554577035E+02 -0.17213543994E+02  0.15213383821E+01  0.21359727803E+02  0.00000000000E+00 0.  1.
</event>
<event>
 7    1  0.1246400E-009  0.4778727E+02  0.7816164E-02  0.1312668E+00
        -11   -1    0    0    0    0  0.00000000000E+00  0.00000000000E+00  0.45593999997E+02  0.45594000000E+02  0.51100000000E-03 0.  1.
         11   -1    0    0    0    0 -0.00000000000E+00 -0.00000000000E+00 -0.45593999997E+02  0.45594000000E+02  0.51100000000E-03 0. -1.
    9900012    2    1    2    0    0 -0.30225505500E+02  0.23366254425E+02  0.20592718423E+02  0.47787273270E+02  0.20000010148E+02 0.  0.
         12    1    1    2    0    0  0.30225505500E+02 -0.23366254425E+02 -0.20592718423E+02  0.43400726730E+02  0.00000000000E+00 0. -1.
         11    1    3    3    0    0 -0.24887029311E+02  0.11325459165E+02  0.90317013458E+01  0.28795865722E+02  0.51100000000E-03 0. -1.
        -11    1    3    3    0    0 -0.25401828272E+01  0.15510003308E+01  0.62128802714E+01  0.68889775982E+01  0.51100000000E-03 0.  1.
        -12    1    3    3    0    0 -0.27982933626E+01  0.10489794929E+02  0.53481368059E+01  0.12102429950E+02  0.00000000000E+00 0.  1.
</event>
<event>
 7    1  0.1246400E-009  0.4778728E+02  0.7816164E-02  0.1312668E+00
        -11   -1    0    0    0    0  0.00000000000E+00  0.00000000000E+00  0.45593999997E+02  0.45594000000E+02  0.51100000000E-03 0. -1.
         11   -1    0    0    0    0 -0.00000000000E+00 -0.00000000000E+00 -0.45593999997E+02  0.45594000000E+02  0.51100000000E-03 0.  1.
    9900012    2    1    2    0    0 -0.17911379078E+02 -0.20844992262E+02 -0.33590053747E+02  0.47787275195E+02  0.20000018923E+02 0.  0.
         12    1    1    2    0    0  0.17911379078E+02  0.20844992262E+02  0.33590053747E+02  0.43400724805E+02  0.00000000000E+00 0. -1.
         11    1    3    3    0    0  0.13273441156E+01 -0.83412531514E+01 -0.33191947203E+01  0.90749876247E+01  0.51100000000E-03 0. -1.
        -11    1    3    3    0    0 -0.45706876285E+01 -0.43468147636E+01 -0.13912120522E+02  0.15275244079E+02  0.51100000000E-03 0.  1.
         12    1    3    3    0    0 -0.14668035565E+02 -0.81569243469E+01 -0.16358738505E+02  0.23437043491E+02  0.00000000000E+00 0. -1.
</event>
<event>
 7    1  0.1246400E-009  0.4778727E+02  0.7816164E-02  0.1312668E+00
        -11   -1    0    0    0    0  0.00000000000E+00  0.00000000000E+00  0.45593999997E+02  0.45594000000E+02  0.51100000000E-03 0.  1.
         11   -1    0    0    0    0 -0.00000000000E+00 -0.00000000000E+00 -0.45593999997E+02  0.45594000000E+02  0.51100000000E-03 0. -1.
    9900012    2    1    2    0    0 -0.60930185056E+01  0.33835172343E+02  0.26489242934E+02  0.47787265522E+02  0.19999974821E+02 0.  0.
         12    1    1    2    0    0  0.60930185056E+01 -0.33835172343E+02 -0.26489242934E+02  0.43400734478E+02  0.00000000000E+00 0. -1.
         11    1    3    3    0    0 -0.57033195213E+01  0.12050678891E+02  0.20960523773E+01  0.13495930910E+02  0.51100000000E-03 0. -1.
        -11    1    3    3    0    0  0.31309119813E+01  0.13524254844E+02  0.92346197318E+01  0.16672920583E+02  0.51100000000E-03 0.  1.
         12    1    3    3    0    0 -0.35206109656E+01  0.82602386084E+01  0.15158570825E+02  0.17618414029E+02  0.00000000000E+00 0. -1.
</event>
<event>
 7    1  0.1246400E-009  0.4778727E+02  0.7816164E-02  0.1312668E+00
        -11   -1    0    0    0    0  0.00000000000E+00  0.00000000000E+00  0.45593999997E+02  0.45594000000E+02  0.51100000000E-03 0.  1.
         11   -1    0    0    0    0 -0.00000000000E+00 -0.00000000000E+00 -0.45593999997E+02  0.45594000000E+02  0.51100000000E-03 0. -1.
    9900012    2    1    2    0    0  0.31832322132E+01  0.38583559061E+02  0.19616303439E+02  0.47787270078E+02  0.19999995594E+02 0.  0.
         12    1    1    2    0    0 -0.31832322132E+01 -0.38583559061E+02 -0.19616303439E+02  0.43400729922E+02  0.00000000000E+00 0. -1.
         11    1    3    3    0    0  0.14659347268E+01 -0.66531225343E+00  0.51449932074E+01  0.53909702637E+01  0.51100000000E-03 0. -1.
        -11    1    3    3    0    0  0.36634528440E+01  0.14039030364E+02  0.41996188552E+01  0.15104703211E+02  0.51100000000E-03 0.  1.
         12    1    3    3    0    0 -0.19461553576E+01  0.25209840951E+02  0.10271691376E+02  0.27291596604E+02  0.00000000000E+00 0. -1.
</event>
<event>
 7    1  0.1246400E-009  0.4778727E+02  0.7816164E-02  0.1312668E+00
        -11   -1    0    0    0    0  0.00000000000E+00  0.00000000000E+00  0.45593999997E+02  0.45594000000E+02  0.51100000000E-03 0. -1.
         11   -1    0    0    0    0 -0.00000000000E+00 -0.00000000000E+00 -0.45593999997E+02  0.45594000000E+02  0.51100000000E-03 0.  1.
    9900012    2    1    2    0    0 -0.36020217207E+02  0.19377337332E+02  0.14515025858E+02  0.47787271603E+02  0.20000002546E+02 0.  0.
         12    1    1    2    0    0  0.36020217207E+02 -0.19377337332E+02 -0.14515025858E+02  0.43400728397E+02  0.00000000000E+00 0. -1.
         11    1    3    3    0    0 -0.49379383632E+01 -0.36697712067E+01  0.10419816898E+01  0.62398863844E+01  0.51100000000E-03 0. -1.
        -11    1    3    3    0    0 -0.12639868380E+02  0.11073956379E+02  0.25551899344E+01  0.16997875703E+02  0.51100000000E-03 0.  1.
        -12    1    3    3    0    0 -0.18442410465E+02  0.11973152159E+02  0.10917854234E+02  0.24549509515E+02  0.00000000000E+00 0.  1.
</event>
<event>
 7    1  0.1246400E-009  0.4778729E+02  0.7816164E-02  0.1312668E+00
        -11   -1    0    0    0    0  0.00000000000E+00  0.00000000000E+00  0.45593999997E+02  0.45594000000E+02  0.51100000000E-03 0.  1.
         11   -1    0    0    0    0 -0.00000000000E+00 -0.00000000000E+00 -0.45593999997E+02  0.45594000000E+02  0.51100000000E-03 0. -1.
    9900012    2    1    2    0    0 -0.18156104231E+02  0.79244045165E+01  0.38615818216E+02  0.47787288896E+02  0.20000081394E+02 0.  0.
         12    1    1    2    0    0  0.18156104231E+02 -0.79244045165E+01 -0.38615818216E+02  0.43400711104E+02  0.00000000000E+00 0. -1.
         11    1    3    3    0    0 -0.15440645704E+02  0.83561658320E+01  0.18180658752E+02  0.25274006412E+02  0.51100000000E-03 0.  1.
        -11    1    3    3    0    0 -0.49656045255E+01 -0.30458289025E+01  0.10665717612E+02  0.12152852935E+02  0.51100000000E-03 0. -1.
         12    1    3    3    0    0  0.22501459990E+01  0.26140675870E+01  0.97694418517E+01  0.10360429550E+02  0.00000000000E+00 0. -1.
</event>
<event>
 7    1  0.1246400E-009  0.4778726E+02  0.7816164E-02  0.1312668E+00
        -11   -1    0    0    0    0  0.00000000000E+00  0.00000000000E+00  0.45593999997E+02  0.45594000000E+02  0.51100000000E-03 0.  1.
         11   -1    0    0    0    0 -0.00000000000E+00 -0.00000000000E+00 -0.45593999997E+02  0.45594000000E+02  0.51100000000E-03 0. -1.
    9900012    2    1    2    0    0 -0.33028458869E+02 -0.67133560235E+01  0.27343656648E+02  0.47787264946E+02  0.19999972193E+02 0.  0.
         12    1    1    2    0    0  0.33028458869E+02  0.67133560235E+01 -0.27343656648E+02  0.43400735054E+02  0.00000000000E+00 0. -1.
         11    1    3    3    0    0 -0.10729162888E+02 -0.60717038072E+01  0.26632092720E+01  0.12612422737E+02  0.51100000000E-03 0. -1.
        -11    1    3    3    0    0 -0.18122655400E+02 -0.51654274212E+01  0.19632715300E+02  0.27213154714E+02  0.51100000000E-03 0.  1.
        -12    1    3    3    0    0 -0.41766405813E+01  0.45237752049E+01  0.50477320765E+01  0.79616874948E+01  0.00000000000E+00 0.  1.
</event>
<event>
 7    1  0.1246400E-009  0.4778727E+02  0.7816164E-02  0.1312668E+00
        -11   -1    0    0    0    0  0.00000000000E+00  0.00000000000E+00  0.45593999997E+02  0.45594000000E+02  0.51100000000E-03 0.  1.
         11   -1    0    0    0    0 -0.00000000000E+00 -0.00000000000E+00 -0.45593999997E+02  0.45594000000E+02  0.51100000000E-03 0. -1.
    9900012    2    1    2    0    0  0.28363079564E+02 -0.81891037155E+01  0.31813487368E+02  0.47787266360E+02  0.19999978640E+02 0.  0.
         12    1    1    2    0    0 -0.28363079564E+02  0.81891037155E+01 -0.31813487368E+02  0.43400733640E+02  0.00000000000E+00 0. -1.
         11    1    3    3    0    0  0.79225706661E+01 -0.17714622897E-01  0.18288050514E+01  0.81309266350E+01  0.51100000000E-03 0. -1.
        -11    1    3    3    0    0  0.11971557137E+02 -0.72814635018E+00  0.24142820506E+02  0.26957821864E+02  0.51100000000E-03 0.  1.
         12    1    3    3    0    0  0.84689517605E+01 -0.74432427424E+01  0.58418618110E+01  0.12698517861E+02  0.00000000000E+00 0. -1.
</event>
<event>
 7    1  0.1246400E-009  0.4778727E+02  0.7816164E-02  0.1312668E+00
        -11   -1    0    0    0    0  0.00000000000E+00  0.00000000000E+00  0.45593999997E+02  0.45594000000E+02  0.51100000000E-03 0.  1.
         11   -1    0    0    0    0 -0.00000000000E+00 -0.00000000000E+00 -0.45593999997E+02  0.45594000000E+02  0.51100000000E-03 0. -1.
    9900012    2    1    2    0    0  0.36936965298E+01  0.49610753633E+01  0.42957738806E+02  0.47787274360E+02  0.20000015116E+02 0.  0.
         12    1    1    2    0    0 -0.36936965298E+01 -0.49610753633E+01 -0.42957738806E+02  0.43400725640E+02  0.00000000000E+00 0. -1.
         11    1    3    3    0    0 -0.21073360472E+01  0.55070242500E+01  0.64648282334E+01  0.87499820374E+01  0.51100000000E-03 0. -1.
        -11    1    3    3    0    0  0.17783478472E+01  0.16820605710E+01  0.20193902638E+00  0.24561409694E+01  0.51100000000E-03 0.  1.
        -12    1    3    3    0    0  0.40226847298E+01 -0.22280094577E+01  0.36290971546E+02  0.36581151353E+02  0.00000000000E+00 0.  1.
</event>
<event>
 7    1  0.1246400E-009  0.4778727E+02  0.7816164E-02  0.1312668E+00
        -11   -1    0    0    0    0  0.00000000000E+00  0.00000000000E+00  0.45593999997E+02  0.45594000000E+02  0.51100000000E-03 0. -1.
         11   -1    0    0    0    0 -0.00000000000E+00 -0.00000000000E+00 -0.45593999997E+02  0.45594000000E+02  0.51100000000E-03 0.  1.
    9900012    2    1    2    0    0 -0.30309957918E+01  0.14081856160E+02 -0.40940661876E+02  0.47787269554E+02  0.19999993203E+02 0.  0.
         12    1    1    2    0    0  0.30309957918E+01 -0.14081856160E+02  0.40940661876E+02  0.43400730446E+02  0.00000000000E+00 0. -1.
         11    1    3    3    0    0 -0.80780839374E+00  0.24422257934E+01 -0.19597664743E+02  0.19765765476E+02  0.51100000000E-03 0.  1.
        -11    1    3    3    0    0  0.19156188872E+01  0.13389449285E+02 -0.17434495012E+02  0.22066004724E+02  0.51100000000E-03 0. -1.
        -12    1    3    3    0    0 -0.41388062853E+01 -0.17498189193E+01 -0.39085021222E+01  0.59554993541E+01  0.00000000000E+00 0.  1.
</event>
<event>
 7    1  0.1246400E-009  0.4778727E+02  0.7816164E-02  0.1312668E+00
        -11   -1    0    0    0    0  0.00000000000E+00  0.00000000000E+00  0.45593999997E+02  0.45594000000E+02  0.51100000000E-03 0.  1.
         11   -1    0    0    0    0 -0.00000000000E+00 -0.00000000000E+00 -0.45593999997E+02  0.45594000000E+02  0.51100000000E-03 0. -1.
    9900012    2    1    2    0    0  0.17121586247E+02  0.35283443964E+02  0.18589063895E+02  0.47787269245E+02  0.19999991796E+02 0.  0.
         12    1    1    2    0    0 -0.17121586247E+02 -0.35283443964E+02 -0.18589063895E+02  0.43400730755E+02  0.00000000000E+00 0. -1.
         11    1    3    3    0    0  0.45779149534E+01  0.69571698395E+01 -0.34253925665E+01  0.90051558560E+01  0.51100000000E-03 0. -1.
        -11    1    3    3    0    0 -0.17041242916E+00  0.55059334106E+01  0.19526484130E+01  0.58444143594E+01  0.51100000000E-03 0.  1.
        -12    1    3    3    0    0  0.12714083723E+02  0.22820340714E+02  0.20061808048E+02  0.32937699030E+02  0.00000000000E+00 0.  1.
</event>
<event>
 7    1  0.1246400E-009  0.4778727E+02  0.7816164E-02  0.1312668E+00
        -11   -1    0    0    0    0  0.00000000000E+00  0.00000000000E+00  0.45593999997E+02  0.45594000000E+02  0.51100000000E-03 0. -1.
         11   -1    0    0    0    0 -0.00000000000E+00 -0.00000000000E+00 -0.45593999997E+02  0.45594000000E+02  0.51100000000E-03 0.  1.
    9900012    2    1    2    0    0  0.40592492851E+02  0.71518355388E+01 -0.13591328526E+02  0.47787269147E+02  0.19999991350E+02 0.  0.
         12    1    1    2    0    0 -0.40592492851E+02 -0.71518355388E+01  0.13591328526E+02  0.43400730853E+02  0.00000000000E+00 0. -1.
         11    1    3    3    0    0  0.16667222789E+01  0.34873234184E+01  0.17056369057E+01  0.42247586079E+01  0.51100000000E-03 0. -1.
        -11    1    3    3    0    0  0.13670415102E+02  0.44648211108E+01 -0.73738606852E+00  0.14399951913E+02  0.51100000000E-03 0.  1.
        -12    1    3    3    0    0  0.25255355470E+02 -0.80030899042E+00 -0.14559579364E+02  0.29162558627E+02  0.00000000000E+00 0.  1.
</event>
<event>
 7    1  0.1246400E-009  0.4778725E+02  0.7816164E-02  0.1312668E+00
        -11   -1    0    0    0    0  0.00000000000E+00  0.00000000000E+00  0.45593999997E+02  0.45594000000E+02  0.51100000000E-03 0.  1.
         11   -1    0    0    0    0 -0.00000000000E+00 -0.00000000000E+00 -0.45593999997E+02  0.45594000000E+02  0.51100000000E-03 0. -1.
    9900012    2    1    2    0    0  0.22366811316E+02  0.13342460096E+02  0.34717857569E+02  0.47787249729E+02  0.19999902816E+02 0.  0.
         12    1    1    2    0    0 -0.22366811316E+02 -0.13342460096E+02 -0.34717857569E+02  0.43400750271E+02  0.00000000000E+00 0. -1.
         11    1    3    3    0    0  0.21403847324E+02  0.11536479733E+02  0.23885428859E+02  0.34084142309E+02  0.51100000000E-03 0.  1.
        -11    1    3    3    0    0  0.32861526903E+01 -0.30237695130E+00  0.98919886502E+01  0.10427927457E+02  0.51100000000E-03 0. -1.
        -12    1    3    3    0    0 -0.23231886979E+01  0.21083573144E+01  0.94044005978E+00  0.32751799641E+01  0.00000000000E+00 0.  1.
</event>
<event>
 7    1  0.1246400E-009  0.4778726E+02  0.7816164E-02  0.1312668E+00
        -11   -1    0    0    0    0  0.00000000000E+00  0.00000000000E+00  0.45593999997E+02  0.45594000000E+02  0.51100000000E-03 0.  1.
         11   -1    0    0    0    0 -0.00000000000E+00 -0.00000000000E+00 -0.45593999997E+02  0.45594000000E+02  0.51100000000E-03 0. -1.
    9900012    2    1    2    0    0  0.19263517730E+02  0.37963448462E+02 -0.84449683473E+01  0.47787262393E+02  0.19999960557E+02 0.  0.
         12    1    1    2    0    0 -0.19263517730E+02 -0.37963448462E+02  0.84449683473E+01  0.43400737607E+02  0.00000000000E+00 0. -1.
         11    1    3    3    0    0  0.76715910292E+01  0.92619373746E+01 -0.26222035961E+01  0.12309051337E+02  0.51100000000E-03 0. -1.
        -11    1    3    3    0    0  0.14792989286E+02  0.26149376146E+02 -0.76387999198E+01  0.30999575309E+02  0.51100000000E-03 0.  1.
         12    1    3    3    0    0 -0.32010625852E+01  0.25521349407E+01  0.18160351686E+01  0.44786357480E+01  0.00000000000E+00 0. -1.
</event>
<event>
 7    1  0.1246400E-009  0.4778727E+02  0.7816164E-02  0.1312668E+00
        -11   -1    0    0    0    0  0.00000000000E+00  0.00000000000E+00  0.45593999997E+02  0.45594000000E+02  0.51100000000E-03 0. -1.
         11   -1    0    0    0    0 -0.00000000000E+00 -0.00000000000E+00 -0.45593999997E+02  0.45594000000E+02  0.51100000000E-03 0.  1.
    9900012    2    1    2    0    0  0.43777442655E+01  0.30034166275E+02 -0.31022690704E+02  0.47787272734E+02  0.20000007706E+02 0.  0.
         12    1    1    2    0    0 -0.43777442655E+01 -0.30034166275E+02  0.31022690704E+02  0.43400727266E+02  0.00000000000E+00 0. -1.
         11    1    3    3    0    0 -0.31582337641E+01  0.64033388038E+01 -0.56662993724E+01  0.91150500374E+01  0.51100000000E-03 0. -1.
        -11    1    3    3    0    0  0.74547779140E+01  0.14768459838E+02 -0.63849585936E+01  0.17732704707E+02  0.51100000000E-03 0.  1.
        -12    1    3    3    0    0  0.81200115676E-01  0.88623676330E+01 -0.18971432738E+02  0.20939517990E+02  0.00000000000E+00 0.  1.
</event>
<event>
 7    1  0.1246400E-009  0.4778727E+02  0.7816164E-02  0.1312668E+00
        -11   -1    0    0    0    0  0.00000000000E+00  0.00000000000E+00  0.45593999997E+02  0.45594000000E+02  0.51100000000E-03 0.  1.
         11   -1    0    0    0    0 -0.00000000000E+00 -0.00000000000E+00 -0.45593999997E+02  0.45594000000E+02  0.51100000000E-03 0. -1.
    9900012    2    1    2    0    0 -0.16871014303E+02  0.34099154281E+02  0.20886354765E+02  0.47787271185E+02  0.20000000642E+02 0.  0.
         12    1    1    2    0    0  0.16871014303E+02 -0.34099154281E+02 -0.20886354765E+02  0.43400728815E+02  0.00000000000E+00 0. -1.
         11    1    3    3    0    0 -0.42527789381E+01  0.11429587683E+02  0.23395056978E+01  0.12417523524E+02  0.51100000000E-03 0. -1.
        -11    1    3    3    0    0 -0.94959076301E+01  0.20006120883E+02  0.21057477171E+02  0.30558705463E+02  0.51100000000E-03 0.  1.
        -12    1    3    3    0    0 -0.31223277347E+01  0.26634457152E+01 -0.25106281038E+01  0.48110421985E+01  0.00000000000E+00 0.  1.
</event>
<event>
 7    1  0.1246400E-009  0.4778727E+02  0.7816164E-02  0.1312668E+00
        -11   -1    0    0    0    0  0.00000000000E+00  0.00000000000E+00  0.45593999997E+02  0.45594000000E+02  0.51100000000E-03 0.  1.
         11   -1    0    0    0    0 -0.00000000000E+00 -0.00000000000E+00 -0.45593999997E+02  0.45594000000E+02  0.51100000000E-03 0. -1.
    9900012    2    1    2    0    0  0.57259515573E+01 -0.42563052087E+02  0.62628711995E+01  0.47787268672E+02  0.19999989182E+02 0.  0.
         12    1    1    2    0    0 -0.57259515573E+01  0.42563052087E+02 -0.62628711995E+01  0.43400731328E+02  0.00000000000E+00 0. -1.
         11    1    3    3    0    0 -0.41388804697E-01 -0.15530476832E+02 -0.32095029568E+01  0.15858698974E+02  0.51100000000E-03 0. -1.
        -11    1    3    3    0    0  0.27719507074E+01 -0.27339429101E+02  0.84851801200E+01  0.28759804871E+02  0.51100000000E-03 0.  1.
         12    1    3    3    0    0  0.29953896545E+01  0.30685384546E+00  0.98719403634E+00  0.31687648273E+01  0.00000000000E+00 0. -1.
</event>
<event>
 7    1  0.1246400E-009  0.4778728E+02  0.7816164E-02  0.1312668E+00
        -11   -1    0    0    0    0  0.00000000000E+00  0.00000000000E+00  0.45593999997E+02  0.45594000000E+02  0.51100000000E-03 0.  1.
         11   -1    0    0    0    0 -0.00000000000E+00 -0.00000000000E+00 -0.45593999997E+02  0.45594000000E+02  0.51100000000E-03 0. -1.
    9900012    2    1    2    0    0  0.18730962837E+02 -0.98837978582E+01  0.37882499100E+02  0.47787283797E+02  0.20000058142E+02 0.  0.
         12    1    1    2    0    0 -0.18730962837E+02  0.98837978582E+01 -0.37882499100E+02  0.43400716203E+02  0.00000000000E+00 0. -1.
         11    1    3    3    0    0  0.11427704319E+02 -0.54620148379E+01  0.71041069783E+01  0.14522202599E+02  0.51100000000E-03 0. -1.
        -11    1    3    3    0    0  0.37382190158E+01 -0.28844404660E+01  0.39465685243E+01  0.61538347061E+01  0.51100000000E-03 0.  1.
        -12    1    3    3    0    0  0.35650395023E+01 -0.15373425543E+01  0.26831823597E+02  0.27111246492E+02  0.00000000000E+00 0.  1.
</event>
<event>
 7    1  0.1246400E-009  0.4778727E+02  0.7816164E-02  0.1312668E+00
        -11   -1    0    0    0    0  0.00000000000E+00  0.00000000000E+00  0.45593999997E+02  0.45594000000E+02  0.51100000000E-03 0. -1.
         11   -1    0    0    0    0 -0.00000000000E+00 -0.00000000000E+00 -0.45593999997E+02  0.45594000000E+02  0.51100000000E-03 0.  1.
    9900012    2    1    2    0    0 -0.38774485890E+02 -0.16460183968E+02 -0.10451079074E+02  0.47787268830E+02  0.19999989904E+02 0.  0.
         12    1    1    2    0    0  0.38774485890E+02  0.16460183968E+02  0.10451079074E+02  0.43400731170E+02  0.00000000000E+00 0. -1.
         11    1    3    3    0    0 -0.48315529526E+01  0.12133858997E+01 -0.52613793633E+01  0.72455726027E+01  0.51100000000E-03 0. -1.
        -11    1    3    3    0    0 -0.76714030803E+01 -0.10442909363E+02 -0.14862999857E+01  0.13042770760E+02  0.51100000000E-03 0.  1.
        -12    1    3    3    0    0 -0.26271529857E+02 -0.72306605048E+01 -0.37033997246E+01  0.27498925468E+02  0.00000000000E+00 0.  1.
</event>
<event>
 7    1  0.1246400E-009  0.4778727E+02  0.7816164E-02  0.1312668E+00
        -11   -1    0    0    0    0  0.00000000000E+00  0.00000000000E+00  0.45593999997E+02  0.45594000000E+02  0.51100000000E-03 0.  1.
         11   -1    0    0    0    0 -0.00000000000E+00 -0.00000000000E+00 -0.45593999997E+02  0.45594000000E+02  0.51100000000E-03 0. -1.
    9900012    2    1    2    0    0 -0.24207320018E+02 -0.81374467224E+01  0.35091464966E+02  0.47787270801E+02  0.19999998888E+02 0.  0.
         12    1    1    2    0    0  0.24207320018E+02  0.81374467224E+01 -0.35091464966E+02  0.43400729199E+02  0.00000000000E+00 0. -1.
         11    1    3    3    0    0 -0.58052549963E+01 -0.75523387844E+01  0.61043203975E+01  0.11313776313E+02  0.51100000000E-03 0. -1.
        -11    1    3    3    0    0 -0.10285890425E+01 -0.42364876184E+01  0.64205916034E+01  0.77607873027E+01  0.51100000000E-03 0.  1.
         12    1    3    3    0    0 -0.17373475979E+02  0.36513796804E+01  0.22566552965E+02  0.28712707185E+02  0.00000000000E+00 0. -1.
</event>
<event>
 7    1  0.1246400E-009  0.4778727E+02  0.7816164E-02  0.1312668E+00
        -11   -1    0    0    0    0  0.00000000000E+00  0.00000000000E+00  0.45593999997E+02  0.45594000000E+02  0.51100000000E-03 0.  1.
         11   -1    0    0    0    0 -0.00000000000E+00 -0.00000000000E+00 -0.45593999997E+02  0.45594000000E+02  0.51100000000E-03 0. -1.
    9900012    2    1    2    0    0  0.44092600809E+01 -0.38737449533E+02 -0.19068083368E+02  0.47787269890E+02  0.19999994736E+02 0.  0.
         12    1    1    2    0    0 -0.44092600809E+01  0.38737449533E+02  0.19068083368E+02  0.43400730110E+02  0.00000000000E+00 0. -1.
         11    1    3    3    0    0  0.25592627153E+01  0.21653766731E+00 -0.23313993877E+01  0.34687371727E+01  0.51100000000E-03 0.  1.
        -11    1    3    3    0    0  0.35124976029E+01 -0.15113365229E+02 -0.12765067971E+02  0.20092247473E+02  0.51100000000E-03 0. -1.
        -12    1    3    3    0    0 -0.16625002373E+01 -0.23840621971E+02 -0.39716160093E+01  0.24226285244E+02  0.00000000000E+00 0.  1.
</event>
<event>
 7    1  0.1246400E-009  0.4778727E+02  0.7816164E-02  0.1312668E+00
        -11   -1    0    0    0    0  0.00000000000E+00  0.00000000000E+00  0.45593999997E+02  0.45594000000E+02  0.51100000000E-03 0.  1.
         11   -1    0    0    0    0 -0.00000000000E+00 -0.00000000000E+00 -0.45593999997E+02  0.45594000000E+02  0.51100000000E-03 0. -1.
    9900012    2    1    2    0    0  0.25757650845E+02  0.10787206668E+02  0.33223524372E+02  0.47787274471E+02  0.20000015625E+02 0.  0.
         12    1    1    2    0    0 -0.25757650845E+02 -0.10787206668E+02 -0.33223524372E+02  0.43400725529E+02  0.00000000000E+00 0. -1.
         11    1    3    3    0    0  0.96356886319E+01 -0.44524517332E+01  0.75440584388E+01  0.13022428339E+02  0.51100000000E-03 0. -1.
        -11    1    3    3    0    0  0.54639414917E+00  0.41590928301E+01  0.33286309973E+01  0.53550335491E+01  0.51100000000E-03 0.  1.
        -12    1    3    3    0    0  0.15575568064E+02  0.11080565571E+02  0.22350834936E+02  0.29409812584E+02  0.00000000000E+00 0.  1.
</event>
<event>
 7    1  0.1246400E-009  0.4778728E+02  0.7816164E-02  0.1312668E+00
        -11   -1    0    0    0    0  0.00000000000E+00  0.00000000000E+00  0.45593999997E+02  0.45594000000E+02  0.51100000000E-03 0. -1.
         11   -1    0    0    0    0 -0.00000000000E+00 -0.00000000000E+00 -0.45593999997E+02  0.45594000000E+02  0.51100000000E-03 0.  1.
    9900012    2    1    2    0    0  0.33305295491E+02  0.16755391721E+02 -0.22217938444E+02  0.47787278253E+02  0.20000032866E+02 0.  0.
         12    1    1    2    0    0 -0.33305295491E+02 -0.16755391721E+02  0.22217938444E+02  0.43400721747E+02  0.00000000000E+00 0. -1.
         11    1    3    3    0    0  0.14841530680E+02  0.46695671630E+01 -0.59528928255E+01  0.16658716147E+02  0.51100000000E-03 0. -1.
        -11    1    3    3    0    0  0.13503273002E+02  0.72898031966E+00 -0.51149436248E+01  0.14457954303E+02  0.51100000000E-03 0.  1.
        -12    1    3    3    0    0  0.49604918089E+01  0.11356844239E+02 -0.11150101994E+02  0.16670607803E+02  0.00000000000E+00 0.  1.
</event>
<event>
 7    1  0.1246400E-009  0.4778727E+02  0.7816164E-02  0.1312668E+00
        -11   -1    0    0    0    0  0.00000000000E+00  0.00000000000E+00  0.45593999997E+02  0.45594000000E+02  0.51100000000E-03 0. -1.
         11   -1    0    0    0    0 -0.00000000000E+00 -0.00000000000E+00 -0.45593999997E+02  0.45594000000E+02  0.51100000000E-03 0.  1.
    9900012    2    1    2    0    0  0.62653602085E+01 -0.41123084672E+02 -0.12379850622E+02  0.47787268060E+02  0.19999986394E+02 0.  0.
         12    1    1    2    0    0 -0.62653602085E+01  0.41123084672E+02  0.12379850622E+02  0.43400731940E+02  0.00000000000E+00 0. -1.
         11    1    3    3    0    0 -0.12209309630E+01 -0.31808373620E+00  0.18756743932E+01  0.22605318777E+01  0.51100000000E-03 0. -1.
        -11    1    3    3    0    0  0.88226066173E+01 -0.24700211294E+02 -0.43906512849E+01  0.26593545165E+02  0.51100000000E-03 0.  1.
        -12    1    3    3    0    0 -0.13363154458E+01 -0.16104789642E+02 -0.98648737306E+01  0.18933191018E+02  0.00000000000E+00 0.  1.
</event>
<event>
 7    1  0.1246400E-009  0.4778727E+02  0.7816164E-02  0.1312668E+00
        -11   -1    0    0    0    0  0.00000000000E+00  0.00000000000E+00  0.45593999997E+02  0.45594000000E+02  0.51100000000E-03 0.  1.
         11   -1    0    0    0    0 -0.00000000000E+00 -0.00000000000E+00 -0.45593999997E+02  0.45594000000E+02  0.51100000000E-03 0. -1.
    9900012    2    1    2    0    0  0.15289383082E+02 -0.10438887059E+02  0.39254140947E+02  0.47787272131E+02  0.20000004954E+02 0.  0.
         12    1    1    2    0    0 -0.15289383082E+02  0.10438887059E+02 -0.39254140947E+02  0.43400727869E+02  0.00000000000E+00 0. -1.
         11    1    3    3    0    0  0.63816930689E+01  0.78471755663E+00  0.27000050151E+01  0.69736515121E+01  0.51100000000E-03 0. -1.
        -11    1    3    3    0    0 -0.92803982196E+00  0.35714346460E+00  0.11281887749E+02  0.11325625846E+02  0.51100000000E-03 0.  1.
        -12    1    3    3    0    0  0.98357298351E+01 -0.11580748080E+02  0.25272248183E+02  0.29487994773E+02  0.00000000000E+00 0.  1.
</event>
<event>
 7    1  0.1246400E-009  0.4778727E+02  0.7816164E-02  0.1312668E+00
        -11   -1    0    0    0    0  0.00000000000E+00  0.00000000000E+00  0.45593999997E+02  0.45594000000E+02  0.51100000000E-03 0.  1.
         11   -1    0    0    0    0 -0.00000000000E+00 -0.00000000000E+00 -0.45593999997E+02  0.45594000000E+02  0.51100000000E-03 0. -1.
    9900012    2    1    2    0    0 -0.26084853958E+02  0.61855342218E+01  0.34131260208E+02  0.47787270018E+02  0.19999995318E+02 0.  0.
         12    1    1    2    0    0  0.26084853958E+02 -0.61855342218E+01 -0.34131260208E+02  0.43400729982E+02  0.00000000000E+00 0. -1.
         11    1    3    3    0    0  0.12665484247E+01  0.10092705178E+00  0.32447788292E+01  0.34846694382E+01  0.51100000000E-03 0. -1.
        -11    1    3    3    0    0 -0.77266544795E+01  0.78080429257E+01  0.58524015929E+01  0.12446578985E+02  0.51100000000E-03 0.  1.
        -12    1    3    3    0    0 -0.19624747903E+02 -0.17234357557E+01  0.25034079786E+02  0.31856021594E+02  0.00000000000E+00 0.  1.
</event>
<event>
 7    1  0.1246400E-009  0.4778729E+02  0.7816164E-02  0.1312668E+00
        -11   -1    0    0    0    0  0.00000000000E+00  0.00000000000E+00  0.45593999997E+02  0.45594000000E+02  0.51100000000E-03 0. -1.
         11   -1    0    0    0    0 -0.00000000000E+00 -0.00000000000E+00 -0.45593999997E+02  0.45594000000E+02  0.51100000000E-03 0.  1.
    9900012    2    1    2    0    0  0.40494619290E+02  0.11270627136E+02 -0.10806492269E+02  0.47787291450E+02  0.20000093036E+02 0.  0.
         12    1    1    2    0    0 -0.40494619290E+02 -0.11270627136E+02  0.10806492269E+02  0.43400708550E+02  0.00000000000E+00 0. -1.
         11    1    3    3    0    0  0.24702288505E+02  0.28109877367E+01  0.21934145480E+01  0.24958280732E+02  0.51100000000E-03 0. -1.
        -11    1    3    3    0    0  0.13413244291E+02  0.51068105082E+01 -0.82797920489E+01  0.16569538093E+02  0.51100000000E-03 0.  1.
        -12    1    3    3    0    0  0.23790864938E+01  0.33528288916E+01 -0.47201147680E+01  0.62594726251E+01  0.00000000000E+00 0.  1.
</event>
<event>
 7    1  0.1246400E-009  0.4778728E+02  0.7816164E-02  0.1312668E+00
        -11   -1    0    0    0    0  0.00000000000E+00  0.00000000000E+00  0.45593999997E+02  0.45594000000E+02  0.51100000000E-03 0. -1.
         11   -1    0    0    0    0 -0.00000000000E+00 -0.00000000000E+00 -0.45593999997E+02  0.45594000000E+02  0.51100000000E-03 0.  1.
    9900012    2    1    2    0    0  0.17503626243E+02 -0.32295230323E+02 -0.23114153410E+02  0.47787275108E+02  0.20000018528E+02 0.  0.
         12    1    1    2    0    0 -0.17503626243E+02  0.32295230323E+02  0.23114153410E+02  0.43400724892E+02  0.00000000000E+00 0. -1.
         11    1    3    3    0    0  0.75100057851E+01 -0.75102159604E+01 -0.44155477946E+01  0.11502199496E+02  0.51100000000E-03 0. -1.
        -11    1    3    3    0    0  0.86569918090E+00 -0.64550127850E+01 -0.13756213599E+02  0.15220053809E+02  0.51100000000E-03 0.  1.
        -12    1    3    3    0    0  0.91279212769E+01 -0.18330001578E+02 -0.49423920161E+01  0.21065021802E+02  0.00000000000E+00 0.  1.
</event>
<event>
 7    1  0.1330295E-009  0.4778727E+02  0.7816164E-02  0.1312668E+00
        -11   -1    0    0    0    0  0.00000000000E+00  0.00000000000E+00  0.45593999997E+02  0.45594000000E+02  0.51100000000E-03 0. -1.
         11   -1    0    0    0    0 -0.00000000000E+00 -0.00000000000E+00 -0.45593999997E+02  0.45594000000E+02  0.51100000000E-03 0.  1.
    9900012    2    1    2    0    0 -0.43180638106E+02 -0.43574632424E+01 -0.26208045801E+00  0.47787266374E+02  0.19999978704E+02 0.  0.
         12    1    1    2    0    0  0.43180638106E+02  0.43574632424E+01  0.26208045801E+00  0.43400733626E+02  0.00000000000E+00 0. -1.
         11    1    3    3    0    0 -0.41149340706E+01 -0.21662088916E+01  0.50505826854E+01  0.68653863031E+01  0.51100000000E-03 0. -1.
        -11    1    3    3    0    0 -0.12795363262E+02 -0.41931017971E+01 -0.55767050097E+01  0.14574054436E+02  0.51100000000E-03 0.  1.
        -12    1    3    3    0    0 -0.26270340774E+02  0.20018474463E+01  0.26404186629E+00  0.26347825635E+02  0.00000000000E+00 0.  1.
</event>
<event>
 7    1  0.1246400E-009  0.4778727E+02  0.7816164E-02  0.1312668E+00
        -11   -1    0    0    0    0  0.00000000000E+00  0.00000000000E+00  0.45593999997E+02  0.45594000000E+02  0.51100000000E-03 0.  1.
         11   -1    0    0    0    0 -0.00000000000E+00 -0.00000000000E+00 -0.45593999997E+02  0.45594000000E+02  0.51100000000E-03 0. -1.
    9900012    2    1    2    0    0  0.41667237142E+02  0.25349780573E+01  0.11875952010E+02  0.47787274189E+02  0.20000014337E+02 0.  0.
         12    1    1    2    0    0 -0.41667237142E+02 -0.25349780573E+01 -0.11875952010E+02  0.43400725811E+02  0.00000000000E+00 0. -1.
         11    1    3    3    0    0 -0.85856746531E+00  0.14160524059E+01  0.15611461721E+01  0.22758559138E+01  0.51100000000E-03 0. -1.
        -11    1    3    3    0    0  0.24759300620E+01  0.30590638009E+01 -0.53725121348E+00  0.39719944785E+01  0.51100000000E-03 0.  1.
        -12    1    3    3    0    0  0.40049874545E+02 -0.19401381495E+01  0.10852057051E+02  0.41539423797E+02  0.00000000000E+00 0.  1.
</event>
<event>
 7    1  0.1246400E-009  0.4778729E+02  0.7816164E-02  0.1312668E+00
        -11   -1    0    0    0    0  0.00000000000E+00  0.00000000000E+00  0.45593999997E+02  0.45594000000E+02  0.51100000000E-03 0.  1.
         11   -1    0    0    0    0 -0.00000000000E+00 -0.00000000000E+00 -0.45593999997E+02  0.45594000000E+02  0.51100000000E-03 0. -1.
    9900012    2    1    2    0    0 -0.82631571092E+01  0.23314114542E+02  0.35662215460E+02  0.47787293626E+02  0.20000102957E+02 0.  0.
         12    1    1    2    0    0  0.82631571092E+01 -0.23314114542E+02 -0.35662215460E+02  0.43400706374E+02  0.00000000000E+00 0. -1.
         11    1    3    3    0    0 -0.87517612321E+00  0.59126833768E-01 -0.14944044103E+01  0.17328225622E+01  0.51100000000E-03 0. -1.
        -11    1    3    3    0    0 -0.67322700234E+01  0.11333418677E+02  0.28199691584E+02  0.31128643470E+02  0.51100000000E-03 0.  1.
         12    1    3    3    0    0 -0.65571096260E+00  0.11921569031E+02  0.89569282858E+01  0.14925827594E+02  0.00000000000E+00 0. -1.
</event>
<event>
 7    1  0.1246400E-009  0.4778727E+02  0.7816164E-02  0.1312668E+00
        -11   -1    0    0    0    0  0.00000000000E+00  0.00000000000E+00  0.45593999997E+02  0.45594000000E+02  0.51100000000E-03 0.  1.
         11   -1    0    0    0    0 -0.00000000000E+00 -0.00000000000E+00 -0.45593999997E+02  0.45594000000E+02  0.51100000000E-03 0. -1.
    9900012    2    1    2    0    0  0.70119568403E+01 -0.27838336528E+02  0.32549695149E+02  0.47787272198E+02  0.20000005261E+02 0.  0.
         12    1    1    2    0    0 -0.70119568403E+01  0.27838336528E+02 -0.32549695149E+02  0.43400727802E+02  0.00000000000E+00 0. -1.
         11    1    3    3    0    0  0.49354234946E+01 -0.37911775310E+01  0.93243654538E+01  0.11210496132E+02  0.51100000000E-03 0. -1.
        -11    1    3    3    0    0 -0.54409743646E+01 -0.44095766791E+01  0.78993906776E+01  0.10556938091E+02  0.51100000000E-03 0.  1.
         12    1    3    3    0    0  0.75175077103E+01 -0.19637582318E+02  0.15325939018E+02  0.26019837975E+02  0.00000000000E+00 0. -1.
</event>
<event>
 7    1  0.1246400E-009  0.4778730E+02  0.7816164E-02  0.1312668E+00
        -11   -1    0    0    0    0  0.00000000000E+00  0.00000000000E+00  0.45593999997E+02  0.45594000000E+02  0.51100000000E-03 0.  1.
         11   -1    0    0    0    0 -0.00000000000E+00 -0.00000000000E+00 -0.45593999997E+02  0.45594000000E+02  0.51100000000E-03 0. -1.
    9900012    2    1    2    0    0  0.13030838674E+02 -0.21069316192E+02  0.35635679501E+02  0.47787303061E+02  0.20000145975E+02 0.  0.
         12    1    1    2    0    0 -0.13030838674E+02  0.21069316192E+02 -0.35635679501E+02  0.43400696939E+02  0.00000000000E+00 0. -1.
         11    1    3    3    0    0  0.36489620374E+01 -0.42277978574E+01  0.28796019174E+01  0.62834151651E+01  0.51100000000E-03 0. -1.
        -11    1    3    3    0    0  0.74264615923E+01 -0.16297555376E+02  0.14251039486E+02  0.22887873858E+02  0.51100000000E-03 0.  1.
         12    1    3    3    0    0  0.19554150439E+01 -0.54396295856E+00  0.18505038097E+02  0.18616014038E+02  0.00000000000E+00 0. -1.
</event>
<event>
 7    1  0.1246400E-009  0.4778730E+02  0.7816164E-02  0.1312668E+00
        -11   -1    0    0    0    0  0.00000000000E+00  0.00000000000E+00  0.45593999997E+02  0.45594000000E+02  0.51100000000E-03 0. -1.
         11   -1    0    0    0    0 -0.00000000000E+00 -0.00000000000E+00 -0.45593999997E+02  0.45594000000E+02  0.51100000000E-03 0.  1.
    9900012    2    1    2    0    0 -0.41065621579E+02 -0.86111970385E+01  0.11094286326E+02  0.47787295176E+02  0.20000110025E+02 0.  0.
         12    1    1    2    0    0  0.41065621579E+02  0.86111970385E+01 -0.11094286326E+02  0.43400704824E+02  0.00000000000E+00 0. -1.
         11    1    3    3    0    0 -0.82018518309E+01 -0.90770840213E+00 -0.26346997727E+01  0.86623294299E+01  0.51100000000E-03 0. -1.
        -11    1    3    3    0    0 -0.17138568238E+02 -0.37464942578E+01 -0.50194762520E+00  0.17550461308E+02  0.51100000000E-03 0.  1.
         12    1    3    3    0    0 -0.15725201511E+02 -0.39569943785E+01  0.14230933724E+02  0.21574504438E+02  0.00000000000E+00 0. -1.
</event>
<event>
 7    1  0.1246400E-009  0.4778727E+02  0.7816164E-02  0.1312668E+00
        -11   -1    0    0    0    0  0.00000000000E+00  0.00000000000E+00  0.45593999997E+02  0.45594000000E+02  0.51100000000E-03 0.  1.
         11   -1    0    0    0    0 -0.00000000000E+00 -0.00000000000E+00 -0.45593999997E+02  0.45594000000E+02  0.51100000000E-03 0. -1.
    9900012    2    1    2    0    0  0.17772008863E+02 -0.22297030132E+02  0.32720347835E+02  0.47787274037E+02  0.20000013643E+02 0.  0.
         12    1    1    2    0    0 -0.17772008863E+02  0.22297030132E+02 -0.32720347835E+02  0.43400725963E+02  0.00000000000E+00 0. -1.
         11    1    3    3    0    0 -0.18361757057E+01 -0.10764999499E+02  0.85480452804E+01  0.13868158991E+02  0.51100000000E-03 0. -1.
        -11    1    3    3    0    0  0.10360572011E+02 -0.95928631901E+01  0.12146005640E+02  0.18624981338E+02  0.51100000000E-03 0.  1.
         12    1    3    3    0    0  0.92476125576E+01 -0.19391674428E+01  0.12026296914E+02  0.15294133707E+02  0.00000000000E+00 0. -1.
</event>
<event>
 7    1  0.1246400E-009  0.4778727E+02  0.7816164E-02  0.1312668E+00
        -11   -1    0    0    0    0  0.00000000000E+00  0.00000000000E+00  0.45593999997E+02  0.45594000000E+02  0.51100000000E-03 0.  1.
         11   -1    0    0    0    0 -0.00000000000E+00 -0.00000000000E+00 -0.45593999997E+02  0.45594000000E+02  0.51100000000E-03 0. -1.
    9900012    2    1    2    0    0  0.63019447310E+00 -0.32355560796E+02  0.28919611526E+02  0.47787269703E+02  0.19999993885E+02 0.  0.
         12    1    1    2    0    0 -0.63019447310E+00  0.32355560796E+02 -0.28919611526E+02  0.43400730297E+02  0.00000000000E+00 0. -1.
         11    1    3    3    0    0  0.19350217128E+01 -0.41786314975E+01  0.94274457794E+01  0.10491997160E+02  0.51100000000E-03 0. -1.
        -11    1    3    3    0    0 -0.75752563480E+01 -0.20612576100E+02  0.13026480696E+02  0.25533350775E+02  0.51100000000E-03 0.  1.
        -12    1    3    3    0    0  0.62704291084E+01 -0.75643531980E+01  0.64656850501E+01  0.11761921768E+02  0.00000000000E+00 0.  1.
</event>
<event>
 7    1  0.1246400E-009  0.4778727E+02  0.7816164E-02  0.1312668E+00
        -11   -1    0    0    0    0  0.00000000000E+00  0.00000000000E+00  0.45593999997E+02  0.45594000000E+02  0.51100000000E-03 0.  1.
         11   -1    0    0    0    0 -0.00000000000E+00 -0.00000000000E+00 -0.45593999997E+02  0.45594000000E+02  0.51100000000E-03 0. -1.
    9900012    2    1    2    0    0 -0.40343649441E+02 -0.15738612855E+02  0.28825361266E+01  0.47787274207E+02  0.20000014421E+02 0.  0.
         12    1    1    2    0    0  0.40343649441E+02  0.15738612855E+02 -0.28825361266E+01  0.43400725793E+02  0.00000000000E+00 0. -1.
         11    1    3    3    0    0 -0.12366991436E+01 -0.16563426937E+01 -0.33626673059E+01  0.39472050316E+01  0.51100000000E-03 0. -1.
        -11    1    3    3    0    0 -0.22954269530E+02 -0.14643922600E+02  0.41640588429E+01  0.27544188953E+02  0.51100000000E-03 0.  1.
         12    1    3    3    0    0 -0.16152680767E+02  0.56165243874E+00  0.20811445896E+01  0.16295880223E+02  0.00000000000E+00 0. -1.
</event>
<event>
 7    1  0.1246400E-009  0.4778727E+02  0.7816164E-02  0.1312668E+00
        -11   -1    0    0    0    0  0.00000000000E+00  0.00000000000E+00  0.45593999997E+02  0.45594000000E+02  0.51100000000E-03 0. -1.
         11   -1    0    0    0    0 -0.00000000000E+00 -0.00000000000E+00 -0.45593999997E+02  0.45594000000E+02  0.51100000000E-03 0.  1.
    9900012    2    1    2    0    0  0.23453246526E+02 -0.66735486777E+01 -0.35903094006E+02  0.47787272083E+02  0.20000004734E+02 0.  0.
         12    1    1    2    0    0 -0.23453246526E+02  0.66735486777E+01  0.35903094006E+02  0.43400727917E+02  0.00000000000E+00 0. -1.
         11    1    3    3    0    0  0.17207800003E+02 -0.70234770717E+01 -0.19726038883E+02  0.27102660780E+02  0.51100000000E-03 0. -1.
        -11    1    3    3    0    0  0.51504900035E+01  0.39466968975E+01 -0.15580706594E+02  0.16877866628E+02  0.51100000000E-03 0.  1.
        -12    1    3    3    0    0  0.10949565198E+01 -0.35967685035E+01 -0.59634852890E+00  0.38067446743E+01  0.00000000000E+00 0.  1.
</event>
<event>
 7    1  0.1246400E-009  0.4778726E+02  0.7816164E-02  0.1312668E+00
        -11   -1    0    0    0    0  0.00000000000E+00  0.00000000000E+00  0.45593999997E+02  0.45594000000E+02  0.51100000000E-03 0. -1.
         11   -1    0    0    0    0 -0.00000000000E+00 -0.00000000000E+00 -0.45593999997E+02  0.45594000000E+02  0.51100000000E-03 0.  1.
    9900012    2    1    2    0    0  0.18481671986E+02  0.24603014360E+02 -0.30606270788E+02  0.47787258918E+02  0.19999944709E+02 0.  0.
         12    1    1    2    0    0 -0.18481671986E+02 -0.24603014360E+02  0.30606270788E+02  0.43400741082E+02  0.00000000000E+00 0. -1.
         11    1    3    3    0    0 -0.19242505791E+01  0.61629468973E+00  0.28031801728E+00  0.20398867340E+01  0.51100000000E-03 0. -1.
        -11    1    3    3    0    0  0.56963530699E+01  0.37684804931E+01 -0.12003842954E+01  0.69347535098E+01  0.51100000000E-03 0.  1.
        -12    1    3    3    0    0  0.14709569495E+02  0.20218239177E+02 -0.29686204510E+02  0.38812618674E+02  0.00000000000E+00 0.  1.
</event>
<event>
 7    1  0.1246400E-009  0.4778727E+02  0.7816164E-02  0.1312668E+00
        -11   -1    0    0    0    0  0.00000000000E+00  0.00000000000E+00  0.45593999997E+02  0.45594000000E+02  0.51100000000E-03 0.  1.
         11   -1    0    0    0    0 -0.00000000000E+00 -0.00000000000E+00 -0.45593999997E+02  0.45594000000E+02  0.51100000000E-03 0. -1.
    9900012    2    1    2    0    0  0.15879141662E+02  0.18374892421E+02  0.35969986411E+02  0.47787265746E+02  0.19999975841E+02 0.  0.
         12    1    1    2    0    0 -0.15879141662E+02 -0.18374892421E+02 -0.35969986411E+02  0.43400734254E+02  0.00000000000E+00 0. -1.
         11    1    3    3    0    0 -0.57041731643E+00  0.72943034548E-01  0.77068974640E+00  0.96159219396E+00  0.51100000000E-03 0. -1.
        -11    1    3    3    0    0  0.12753392914E+02  0.20553639447E+02  0.34932062512E+02  0.42489411822E+02  0.51100000000E-03 0.  1.
        -12    1    3    3    0    0  0.36961660642E+01 -0.22516900599E+01  0.26723415203E+00  0.43362617301E+01  0.00000000000E+00 0.  1.
</event>
<event>
 7    1  0.1246400E-009  0.4778727E+02  0.7816164E-02  0.1312668E+00
        -11   -1    0    0    0    0  0.00000000000E+00  0.00000000000E+00  0.45593999997E+02  0.45594000000E+02  0.51100000000E-03 0. -1.
         11   -1    0    0    0    0 -0.00000000000E+00 -0.00000000000E+00 -0.45593999997E+02  0.45594000000E+02  0.51100000000E-03 0.  1.
    9900012    2    1    2    0    0  0.17536431384E+02  0.60839135075E+01 -0.39231146486E+02  0.47787270929E+02  0.19999999474E+02 0.  0.
         12    1    1    2    0    0 -0.17536431384E+02 -0.60839135075E+01  0.39231146486E+02  0.43400729071E+02  0.00000000000E+00 0. -1.
         11    1    3    3    0    0 -0.59584948393E+00 -0.40861330217E+01 -0.26847562617E+01  0.49253869010E+01  0.51100000000E-03 0. -1.
        -11    1    3    3    0    0  0.38457521754E+01  0.22507225720E+01 -0.25233625654E+01  0.51208320406E+01  0.51100000000E-03 0.  1.
        -12    1    3    3    0    0  0.14286528693E+02  0.79193239572E+01 -0.34023027659E+02  0.37741051987E+02  0.00000000000E+00 0.  1.
</event>
<event>
 7    1  0.1246400E-009  0.4778727E+02  0.7816164E-02  0.1312668E+00
        -11   -1    0    0    0    0  0.00000000000E+00  0.00000000000E+00  0.45593999997E+02  0.45594000000E+02  0.51100000000E-03 0.  1.
         11   -1    0    0    0    0 -0.00000000000E+00 -0.00000000000E+00 -0.45593999997E+02  0.45594000000E+02  0.51100000000E-03 0. -1.
    9900012    2    1    2    0    0  0.39525295657E+02 -0.12933621910E+02  0.12413532976E+02  0.47787269897E+02  0.19999994769E+02 0.  0.
         12    1    1    2    0    0 -0.39525295657E+02  0.12933621910E+02 -0.12413532976E+02  0.43400730103E+02  0.00000000000E+00 0. -1.
         11    1    3    3    0    0  0.19739242828E+02 -0.95049790443E-01  0.70218298373E+01  0.20951201312E+02  0.51100000000E-03 0.  1.
        -11    1    3    3    0    0  0.30973907319E+01  0.13108393833E+01  0.35325623205E+01  0.48776147905E+01  0.51100000000E-03 0. -1.
        -12    1    3    3    0    0  0.16688662097E+02 -0.14149411503E+02  0.18591408185E+01  0.21958453795E+02  0.00000000000E+00 0.  1.
</event>
<event>
 7    1  0.1246400E-009  0.4778726E+02  0.7816164E-02  0.1312668E+00
        -11   -1    0    0    0    0  0.00000000000E+00  0.00000000000E+00  0.45593999997E+02  0.45594000000E+02  0.51100000000E-03 0.  1.
         11   -1    0    0    0    0 -0.00000000000E+00 -0.00000000000E+00 -0.45593999997E+02  0.45594000000E+02  0.51100000000E-03 0. -1.
    9900012    2    1    2    0    0 -0.93304276792E+01  0.42382106026E+02  0.56935223439E+00  0.47787263210E+02  0.19999964281E+02 0.  0.
         12    1    1    2    0    0  0.93304276792E+01 -0.42382106026E+02 -0.56935223439E+00  0.43400736790E+02  0.00000000000E+00 0. -1.
         11    1    3    3    0    0  0.25759547436E+01  0.20854301477E+02 -0.22536416009E+01  0.21133299167E+02  0.51100000000E-03 0. -1.
        -11    1    3    3    0    0 -0.71831516649E+01  0.20143855345E+02  0.35494858280E+01  0.21678824367E+02  0.51100000000E-03 0.  1.
         12    1    3    3    0    0 -0.47232307580E+01  0.13839492041E+01 -0.72649199271E+00  0.49751396772E+01  0.00000000000E+00 0. -1.
</event>
<event>
 7    1  0.1246400E-009  0.4778729E+02  0.7816164E-02  0.1312668E+00
        -11   -1    0    0    0    0  0.00000000000E+00  0.00000000000E+00  0.45593999997E+02  0.45594000000E+02  0.51100000000E-03 0.  1.
         11   -1    0    0    0    0 -0.00000000000E+00 -0.00000000000E+00 -0.45593999997E+02  0.45594000000E+02  0.51100000000E-03 0. -1.
    9900012    2    1    2    0    0  0.24628638617E+02  0.18057469992E+02  0.30837954546E+02  0.47787291443E+02  0.20000093006E+02 0.  0.
         12    1    1    2    0    0 -0.24628638617E+02 -0.18057469992E+02 -0.30837954546E+02  0.43400708557E+02  0.00000000000E+00 0. -1.
         11    1    3    3    0    0 -0.83081710891E+00  0.83269157727E+01  0.79627470225E+01  0.11551325628E+02  0.51100000000E-03 0. -1.
        -11    1    3    3    0    0  0.10815443442E+02  0.72084157895E+01  0.13071809344E+02  0.18433862179E+02  0.51100000000E-03 0.  1.
         12    1    3    3    0    0  0.14644012283E+02  0.25221384298E+01  0.98033981803E+01  0.17802103637E+02  0.00000000000E+00 0. -1.
</event>
<event>
 7    1  0.1246400E-009  0.4778727E+02  0.7816164E-02  0.1312668E+00
        -11   -1    0    0    0    0  0.00000000000E+00  0.00000000000E+00  0.45593999997E+02  0.45594000000E+02  0.51100000000E-03 0.  1.
         11   -1    0    0    0    0 -0.00000000000E+00 -0.00000000000E+00 -0.45593999997E+02  0.45594000000E+02  0.51100000000E-03 0. -1.
    9900012    2    1    2    0    0  0.32195521386E+02  0.37701826927E+01  0.28859272979E+02  0.47787268304E+02  0.19999987506E+02 0.  0.
         12    1    1    2    0    0 -0.32195521386E+02 -0.37701826927E+01 -0.28859272979E+02  0.43400731696E+02  0.00000000000E+00 0. -1.
         11    1    3    3    0    0  0.81266297980E+01  0.58975911041E+01  0.83392437025E+01  0.13052458715E+02  0.51100000000E-03 0. -1.
        -11    1    3    3    0    0  0.21057847239E+02  0.24587463248E+01  0.11347374173E+02  0.24046647681E+02  0.51100000000E-03 0.  1.
        -12    1    3    3    0    0  0.30110443496E+01 -0.45861547363E+01  0.91726551029E+01  0.10688161908E+02  0.00000000000E+00 0.  1.
</event>
<event>
 7    1  0.1246400E-009  0.4778727E+02  0.7816164E-02  0.1312668E+00
        -11   -1    0    0    0    0  0.00000000000E+00  0.00000000000E+00  0.45593999997E+02  0.45594000000E+02  0.51100000000E-03 0.  1.
         11   -1    0    0    0    0 -0.00000000000E+00 -0.00000000000E+00 -0.45593999997E+02  0.45594000000E+02  0.51100000000E-03 0. -1.
    9900012    2    1    2    0    0  0.19820340853E+02  0.15596749664E+01  0.38579072755E+02  0.47787270143E+02  0.19999995888E+02 0.  0.
         12    1    1    2    0    0 -0.19820340853E+02 -0.15596749664E+01 -0.38579072755E+02  0.43400729857E+02  0.00000000000E+00 0. -1.
         11    1    3    3    0    0  0.10580569385E+02  0.11640297289E+01  0.69860546912E+01  0.12732178687E+02  0.51100000000E-03 0.  1.
        -11    1    3    3    0    0  0.72296640962E+01 -0.53220061160E+01  0.21227742278E+02  0.23047968122E+02  0.51100000000E-03 0. -1.
         12    1    3    3    0    0  0.20101073719E+01  0.57176513535E+01  0.10365275785E+02  0.12007123334E+02  0.00000000000E+00 0. -1.
</event>
<event>
 7    1  0.1246400E-009  0.4778727E+02  0.7816164E-02  0.1312668E+00
        -11   -1    0    0    0    0  0.00000000000E+00  0.00000000000E+00  0.45593999997E+02  0.45594000000E+02  0.51100000000E-03 0. -1.
         11   -1    0    0    0    0 -0.00000000000E+00 -0.00000000000E+00 -0.45593999997E+02  0.45594000000E+02  0.51100000000E-03 0.  1.
    9900012    2    1    2    0    0 -0.43332997689E+02  0.23183919764E+01 -0.70681015064E+00  0.47787271773E+02  0.20000003320E+02 0.  0.
         12    1    1    2    0    0  0.43332997689E+02 -0.23183919764E+01  0.70681015064E+00  0.43400728227E+02  0.00000000000E+00 0. -1.
         11    1    3    3    0    0 -0.86789219836E+01  0.26161236845E+01  0.14616888957E+01  0.91817386490E+01  0.51100000000E-03 0. -1.
        -11    1    3    3    0    0 -0.26138408499E+02  0.50118697730E+01  0.38685262710E+01  0.26894250933E+02  0.51100000000E-03 0.  1.
         12    1    3    3    0    0 -0.85156672067E+01 -0.53096014812E+01 -0.60370253173E+01  0.11711282191E+02  0.00000000000E+00 0. -1.
</event>
<event>
 7    1  0.1246400E-009  0.4778727E+02  0.7816164E-02  0.1312668E+00
        -11   -1    0    0    0    0  0.00000000000E+00  0.00000000000E+00  0.45593999997E+02  0.45594000000E+02  0.51100000000E-03 0.  1.
         11   -1    0    0    0    0 -0.00000000000E+00 -0.00000000000E+00 -0.45593999997E+02  0.45594000000E+02  0.51100000000E-03 0. -1.
    9900012    2    1    2    0    0  0.13123835983E+02  0.72006171438E+01  0.40737442275E+02  0.47787272342E+02  0.20000005915E+02 0.  0.
         12    1    1    2    0    0 -0.13123835983E+02 -0.72006171438E+01 -0.40737442275E+02  0.43400727658E+02  0.00000000000E+00 0. -1.
         11    1    3    3    0    0  0.20687066318E+01  0.26949039715E+01  0.82237493293E+00  0.34954764104E+01  0.51100000000E-03 0. -1.
        -11    1    3    3    0    0  0.92326393530E+01  0.18205388924E+01  0.39953033968E+02  0.41046326447E+02  0.51100000000E-03 0.  1.
        -12    1    3    3    0    0  0.18224899987E+01  0.26851742799E+01 -0.37966626274E-01  0.32454694843E+01  0.00000000000E+00 0.  1.
</event>
<event>
 7    1  0.1246400E-009  0.4778727E+02  0.7816164E-02  0.1312668E+00
        -11   -1    0    0    0    0  0.00000000000E+00  0.00000000000E+00  0.45593999997E+02  0.45594000000E+02  0.51100000000E-03 0. -1.
         11   -1    0    0    0    0 -0.00000000000E+00 -0.00000000000E+00 -0.45593999997E+02  0.45594000000E+02  0.51100000000E-03 0.  1.
    9900012    2    1    2    0    0 -0.34939136116E+02 -0.44840384830E+01 -0.25352978714E+02  0.47787270014E+02  0.19999995301E+02 0.  0.
         12    1    1    2    0    0  0.34939136116E+02  0.44840384830E+01  0.25352978714E+02  0.43400729986E+02  0.00000000000E+00 0. -1.
         11    1    3    3    0    0 -0.29283410753E+00  0.22989217837E+01  0.14814436885E+01  0.27505397371E+01  0.51100000000E-03 0. -1.
        -11    1    3    3    0    0 -0.15593327002E+02  0.63795869229E+00 -0.98428511835E+01  0.18451031353E+02  0.51100000000E-03 0.  1.
         12    1    3    3    0    0 -0.19052975006E+02 -0.74209189590E+01 -0.16991571219E+02  0.26585698924E+02  0.00000000000E+00 0. -1.
</event>
<event>
 7    1  0.1246400E-009  0.4778727E+02  0.7816164E-02  0.1312668E+00
        -11   -1    0    0    0    0  0.00000000000E+00  0.00000000000E+00  0.45593999997E+02  0.45594000000E+02  0.51100000000E-03 0.  1.
         11   -1    0    0    0    0 -0.00000000000E+00 -0.00000000000E+00 -0.45593999997E+02  0.45594000000E+02  0.51100000000E-03 0. -1.
    9900012    2    1    2    0    0  0.12058832449E+01 -0.32858622116E+01  0.43259359988E+02  0.47787271072E+02  0.20000000127E+02 0.  0.
         12    1    1    2    0    0 -0.12058832449E+01  0.32858622116E+01 -0.43259359988E+02  0.43400728928E+02  0.00000000000E+00 0. -1.
         11    1    3    3    0    0 -0.59575886874E+01  0.25102163482E+01  0.65718043281E+01  0.92186040955E+01  0.51100000000E-03 0. -1.
        -11    1    3    3    0    0  0.12598790386E+00 -0.18621611870E+01  0.19444095243E+02  0.19533467622E+02  0.51100000000E-03 0.  1.
         12    1    3    3    0    0  0.70374840284E+01 -0.39339173728E+01  0.17243460417E+02  0.19035199355E+02  0.00000000000E+00 0. -1.
</event>
<event>
 7    1  0.1246400E-009  0.4778727E+02  0.7816164E-02  0.1312668E+00
        -11   -1    0    0    0    0  0.00000000000E+00  0.00000000000E+00  0.45593999997E+02  0.45594000000E+02  0.51100000000E-03 0.  1.
         11   -1    0    0    0    0 -0.00000000000E+00 -0.00000000000E+00 -0.45593999997E+02  0.45594000000E+02  0.51100000000E-03 0. -1.
    9900012    2    1    2    0    0  0.29224879981E+02 -0.21057700993E+02  0.24209560567E+02  0.47787271852E+02  0.20000003680E+02 0.  0.
         12    1    1    2    0    0 -0.29224879981E+02  0.21057700993E+02 -0.24209560567E+02  0.43400728148E+02  0.00000000000E+00 0. -1.
         11    1    3    3    0    0  0.32854401614E+01 -0.32406279619E+01  0.97465841424E+01  0.10783862450E+02  0.51100000000E-03 0. -1.
        -11    1    3    3    0    0  0.23135129804E+02 -0.14664371241E+02  0.16846634071E+02  0.32157224612E+02  0.51100000000E-03 0.  1.
         12    1    3    3    0    0  0.28043100148E+01 -0.31527017901E+01 -0.23836576467E+01  0.48461847894E+01  0.00000000000E+00 0. -1.
</event>
<event>
 7    1  0.1246400E-009  0.4778727E+02  0.7816164E-02  0.1312668E+00
        -11   -1    0    0    0    0  0.00000000000E+00  0.00000000000E+00  0.45593999997E+02  0.45594000000E+02  0.51100000000E-03 0. -1.
         11   -1    0    0    0    0 -0.00000000000E+00 -0.00000000000E+00 -0.45593999997E+02  0.45594000000E+02  0.51100000000E-03 0.  1.
    9900012    2    1    2    0    0  0.36947359635E+02 -0.11624688125E+02 -0.19580154963E+02  0.47787271592E+02  0.20000002494E+02 0.  0.
         12    1    1    2    0    0 -0.36947359635E+02  0.11624688125E+02  0.19580154963E+02  0.43400728408E+02  0.00000000000E+00 0. -1.
         11    1    3    3    0    0  0.17422288089E+02 -0.12922824428E+02 -0.58108428662E+01  0.22456656219E+02  0.51100000000E-03 0. -1.
        -11    1    3    3    0    0  0.12609347170E+02 -0.14470920022E+01 -0.45494310535E+01  0.13482842225E+02  0.51100000000E-03 0.  1.
         12    1    3    3    0    0  0.69157243767E+01  0.27452283052E+01 -0.92198810428E+01  0.11847773147E+02  0.00000000000E+00 0. -1.
</event>
<event>
 7    1  0.1331574E-009  0.4778727E+02  0.7816164E-02  0.1312668E+00
        -11   -1    0    0    0    0  0.00000000000E+00  0.00000000000E+00  0.45593999997E+02  0.45594000000E+02  0.51100000000E-03 0.  1.
         11   -1    0    0    0    0 -0.00000000000E+00 -0.00000000000E+00 -0.45593999997E+02  0.45594000000E+02  0.51100000000E-03 0. -1.
    9900012    2    1    2    0    0 -0.17979095867E+02 -0.24826752441E+02  0.30724705617E+02  0.47787273506E+02  0.20000011222E+02 0.  0.
         12    1    1    2    0    0  0.17979095867E+02  0.24826752441E+02 -0.30724705617E+02  0.43400726494E+02  0.00000000000E+00 0. -1.
         11    1    3    3    0    0  0.17092846248E+00 -0.28602489142E+01 -0.39957518576E+00  0.28930781152E+01  0.51100000000E-03 0. -1.
        -11    1    3    3    0    0 -0.97952300379E+01 -0.49927032648E+01  0.20331082760E+02  0.23113341253E+02  0.51100000000E-03 0.  1.
        -12    1    3    3    0    0 -0.83547942914E+01 -0.16973800262E+02  0.10793198042E+02  0.21780854138E+02  0.00000000000E+00 0.  1.
</event>
<event>
 7    1  0.1246400E-009  0.4778727E+02  0.7816164E-02  0.1312668E+00
        -11   -1    0    0    0    0  0.00000000000E+00  0.00000000000E+00  0.45593999997E+02  0.45594000000E+02  0.51100000000E-03 0.  1.
         11   -1    0    0    0    0 -0.00000000000E+00 -0.00000000000E+00 -0.45593999997E+02  0.45594000000E+02  0.51100000000E-03 0. -1.
    9900012    2    1    2    0    0 -0.24519953292E+02 -0.40672520919E+01  0.35578824271E+02  0.47787269758E+02  0.19999994135E+02 0.  0.
         12    1    1    2    0    0  0.24519953292E+02  0.40672520919E+01 -0.35578824271E+02  0.43400730242E+02  0.00000000000E+00 0. -1.
         11    1    3    3    0    0 -0.87246950292E+01  0.62884481917E+00  0.18939884051E+02  0.20862285524E+02  0.51100000000E-03 0. -1.
        -11    1    3    3    0    0  0.21412319587E+01 -0.21770171123E+01  0.22624664552E+01  0.38003989962E+01  0.51100000000E-03 0.  1.
        -12    1    3    3    0    0 -0.17936490222E+02 -0.25190797988E+01  0.14376473764E+02  0.23124585238E+02  0.00000000000E+00 0.  1.
</event>
<event>
 7    1  0.1246400E-009  0.4778729E+02  0.7816164E-02  0.1312668E+00
        -11   -1    0    0    0    0  0.00000000000E+00  0.00000000000E+00  0.45593999997E+02  0.45594000000E+02  0.51100000000E-03 0.  1.
         11   -1    0    0    0    0 -0.00000000000E+00 -0.00000000000E+00 -0.45593999997E+02  0.45594000000E+02  0.51100000000E-03 0. -1.
    9900012    2    1    2    0    0  0.60988901464E+01 -0.17396273712E+01  0.42934821106E+02  0.47787290008E+02  0.20000086462E+02 0.  0.
         12    1    1    2    0    0 -0.60988901464E+01  0.17396273712E+01 -0.42934821106E+02  0.43400709992E+02  0.00000000000E+00 0. -1.
         11    1    3    3    0    0 -0.30105723857E+00  0.47680071693E+01  0.74565218639E+01  0.88557465183E+01  0.51100000000E-03 0. -1.
        -11    1    3    3    0    0  0.95614046081E+01 -0.51218992578E+01  0.32845718923E+02  0.34590396961E+02  0.51100000000E-03 0.  1.
         12    1    3    3    0    0 -0.31614572231E+01 -0.13857352827E+01  0.26325803195E+01  0.43411465290E+01  0.00000000000E+00 0. -1.
</event>
<event>
 7    1  0.1246400E-009  0.4778727E+02  0.7816164E-02  0.1312668E+00
        -11   -1    0    0    0    0  0.00000000000E+00  0.00000000000E+00  0.45593999997E+02  0.45594000000E+02  0.51100000000E-03 0. -1.
         11   -1    0    0    0    0 -0.00000000000E+00 -0.00000000000E+00 -0.45593999997E+02  0.45594000000E+02  0.51100000000E-03 0.  1.
    9900012    2    1    2    0    0 -0.21913526612E+02  0.37462242822E+02 -0.31493555378E-01  0.47787271000E+02  0.19999999799E+02 0.  0.
         12    1    1    2    0    0  0.21913526612E+02 -0.37462242822E+02  0.31493555378E-01  0.43400729000E+02  0.00000000000E+00 0. -1.
         11    1    3    3    0    0  0.98945628598E+00 -0.12743778206E+01 -0.12124011047E+01  0.20181623501E+01  0.51100000000E-03 0. -1.
        -11    1    3    3    0    0 -0.98663183974E+01  0.92952883329E+01  0.35820622179E+00  0.13560049258E+02  0.51100000000E-03 0.  1.
         12    1    3    3    0    0 -0.13036664501E+02  0.29441332310E+02  0.82270132755E+00  0.32209059393E+02  0.00000000000E+00 0. -1.
</event>
<event>
 7    1  0.1246400E-009  0.4778727E+02  0.7816164E-02  0.1312668E+00
        -11   -1    0    0    0    0  0.00000000000E+00  0.00000000000E+00  0.45593999997E+02  0.45594000000E+02  0.51100000000E-03 0.  1.
         11   -1    0    0    0    0 -0.00000000000E+00 -0.00000000000E+00 -0.45593999997E+02  0.45594000000E+02  0.51100000000E-03 0. -1.
    9900012    2    1    2    0    0  0.20071358787E+02  0.14400573806E+02  0.35684552090E+02  0.47787271580E+02  0.20000002442E+02 0.  0.
         12    1    1    2    0    0 -0.20071358787E+02 -0.14400573806E+02 -0.35684552090E+02  0.43400728420E+02  0.00000000000E+00 0. -1.
         11    1    3    3    0    0  0.41183311874E+01 -0.15047057693E+01  0.13436154379E+02  0.14133472184E+02  0.51100000000E-03 0. -1.
        -11    1    3    3    0    0  0.68928298198E+01 -0.17216423064E-01  0.69192978395E+01  0.97666822505E+01  0.51100000000E-03 0.  1.
        -12    1    3    3    0    0  0.90601977798E+01  0.15922495999E+02  0.15329099872E+02  0.23887117145E+02  0.00000000000E+00 0.  1.
</event>
<event>
 7    1  0.1246400E-009  0.4778727E+02  0.7816164E-02  0.1312668E+00
        -11   -1    0    0    0    0  0.00000000000E+00  0.00000000000E+00  0.45593999997E+02  0.45594000000E+02  0.51100000000E-03 0. -1.
         11   -1    0    0    0    0 -0.00000000000E+00 -0.00000000000E+00 -0.45593999997E+02  0.45594000000E+02  0.51100000000E-03 0.  1.
    9900012    2    1    2    0    0 -0.32520676829E+02 -0.21580364033E+02 -0.18982018059E+02  0.47787267946E+02  0.19999985874E+02 0.  0.
         12    1    1    2    0    0  0.32520676829E+02  0.21580364033E+02  0.18982018059E+02  0.43400732054E+02  0.00000000000E+00 0. -1.
         11    1    3    3    0    0 -0.13056751525E+02 -0.14897642852E+01 -0.12345703886E+02  0.18030933495E+02  0.51100000000E-03 0. -1.
        -11    1    3    3    0    0 -0.12978971515E+01 -0.56594941962E+01 -0.13332840802E+01  0.59575211517E+01  0.51100000000E-03 0.  1.
        -12    1    3    3    0    0 -0.18166028153E+02 -0.14431105551E+02 -0.53030300923E+01  0.23798813299E+02  0.00000000000E+00 0.  1.
</event>
<event>
 7    1  0.1246400E-009  0.4778727E+02  0.7816164E-02  0.1312668E+00
        -11   -1    0    0    0    0  0.00000000000E+00  0.00000000000E+00  0.45593999997E+02  0.45594000000E+02  0.51100000000E-03 0.  1.
         11   -1    0    0    0    0 -0.00000000000E+00 -0.00000000000E+00 -0.45593999997E+02  0.45594000000E+02  0.51100000000E-03 0. -1.
    9900012    2    1    2    0    0  0.40389139342E+02  0.56561098179E+01 -0.14844159961E+02  0.47787271434E+02  0.20000001778E+02 0.  0.
         12    1    1    2    0    0 -0.40389139342E+02 -0.56561098179E+01  0.14844159961E+02  0.43400728566E+02  0.00000000000E+00 0. -1.
         11    1    3    3    0    0  0.12161070844E+02  0.10914684498E+01 -0.88408090820E+01  0.15074576377E+02  0.51100000000E-03 0. -1.
        -11    1    3    3    0    0  0.25752922908E+02  0.65095209747E+01 -0.73198203376E+00  0.26572969341E+02  0.51100000000E-03 0.  1.
        -12    1    3    3    0    0  0.24751455900E+01 -0.19448796067E+01 -0.52713688448E+01  0.61397257165E+01  0.00000000000E+00 0.  1.
</event>
<event>
 7    1  0.1246400E-009  0.4778726E+02  0.7816164E-02  0.1312668E+00
        -11   -1    0    0    0    0  0.00000000000E+00  0.00000000000E+00  0.45593999997E+02  0.45594000000E+02  0.51100000000E-03 0. -1.
         11   -1    0    0    0    0 -0.00000000000E+00 -0.00000000000E+00 -0.45593999997E+02  0.45594000000E+02  0.51100000000E-03 0.  1.
    9900012    2    1    2    0    0  0.21551268590E+02 -0.36560641445E+02 -0.90821961135E+01  0.47787263060E+02  0.19999963596E+02 0.  0.
         12    1    1    2    0    0 -0.21551268590E+02  0.36560641445E+02  0.90821961135E+01  0.43400736940E+02  0.00000000000E+00 0. -1.
         11    1    3    3    0    0  0.12796496921E+02 -0.80533028398E+01  0.15253786000E+01  0.15196473282E+02  0.51100000000E-03 0. -1.
        -11    1    3    3    0    0  0.73851657888E+01 -0.21884111360E+02 -0.46121448458E+01  0.23552640703E+02  0.51100000000E-03 0.  1.
        -12    1    3    3    0    0  0.13696058803E+01 -0.66232272449E+01 -0.59954298677E+01  0.90381490751E+01  0.00000000000E+00 0.  1.
</event>
<event>
 7    1  0.1246400E-009  0.4778726E+02  0.7816164E-02  0.1312668E+00
        -11   -1    0    0    0    0  0.00000000000E+00  0.00000000000E+00  0.45593999997E+02  0.45594000000E+02  0.51100000000E-03 0.  1.
         11   -1    0    0    0    0 -0.00000000000E+00 -0.00000000000E+00 -0.45593999997E+02  0.45594000000E+02  0.51100000000E-03 0. -1.
    9900012    2    1    2    0    0  0.20314765412E+02 -0.85590573812E-01  0.38352669951E+02  0.47787259086E+02  0.19999945477E+02 0.  0.
         12    1    1    2    0    0 -0.20314765412E+02  0.85590573812E-01 -0.38352669951E+02  0.43400740914E+02  0.00000000000E+00 0. -1.
         11    1    3    3    0    0  0.15004958906E+02 -0.51541952651E+01  0.20390955242E+02  0.25836129287E+02  0.51100000000E-03 0. -1.
        -11    1    3    3    0    0  0.19908151186E+01  0.79200335222E-02  0.15145886968E+02  0.15276167709E+02  0.51100000000E-03 0.  1.
         12    1    3    3    0    0  0.33189913876E+01  0.50606846578E+01  0.28158277416E+01  0.66749620903E+01  0.00000000000E+00 0. -1.
</event>
<event>
 7    1  0.1246400E-009  0.4778727E+02  0.7816164E-02  0.1312668E+00
        -11   -1    0    0    0    0  0.00000000000E+00  0.00000000000E+00  0.45593999997E+02  0.45594000000E+02  0.51100000000E-03 0.  1.
         11   -1    0    0    0    0 -0.00000000000E+00 -0.00000000000E+00 -0.45593999997E+02  0.45594000000E+02  0.51100000000E-03 0. -1.
    9900012    2    1    2    0    0 -0.41613107568E+02  0.11236787912E+02 -0.50702528885E+01  0.47787267421E+02  0.19999983477E+02 0.  0.
         12    1    1    2    0    0  0.41613107568E+02 -0.11236787912E+02  0.50702528885E+01  0.43400732579E+02  0.00000000000E+00 0. -1.
         11    1    3    3    0    0 -0.10856218586E+02  0.58863498468E+01  0.23016372345E+01  0.12562011412E+02  0.51100000000E-03 0. -1.
        -11    1    3    3    0    0 -0.18477000686E+02 -0.39694629025E+01 -0.55813214393E+01  0.19705515455E+02  0.51100000000E-03 0.  1.
         12    1    3    3    0    0 -0.12279888297E+02  0.93199009677E+01 -0.17905686837E+01  0.15519740553E+02  0.00000000000E+00 0. -1.
</event>
<event>
 7    1  0.1246400E-009  0.4778727E+02  0.7816164E-02  0.1312668E+00
        -11   -1    0    0    0    0  0.00000000000E+00  0.00000000000E+00  0.45593999997E+02  0.45594000000E+02  0.51100000000E-03 0. -1.
         11   -1    0    0    0    0 -0.00000000000E+00 -0.00000000000E+00 -0.45593999997E+02  0.45594000000E+02  0.51100000000E-03 0.  1.
    9900012    2    1    2    0    0 -0.86027267483E+01 -0.42119806234E+02 -0.59613725158E+01  0.47787274810E+02  0.20000017170E+02 0.  0.
         12    1    1    2    0    0  0.86027267483E+01  0.42119806234E+02  0.59613725158E+01  0.43400725190E+02  0.00000000000E+00 0. -1.
         11    1    3    3    0    0 -0.22709194853E+01 -0.19782629782E+02 -0.43629506534E+01  0.20384917342E+02  0.51100000000E-03 0. -1.
        -11    1    3    3    0    0  0.19039029380E+01 -0.17849093483E+02 -0.16179260989E+01  0.18023114872E+02  0.51100000000E-03 0.  1.
         12    1    3    3    0    0 -0.82357102010E+01 -0.44880829696E+01  0.19504236483E-01  0.93792425959E+01  0.00000000000E+00 0. -1.
</event>
<event>
 7    1  0.1246400E-009  0.4778726E+02  0.7816164E-02  0.1312668E+00
        -11   -1    0    0    0    0  0.00000000000E+00  0.00000000000E+00  0.45593999997E+02  0.45594000000E+02  0.51100000000E-03 0.  1.
         11   -1    0    0    0    0 -0.00000000000E+00 -0.00000000000E+00 -0.45593999997E+02  0.45594000000E+02  0.51100000000E-03 0. -1.
    9900012    2    1    2    0    0 -0.84923511373E+01  0.37203343847E+02  0.20674034301E+02  0.47787256740E+02  0.19999934782E+02 0.  0.
         12    1    1    2    0    0  0.84923511373E+01 -0.37203343847E+02 -0.20674034301E+02  0.43400743260E+02  0.00000000000E+00 0. -1.
         11    1    3    3    0    0 -0.50970690724E+01  0.50232789212E+01  0.10515384160E+01  0.72331996758E+01  0.51100000000E-03 0. -1.
        -11    1    3    3    0    0 -0.85517404706E+01  0.12529911389E+02  0.80465290293E+01  0.17171999714E+02  0.51100000000E-03 0.  1.
         12    1    3    3    0    0  0.51564584057E+01  0.19650153537E+02  0.11575966856E+02  0.23382057351E+02  0.00000000000E+00 0. -1.
</event>
<event>
 7    1  0.1246400E-009  0.4778727E+02  0.7816164E-02  0.1312668E+00
        -11   -1    0    0    0    0  0.00000000000E+00  0.00000000000E+00  0.45593999997E+02  0.45594000000E+02  0.51100000000E-03 0. -1.
         11   -1    0    0    0    0 -0.00000000000E+00 -0.00000000000E+00 -0.45593999997E+02  0.45594000000E+02  0.51100000000E-03 0.  1.
    9900012    2    1    2    0    0  0.23129655235E+02 -0.36378478679E+02  0.50248368298E+01  0.47787266741E+02  0.19999980377E+02 0.  0.
         12    1    1    2    0    0 -0.23129655235E+02  0.36378478679E+02 -0.50248368298E+01  0.43400733259E+02  0.00000000000E+00 0. -1.
         11    1    3    3    0    0  0.83152854732E+01 -0.23414771100E+01  0.37945214426E+01  0.94352997195E+01  0.51100000000E-03 0. -1.
        -11    1    3    3    0    0  0.10603234526E+01 -0.10910386639E+02  0.30642746733E+01  0.11382029783E+02  0.51100000000E-03 0.  1.
        -12    1    3    3    0    0  0.13754046309E+02 -0.23126614929E+02 -0.18339592861E+01  0.26969937238E+02  0.00000000000E+00 0.  1.
</event>
<event>
 7    1  0.1246400E-009  0.4778727E+02  0.7816164E-02  0.1312668E+00
        -11   -1    0    0    0    0  0.00000000000E+00  0.00000000000E+00  0.45593999997E+02  0.45594000000E+02  0.51100000000E-03 0.  1.
         11   -1    0    0    0    0 -0.00000000000E+00 -0.00000000000E+00 -0.45593999997E+02  0.45594000000E+02  0.51100000000E-03 0. -1.
    9900012    2    1    2    0    0  0.28367056595E+01 -0.18337624496E+02  0.39234011944E+02  0.47787273458E+02  0.20000011002E+02 0.  0.
         12    1    1    2    0    0 -0.28367056595E+01  0.18337624496E+02 -0.39234011944E+02  0.43400726542E+02  0.00000000000E+00 0. -1.
         11    1    3    3    0    0  0.38227068227E+00 -0.10779695920E+02  0.11784981530E+02  0.15976037210E+02  0.51100000000E-03 0. -1.
        -11    1    3    3    0    0  0.54231030336E+01 -0.79630095239E+01  0.27139848423E+02  0.28799148250E+02  0.51100000000E-03 0.  1.
        -12    1    3    3    0    0 -0.29686680564E+01  0.40508094793E+00  0.30918199050E+00  0.30120879978E+01  0.00000000000E+00 0.  1.
</event>
<event>
 7    1  0.1246400E-009  0.4778727E+02  0.7816164E-02  0.1312668E+00
        -11   -1    0    0    0    0  0.00000000000E+00  0.00000000000E+00  0.45593999997E+02  0.45594000000E+02  0.51100000000E-03 0. -1.
         11   -1    0    0    0    0 -0.00000000000E+00 -0.00000000000E+00 -0.45593999997E+02  0.45594000000E+02  0.51100000000E-03 0.  1.
    9900012    2    1    2    0    0 -0.24117910997E+02  0.34483877410E+02  0.10621292838E+02  0.47787270817E+02  0.19999998963E+02 0.  0.
         12    1    1    2    0    0  0.24117910997E+02 -0.34483877410E+02 -0.10621292838E+02  0.43400729183E+02  0.00000000000E+00 0. -1.
         11    1    3    3    0    0  0.20038368843E+01  0.47022596530E+01  0.18102907835E+01  0.54225234979E+01  0.51100000000E-03 0. -1.
        -11    1    3    3    0    0 -0.15247703564E+02  0.14516432660E+02  0.10538405387E+02  0.23543093882E+02  0.51100000000E-03 0.  1.
         12    1    3    3    0    0 -0.10874044317E+02  0.15265185097E+02 -0.17274033331E+01  0.18821653438E+02  0.00000000000E+00 0. -1.
</event>
<event>
 7    1  0.1246400E-009  0.4778729E+02  0.7816164E-02  0.1312668E+00
        -11   -1    0    0    0    0  0.00000000000E+00  0.00000000000E+00  0.45593999997E+02  0.45594000000E+02  0.51100000000E-03 0. -1.
         11   -1    0    0    0    0 -0.00000000000E+00 -0.00000000000E+00 -0.45593999997E+02  0.45594000000E+02  0.51100000000E-03 0.  1.
    9900012    2    1    2    0    0  0.16700625070E+01  0.38834638380E+02  0.19305533938E+02  0.47787287016E+02  0.20000072823E+02 0.  0.
         12    1    1    2    0    0 -0.16700625070E+01 -0.38834638380E+02 -0.19305533938E+02  0.43400712984E+02  0.00000000000E+00 0. -1.
         11    1    3    3    0    0  0.72258220571E+01  0.10591631989E+02  0.12286526385E+01  0.12880402174E+02  0.51100000000E-03 0. -1.
        -11    1    3    3    0    0 -0.37194200321E+01  0.23628532476E+02  0.11168109294E+02  0.26398263159E+02  0.51100000000E-03 0.  1.
        -12    1    3    3    0    0 -0.18363395179E+01  0.46144739147E+01  0.69087720057E+01  0.85086216839E+01  0.00000000000E+00 0.  1.
</event>
<event>
 7    1  0.1246400E-009  0.4778727E+02  0.7816164E-02  0.1312668E+00
        -11   -1    0    0    0    0  0.00000000000E+00  0.00000000000E+00  0.45593999997E+02  0.45594000000E+02  0.51100000000E-03 0. -1.
         11   -1    0    0    0    0 -0.00000000000E+00 -0.00000000000E+00 -0.45593999997E+02  0.45594000000E+02  0.51100000000E-03 0.  1.
    9900012    2    1    2    0    0 -0.14081612212E+02  0.36196243787E+02 -0.19369138186E+02  0.47787269812E+02  0.19999994381E+02 0.  0.
         12    1    1    2    0    0  0.14081612212E+02 -0.36196243787E+02  0.19369138186E+02  0.43400730188E+02  0.00000000000E+00 0. -1.
         11    1    3    3    0    0 -0.46457109354E+01  0.12515740296E+01 -0.46764028991E+01  0.67095314279E+01  0.51100000000E-03 0. -1.
        -11    1    3    3    0    0 -0.28040352536E+00  0.18772535892E+02 -0.12044816360E+02  0.22306150080E+02  0.51100000000E-03 0.  1.
         12    1    3    3    0    0 -0.91554977516E+01  0.16172133865E+02 -0.26479189266E+01  0.18771588304E+02  0.00000000000E+00 0. -1.
</event>
<event>
 7    1  0.1246400E-009  0.4778727E+02  0.7816164E-02  0.1312668E+00
        -11   -1    0    0    0    0  0.00000000000E+00  0.00000000000E+00  0.45593999997E+02  0.45594000000E+02  0.51100000000E-03 0.  1.
         11   -1    0    0    0    0 -0.00000000000E+00 -0.00000000000E+00 -0.45593999997E+02  0.45594000000E+02  0.51100000000E-03 0. -1.
    9900012    2    1    2    0    0 -0.42068592681E+02 -0.38118100179E+01  0.99662911502E+01  0.47787270224E+02  0.19999996261E+02 0.  0.
         12    1    1    2    0    0  0.42068592681E+02  0.38118100179E+01 -0.99662911502E+01  0.43400729776E+02  0.00000000000E+00 0. -1.
         11    1    3    3    0    0  0.30537677725E+00 -0.33805801230E+01  0.41286328410E+00  0.34193615335E+01  0.51100000000E-03 0. -1.
        -11    1    3    3    0    0 -0.20457885656E+02 -0.45684228501E+01  0.34409794479E+01  0.21242314202E+02  0.51100000000E-03 0.  1.
        -12    1    3    3    0    0 -0.21916083802E+02  0.41371929552E+01  0.61124484182E+01  0.23125594489E+02  0.00000000000E+00 0.  1.
</event>
<event>
 7    1  0.1246400E-009  0.4778727E+02  0.7816164E-02  0.1312668E+00
        -11   -1    0    0    0    0  0.00000000000E+00  0.00000000000E+00  0.45593999997E+02  0.45594000000E+02  0.51100000000E-03 0.  1.
         11   -1    0    0    0    0 -0.00000000000E+00 -0.00000000000E+00 -0.45593999997E+02  0.45594000000E+02  0.51100000000E-03 0. -1.
    9900012    2    1    2    0    0  0.24950132857E+02 -0.11656088040E+02  0.33544740775E+02  0.47787272452E+02  0.20000006419E+02 0.  0.
         12    1    1    2    0    0 -0.24950132857E+02  0.11656088040E+02 -0.33544740775E+02  0.43400727548E+02  0.00000000000E+00 0. -1.
         11    1    3    3    0    0  0.67649735302E+01 -0.47909023376E+01  0.19569035351E+02  0.21252405908E+02  0.51100000000E-03 0. -1.
        -11    1    3    3    0    0  0.66937959407E+01 -0.85553825945E+01  0.56518939116E+01  0.12245218678E+02  0.51100000000E-03 0.  1.
        -12    1    3    3    0    0  0.11491363387E+02  0.16901968924E+01  0.83238115130E+01  0.14289647866E+02  0.00000000000E+00 0.  1.
</event>
<event>
 7    1  0.1246400E-009  0.4778730E+02  0.7816164E-02  0.1312668E+00
        -11   -1    0    0    0    0  0.00000000000E+00  0.00000000000E+00  0.45593999997E+02  0.45594000000E+02  0.51100000000E-03 0. -1.
         11   -1    0    0    0    0 -0.00000000000E+00 -0.00000000000E+00 -0.45593999997E+02  0.45594000000E+02  0.51100000000E-03 0.  1.
    9900012    2    1    2    0    0 -0.14301937724E+02 -0.34503994778E+02 -0.22103152680E+02  0.47787303730E+02  0.20000149026E+02 0.  0.
         12    1    1    2    0    0  0.14301937724E+02  0.34503994778E+02  0.22103152680E+02  0.43400696270E+02  0.00000000000E+00 0. -1.
         11    1    3    3    0    0  0.28127213683E+00 -0.48363678023E+01 -0.80196729802E+01  0.93693501645E+01  0.51100000000E-03 0. -1.
        -11    1    3    3    0    0 -0.49012067358E+01 -0.23856831827E+02 -0.82954201195E+01  0.25729054540E+02  0.51100000000E-03 0.  1.
        -12    1    3    3    0    0 -0.96820031254E+01 -0.58107951487E+01 -0.57880595799E+01  0.12688899026E+02  0.00000000000E+00 0.  1.
</event>
<event>
 7    1  0.1246400E-009  0.4778728E+02  0.7816164E-02  0.1312668E+00
        -11   -1    0    0    0    0  0.00000000000E+00  0.00000000000E+00  0.45593999997E+02  0.45594000000E+02  0.51100000000E-03 0. -1.
         11   -1    0    0    0    0 -0.00000000000E+00 -0.00000000000E+00 -0.45593999997E+02  0.45594000000E+02  0.51100000000E-03 0.  1.
    9900012    2    1    2    0    0 -0.24737596904E+02 -0.91890407415E+01 -0.34456284674E+02  0.47787277381E+02  0.20000028890E+02 0.  0.
         12    1    1    2    0    0  0.24737596904E+02  0.91890407415E+01  0.34456284674E+02  0.43400722619E+02  0.00000000000E+00 0. -1.
         11    1    3    3    0    0 -0.13750943424E+02 -0.20390513017E+01 -0.10859589861E+02  0.17640205993E+02  0.51100000000E-03 0.  1.
        -11    1    3    3    0    0 -0.16118972410E+01 -0.60087031901E+01 -0.19332616262E+01  0.65146164521E+01  0.51100000000E-03 0. -1.
        -12    1    3    3    0    0 -0.93747562390E+01 -0.11412862496E+01 -0.21663433187E+02  0.23632454936E+02  0.00000000000E+00 0.  1.
</event>
<event>
 7    1  0.1246400E-009  0.4778726E+02  0.7816164E-02  0.1312668E+00
        -11   -1    0    0    0    0  0.00000000000E+00  0.00000000000E+00  0.45593999997E+02  0.45594000000E+02  0.51100000000E-03 0. -1.
         11   -1    0    0    0    0 -0.00000000000E+00 -0.00000000000E+00 -0.45593999997E+02  0.45594000000E+02  0.51100000000E-03 0.  1.
    9900012    2    1    2    0    0  0.40300700026E+02 -0.79587722257E+01 -0.14004846124E+02  0.47787260457E+02  0.19999951729E+02 0.  0.
         12    1    1    2    0    0 -0.40300700026E+02  0.79587722257E+01  0.14004846124E+02  0.43400739543E+02  0.00000000000E+00 0. -1.
         11    1    3    3    0    0  0.21358790301E+02 -0.12720642781E+02 -0.34315666589E+01  0.25095583793E+02  0.51100000000E-03 0. -1.
        -11    1    3    3    0    0  0.13940677540E+02  0.19192240324E+01 -0.58156032090E+01  0.15226527907E+02  0.51100000000E-03 0.  1.
         12    1    3    3    0    0  0.50012321847E+01  0.28426465229E+01 -0.47576762561E+01  0.74651487579E+01  0.00000000000E+00 0. -1.
</event>
<event>
 7    1  0.1246400E-009  0.4778726E+02  0.7816164E-02  0.1312668E+00
        -11   -1    0    0    0    0  0.00000000000E+00  0.00000000000E+00  0.45593999997E+02  0.45594000000E+02  0.51100000000E-03 0.  1.
         11   -1    0    0    0    0 -0.00000000000E+00 -0.00000000000E+00 -0.45593999997E+02  0.45594000000E+02  0.51100000000E-03 0. -1.
    9900012    2    1    2    0    0 -0.39388850186E+02 -0.16431661722E+02  0.78831183407E+01  0.47787255990E+02  0.19999931359E+02 0.  0.
         12    1    1    2    0    0  0.39388850186E+02  0.16431661722E+02 -0.78831183407E+01  0.43400744010E+02  0.00000000000E+00 0. -1.
         11    1    3    3    0    0 -0.91397267365E+01 -0.19016661114E+01  0.71222676570E+01  0.11742130797E+02  0.51100000000E-03 0. -1.
        -11    1    3    3    0    0 -0.20533042860E+02 -0.15555236568E+02  0.32470867984E+01  0.25963720973E+02  0.51100000000E-03 0.  1.
         12    1    3    3    0    0 -0.97160805886E+01  0.10252409579E+01 -0.24862361147E+01  0.10081404220E+02  0.00000000000E+00 0. -1.
</event>
<event>
 7    1  0.1246400E-009  0.4778727E+02  0.7816164E-02  0.1312668E+00
        -11   -1    0    0    0    0  0.00000000000E+00  0.00000000000E+00  0.45593999997E+02  0.45594000000E+02  0.51100000000E-03 0.  1.
         11   -1    0    0    0    0 -0.00000000000E+00 -0.00000000000E+00 -0.45593999997E+02  0.45594000000E+02  0.51100000000E-03 0. -1.
    9900012    2    1    2    0    0 -0.42139418596E+01 -0.88655108295E+00  0.43186574951E+02  0.47787268039E+02  0.19999986295E+02 0.  0.
         12    1    1    2    0    0  0.42139418596E+01  0.88655108295E+00 -0.43186574951E+02  0.43400731961E+02  0.00000000000E+00 0. -1.
         11    1    3    3    0    0  0.69505930329E+01 -0.37400050270E+01  0.14089239842E+02  0.16149460074E+02  0.51100000000E-03 0. -1.
        -11    1    3    3    0    0 -0.53040101788E+01 -0.61516052450E+00  0.16132954443E+02  0.16993621326E+02  0.51100000000E-03 0.  1.
         12    1    3    3    0    0 -0.58605247137E+01  0.34686144685E+01  0.12964380666E+02  0.14644186638E+02  0.00000000000E+00 0. -1.
</event>
<event>
 7    1  0.1246400E-009  0.4778727E+02  0.7816164E-02  0.1312668E+00
        -11   -1    0    0    0    0  0.00000000000E+00  0.00000000000E+00  0.45593999997E+02  0.45594000000E+02  0.51100000000E-03 0.  1.
         11   -1    0    0    0    0 -0.00000000000E+00 -0.00000000000E+00 -0.45593999997E+02  0.45594000000E+02  0.51100000000E-03 0. -1.
    9900012    2    1    2    0    0  0.32789004048E+01  0.40932158861E+02  0.14051004969E+02  0.47787267776E+02  0.19999985100E+02 0.  0.
         12    1    1    2    0    0 -0.32789004048E+01 -0.40932158861E+02 -0.14051004969E+02  0.43400732224E+02  0.00000000000E+00 0. -1.
         11    1    3    3    0    0  0.40328391750E+01  0.10918862340E+01  0.49627039095E+00  0.42074091697E+01  0.51100000000E-03 0.  1.
        -11    1    3    3    0    0 -0.42336684155E+01  0.11259862001E+02  0.70226816939E+00  0.12049963542E+02  0.51100000000E-03 0. -1.
        -12    1    3    3    0    0  0.34797296453E+01  0.28580410626E+02  0.12852466409E+02  0.31529895064E+02  0.00000000000E+00 0.  1.
</event>
<event>
 7    1  0.1246400E-009  0.4778726E+02  0.7816164E-02  0.1312668E+00
        -11   -1    0    0    0    0  0.00000000000E+00  0.00000000000E+00  0.45593999997E+02  0.45594000000E+02  0.51100000000E-03 0. -1.
         11   -1    0    0    0    0 -0.00000000000E+00 -0.00000000000E+00 -0.45593999997E+02  0.45594000000E+02  0.51100000000E-03 0.  1.
    9900012    2    1    2    0    0 -0.28622336073E+02 -0.31826371291E+02  0.71741607409E+01  0.47787255604E+02  0.19999929600E+02 0.  0.
         12    1    1    2    0    0  0.28622336073E+02  0.31826371291E+02 -0.71741607409E+01  0.43400744396E+02  0.00000000000E+00 0. -1.
         11    1    3    3    0    0 -0.12022136765E+02 -0.13722055708E+02 -0.11896362794E+01  0.18282281586E+02  0.51100000000E-03 0. -1.
        -11    1    3    3    0    0 -0.12755188338E+02 -0.56348955969E+01  0.87287826717E+01  0.16451094952E+02  0.51100000000E-03 0.  1.
         12    1    3    3    0    0 -0.38450109698E+01 -0.12469419986E+02 -0.36498565134E+00  0.13053879066E+02  0.00000000000E+00 0. -1.
</event>
<event>
 7    1  0.1246400E-009  0.4778730E+02  0.7816164E-02  0.1312668E+00
        -11   -1    0    0    0    0  0.00000000000E+00  0.00000000000E+00  0.45593999997E+02  0.45594000000E+02  0.51100000000E-03 0.  1.
         11   -1    0    0    0    0 -0.00000000000E+00 -0.00000000000E+00 -0.45593999997E+02  0.45594000000E+02  0.51100000000E-03 0. -1.
    9900012    2    1    2    0    0  0.64631664931E+01 -0.22867778478E+02  0.36316845858E+02  0.47787296011E+02  0.20000113833E+02 0.  0.
         12    1    1    2    0    0 -0.64631664931E+01  0.22867778478E+02 -0.36316845858E+02  0.43400703989E+02  0.00000000000E+00 0. -1.
         11    1    3    3    0    0 -0.69484669886E+00 -0.45270778602E+00 -0.68166394548E+00  0.10735093247E+01  0.51100000000E-03 0. -1.
        -11    1    3    3    0    0 -0.17695627523E+01  0.18624248147E+01  0.24077265052E+01  0.35209552269E+01  0.51100000000E-03 0.  1.
        -12    1    3    3    0    0  0.89275759442E+01 -0.24277495506E+02  0.34590783299E+02  0.43192831460E+02  0.00000000000E+00 0.  1.
</event>
<event>
 7    1  0.1246400E-009  0.4778728E+02  0.7816164E-02  0.1312668E+00
        -11   -1    0    0    0    0  0.00000000000E+00  0.00000000000E+00  0.45593999997E+02  0.45594000000E+02  0.51100000000E-03 0.  1.
         11   -1    0    0    0    0 -0.00000000000E+00 -0.00000000000E+00 -0.45593999997E+02  0.45594000000E+02  0.51100000000E-03 0. -1.
    9900012    2    1    2    0    0 -0.25425402542E+02 -0.11131954536E+02  0.33365417608E+02  0.47787278827E+02  0.20000035485E+02 0.  0.
         12    1    1    2    0    0  0.25425402542E+02  0.11131954536E+02 -0.33365417608E+02  0.43400721173E+02  0.00000000000E+00 0. -1.
         11    1    3    3    0    0 -0.28460979033E+01  0.19863452657E+01 -0.28179234837E+00  0.34821326767E+01  0.51100000000E-03 0. -1.
        -11    1    3    3    0    0 -0.37130160670E+00 -0.23119457353E+01 -0.26081016411E+00  0.23560518180E+01  0.51100000000E-03 0.  1.
        -12    1    3    3    0    0 -0.22208003032E+02 -0.10806354066E+02  0.33908020120E+02  0.41949094332E+02  0.00000000000E+00 0.  1.
</event>
<event>
 7    1  0.1246400E-009  0.4778727E+02  0.7816164E-02  0.1312668E+00
        -11   -1    0    0    0    0  0.00000000000E+00  0.00000000000E+00  0.45593999997E+02  0.45594000000E+02  0.51100000000E-03 0. -1.
         11   -1    0    0    0    0 -0.00000000000E+00 -0.00000000000E+00 -0.45593999997E+02  0.45594000000E+02  0.51100000000E-03 0.  1.
    9900012    2    1    2    0    0  0.40667977747E+02 -0.12488025455E+02  0.85900202019E+01  0.47787266816E+02  0.19999980721E+02 0.  0.
         12    1    1    2    0    0 -0.40667977747E+02  0.12488025455E+02 -0.85900202019E+01  0.43400733184E+02  0.00000000000E+00 0. -1.
         11    1    3    3    0    0 -0.18062292714E+01 -0.32038981832E-01  0.87993218772E+00  0.20094207109E+01  0.51100000000E-03 0. -1.
        -11    1    3    3    0    0  0.16172222001E+02 -0.40199117034E+01 -0.13224274463E+01  0.16716736199E+02  0.51100000000E-03 0.  1.
        -12    1    3    3    0    0  0.26301985018E+02 -0.84360747701E+01  0.90325154604E+01  0.29061109906E+02  0.00000000000E+00 0.  1.
</event>
<event>
 7    1  0.1246400E-009  0.4778727E+02  0.7816164E-02  0.1312668E+00
        -11   -1    0    0    0    0  0.00000000000E+00  0.00000000000E+00  0.45593999997E+02  0.45594000000E+02  0.51100000000E-03 0. -1.
         11   -1    0    0    0    0 -0.00000000000E+00 -0.00000000000E+00 -0.45593999997E+02  0.45594000000E+02  0.51100000000E-03 0.  1.
    9900012    2    1    2    0    0 -0.73133669251E+01 -0.39826872464E+02 -0.15619160516E+02  0.47787270960E+02  0.19999999613E+02 0.  0.
         12    1    1    2    0    0  0.73133669251E+01  0.39826872464E+02  0.15619160516E+02  0.43400729040E+02  0.00000000000E+00 0. -1.
         11    1    3    3    0    0 -0.37220908628E+01 -0.16867793975E+02 -0.47088562296E+01  0.17903903519E+02  0.51100000000E-03 0. -1.
        -11    1    3    3    0    0 -0.25701498005E+01 -0.67781300190E+00  0.26718191730E+01  0.37687820867E+01  0.51100000000E-03 0.  1.
        -12    1    3    3    0    0 -0.10211262618E+01 -0.22281265487E+02 -0.13582123459E+02  0.26114585354E+02  0.00000000000E+00 0.  1.
</event>
<event>
 7    1  0.1246400E-009  0.4778727E+02  0.7816164E-02  0.1312668E+00
        -11   -1    0    0    0    0  0.00000000000E+00  0.00000000000E+00  0.45593999997E+02  0.45594000000E+02  0.51100000000E-03 0.  1.
         11   -1    0    0    0    0 -0.00000000000E+00 -0.00000000000E+00 -0.45593999997E+02  0.45594000000E+02  0.51100000000E-03 0. -1.
    9900012    2    1    2    0    0  0.31589870683E+02 -0.41027486732E+01  0.29476612226E+02  0.47787272531E+02  0.20000006780E+02 0.  0.
         12    1    1    2    0    0 -0.31589870683E+02  0.41027486732E+01 -0.29476612226E+02  0.43400727469E+02  0.00000000000E+00 0. -1.
         11    1    3    3    0    0  0.15653825232E+02  0.53649442623E+01  0.69130233237E+01  0.17933621025E+02  0.51100000000E-03 0. -1.
        -11    1    3    3    0    0  0.10538264572E+00 -0.10995299747E+01  0.75222319344E-01  0.11071270595E+01  0.51100000000E-03 0.  1.
         12    1    3    3    0    0  0.15830662806E+02 -0.83681629607E+01  0.22488366583E+02  0.28746524447E+02  0.00000000000E+00 0. -1.
</event>
<event>
 7    1  0.1246400E-009  0.4778727E+02  0.7816164E-02  0.1312668E+00
        -11   -1    0    0    0    0  0.00000000000E+00  0.00000000000E+00  0.45593999997E+02  0.45594000000E+02  0.51100000000E-03 0.  1.
         11   -1    0    0    0    0 -0.00000000000E+00 -0.00000000000E+00 -0.45593999997E+02  0.45594000000E+02  0.51100000000E-03 0. -1.
    9900012    2    1    2    0    0 -0.31059106083E+02 -0.30172143448E+02 -0.29320355855E+01  0.47787272545E+02  0.20000006842E+02 0.  0.
         12    1    1    2    0    0  0.31059106083E+02  0.30172143448E+02  0.29320355855E+01  0.43400727455E+02  0.00000000000E+00 0. -1.
         11    1    3    3    0    0 -0.10700370093E+01  0.99494934558E+00 -0.97369434448E+00  0.17558429142E+01  0.51100000000E-03 0. -1.
        -11    1    3    3    0    0 -0.16777234292E+02 -0.27516157559E+02 -0.34107138972E+00  0.32229347608E+02  0.51100000000E-03 0.  1.
         12    1    3    3    0    0 -0.13211834782E+02 -0.36509352351E+01 -0.16172698513E+01  0.13802082023E+02  0.00000000000E+00 0. -1.
</event>
<event>
 7    1  0.1246400E-009  0.4778727E+02  0.7816164E-02  0.1312668E+00
        -11   -1    0    0    0    0  0.00000000000E+00  0.00000000000E+00  0.45593999997E+02  0.45594000000E+02  0.51100000000E-03 0.  1.
         11   -1    0    0    0    0 -0.00000000000E+00 -0.00000000000E+00 -0.45593999997E+02  0.45594000000E+02  0.51100000000E-03 0. -1.
    9900012    2    1    2    0    0 -0.20568884555E+02 -0.94159155267E+01  0.37038964597E+02  0.47787269874E+02  0.19999994664E+02 0.  0.
         12    1    1    2    0    0  0.20568884555E+02  0.94159155267E+01 -0.37038964597E+02  0.43400730126E+02  0.00000000000E+00 0. -1.
         11    1    3    3    0    0 -0.16147705283E+02 -0.73587499225E+01  0.13861835328E+02  0.22517772209E+02  0.51100000000E-03 0. -1.
        -11    1    3    3    0    0 -0.69295938803E+01 -0.20380744587E+00  0.15296514453E+02  0.16794170521E+02  0.51100000000E-03 0.  1.
        -12    1    3    3    0    0  0.25084146088E+01 -0.18533581583E+01  0.78806148169E+01  0.84753271444E+01  0.00000000000E+00 0.  1.
</event>
<event>
 7    1  0.1246400E-009  0.4778727E+02  0.7816164E-02  0.1312668E+00
        -11   -1    0    0    0    0  0.00000000000E+00  0.00000000000E+00  0.45593999997E+02  0.45594000000E+02  0.51100000000E-03 0.  1.
         11   -1    0    0    0    0 -0.00000000000E+00 -0.00000000000E+00 -0.45593999997E+02  0.45594000000E+02  0.51100000000E-03 0. -1.
    9900012    2    1    2    0    0 -0.27507809510E+01 -0.32501565093E+01  0.43191355551E+02  0.47787268353E+02  0.19999987727E+02 0.  0.
         12    1    1    2    0    0  0.27507809510E+01  0.32501565093E+01 -0.43191355551E+02  0.43400731647E+02  0.00000000000E+00 0. -1.
         11    1    3    3    0    0 -0.99396584815E+01  0.15811736469E+01  0.18951352682E+02  0.21458114772E+02  0.51100000000E-03 0. -1.
        -11    1    3    3    0    0  0.14998190576E+01 -0.43062152243E+01  0.10341410186E+02  0.11302110938E+02  0.51100000000E-03 0.  1.
        -12    1    3    3    0    0  0.56890584729E+01 -0.52511493187E+00  0.13898592683E+02  0.15027042642E+02  0.00000000000E+00 0.  1.
</event>
<event>
 7    1  0.1246400E-009  0.4778727E+02  0.7816164E-02  0.1312668E+00
        -11   -1    0    0    0    0  0.00000000000E+00  0.00000000000E+00  0.45593999997E+02  0.45594000000E+02  0.51100000000E-03 0.  1.
         11   -1    0    0    0    0 -0.00000000000E+00 -0.00000000000E+00 -0.45593999997E+02  0.45594000000E+02  0.51100000000E-03 0. -1.
    9900012    2    1    2    0    0  0.30037538464E+02  0.16376524116E+02  0.26705407868E+02  0.47787273410E+02  0.20000010786E+02 0.  0.
         12    1    1    2    0    0 -0.30037538464E+02 -0.16376524116E+02 -0.26705407868E+02  0.43400726590E+02  0.00000000000E+00 0. -1.
         11    1    3    3    0    0  0.15450113167E+02  0.14532507786E+02  0.13941044699E+02  0.25382129678E+02  0.51100000000E-03 0.  1.
        -11    1    3    3    0    0  0.14927536198E+02  0.17676959752E+01  0.69161934938E+01  0.16546595381E+02  0.51100000000E-03 0. -1.
         12    1    3    3    0    0 -0.34011090144E+00  0.76320355083E-01  0.58481696760E+01  0.58585483510E+01  0.00000000000E+00 0. -1.
</event>
<event>
 7    1  0.1246400E-009  0.4778727E+02  0.7816164E-02  0.1312668E+00
        -11   -1    0    0    0    0  0.00000000000E+00  0.00000000000E+00  0.45593999997E+02  0.45594000000E+02  0.51100000000E-03 0. -1.
         11   -1    0    0    0    0 -0.00000000000E+00 -0.00000000000E+00 -0.45593999997E+02  0.45594000000E+02  0.51100000000E-03 0.  1.
    9900012    2    1    2    0    0 -0.34318408586E+02 -0.22995341094E+02  0.13307308825E+02  0.47787270190E+02  0.19999996103E+02 0.  0.
         12    1    1    2    0    0  0.34318408586E+02  0.22995341094E+02 -0.13307308825E+02  0.43400729810E+02  0.00000000000E+00 0. -1.
         11    1    3    3    0    0 -0.27842610685E+01 -0.55825326891E+01  0.48324805944E+01  0.78911120812E+01  0.51100000000E-03 0. -1.
        -11    1    3    3    0    0 -0.13844213907E+02  0.42306057112E+00  0.24971079855E+01  0.14073975540E+02  0.51100000000E-03 0.  1.
        -12    1    3    3    0    0 -0.17689933610E+02 -0.17835868976E+02  0.59777202450E+01  0.25822182568E+02  0.00000000000E+00 0.  1.
</event>
<event>
 7    1  0.1246400E-009  0.4778727E+02  0.7816164E-02  0.1312668E+00
        -11   -1    0    0    0    0  0.00000000000E+00  0.00000000000E+00  0.45593999997E+02  0.45594000000E+02  0.51100000000E-03 0.  1.
         11   -1    0    0    0    0 -0.00000000000E+00 -0.00000000000E+00 -0.45593999997E+02  0.45594000000E+02  0.51100000000E-03 0. -1.
    9900012    2    1    2    0    0  0.32465504868E+02  0.63962843952E+01  0.28083842840E+02  0.47787266261E+02  0.19999978191E+02 0.  0.
         12    1    1    2    0    0 -0.32465504868E+02 -0.63962843952E+01 -0.28083842840E+02  0.43400733739E+02  0.00000000000E+00 0. -1.
         11    1    3    3    0    0 -0.22054514477E+00 -0.27760641154E+01  0.66535517393E+01  0.72128304530E+01  0.51100000000E-03 0. -1.
        -11    1    3    3    0    0  0.17064285594E+02  0.72757451014E+01  0.96028247726E+01  0.20888766203E+02  0.51100000000E-03 0.  1.
        -12    1    3    3    0    0  0.15621764419E+02  0.18966034092E+01  0.11827466328E+02  0.19685669605E+02  0.00000000000E+00 0.  1.
</event>
<event>
 7    1  0.1246400E-009  0.4778727E+02  0.7816164E-02  0.1312668E+00
        -11   -1    0    0    0    0  0.00000000000E+00  0.00000000000E+00  0.45593999997E+02  0.45594000000E+02  0.51100000000E-03 0.  1.
         11   -1    0    0    0    0 -0.00000000000E+00 -0.00000000000E+00 -0.45593999997E+02  0.45594000000E+02  0.51100000000E-03 0. -1.
    9900012    2    1    2    0    0  0.31649597895E+02 -0.28586170134E+02  0.80471713796E+01  0.47787272621E+02  0.20000007187E+02 0.  0.
         12    1    1    2    0    0 -0.31649597895E+02  0.28586170134E+02 -0.80471713796E+01  0.43400727379E+02  0.00000000000E+00 0. -1.
         11    1    3    3    0    0 -0.20413470679E+01 -0.19176255933E+00 -0.13120384835E+01  0.24341971930E+01  0.51100000000E-03 0. -1.
        -11    1    3    3    0    0  0.14423177158E+02 -0.12024778833E+02  0.13265435200E+01  0.18825064761E+02  0.51100000000E-03 0.  1.
         12    1    3    3    0    0  0.19267767805E+02 -0.16369628742E+02  0.80326663431E+01  0.26528010666E+02  0.00000000000E+00 0. -1.
</event>
<event>
 7    1  0.1246400E-009  0.4778727E+02  0.7816164E-02  0.1312668E+00
        -11   -1    0    0    0    0  0.00000000000E+00  0.00000000000E+00  0.45593999997E+02  0.45594000000E+02  0.51100000000E-03 0.  1.
         11   -1    0    0    0    0 -0.00000000000E+00 -0.00000000000E+00 -0.45593999997E+02  0.45594000000E+02  0.51100000000E-03 0. -1.
    9900012    2    1    2    0    0 -0.24760225976E+01  0.27387053878E+02  0.33577403531E+02  0.47787269178E+02  0.19999991489E+02 0.  0.
         12    1    1    2    0    0  0.24760225976E+01 -0.27387053878E+02 -0.33577403531E+02  0.43400730822E+02  0.00000000000E+00 0. -1.
         11    1    3    3    0    0  0.10769775734E+01  0.15187157504E+02  0.56821856498E+01  0.16251057435E+02  0.51100000000E-03 0. -1.
        -11    1    3    3    0    0  0.20999427742E+01  0.35655397556E+01  0.10822937182E+02  0.11587010093E+02  0.51100000000E-03 0.  1.
         12    1    3    3    0    0 -0.56529429453E+01  0.86343566183E+01  0.17072280700E+02  0.19949201650E+02  0.00000000000E+00 0. -1.
</event>
<event>
 7    1  0.1246400E-009  0.4778727E+02  0.7816164E-02  0.1312668E+00
        -11   -1    0    0    0    0  0.00000000000E+00  0.00000000000E+00  0.45593999997E+02  0.45594000000E+02  0.51100000000E-03 0.  1.
         11   -1    0    0    0    0 -0.00000000000E+00 -0.00000000000E+00 -0.45593999997E+02  0.45594000000E+02  0.51100000000E-03 0. -1.
    9900012    2    1    2    0    0  0.19466688185E+02 -0.15791348888E+02  0.35430277234E+02  0.47787271971E+02  0.20000004223E+02 0.  0.
         12    1    1    2    0    0 -0.19466688185E+02  0.15791348888E+02 -0.35430277234E+02  0.43400728029E+02  0.00000000000E+00 0. -1.
         11    1    3    3    0    0  0.14961937430E+02 -0.69614724494E+01  0.17664806567E+02  0.24173685313E+02  0.51100000000E-03 0. -1.
        -11    1    3    3    0    0  0.10615493990E+01  0.21342434890E+01  0.85703033472E+01  0.88956158933E+01  0.51100000000E-03 0.  1.
         12    1    3    3    0    0  0.34432013560E+01 -0.10964119927E+02  0.91951673204E+01  0.14717970764E+02  0.00000000000E+00 0. -1.
</event>
<event>
 7    1  0.1246400E-009  0.4778727E+02  0.7816164E-02  0.1312668E+00
        -11   -1    0    0    0    0  0.00000000000E+00  0.00000000000E+00  0.45593999997E+02  0.45594000000E+02  0.51100000000E-03 0.  1.
         11   -1    0    0    0    0 -0.00000000000E+00 -0.00000000000E+00 -0.45593999997E+02  0.45594000000E+02  0.51100000000E-03 0. -1.
    9900012    2    1    2    0    0 -0.14589417039E+02 -0.38658751974E+02  0.13276785287E+02  0.47787271651E+02  0.20000002763E+02 0.  0.
         12    1    1    2    0    0  0.14589417039E+02  0.38658751974E+02 -0.13276785287E+02  0.43400728349E+02  0.00000000000E+00 0. -1.
         11    1    3    3    0    0  0.14532693543E+01 -0.34685583686E+01 -0.29448881699E+01  0.47765317508E+01  0.51100000000E-03 0. -1.
        -11    1    3    3    0    0 -0.57692984182E+01 -0.19496967509E+02  0.42894540356E+01  0.20780181964E+02  0.51100000000E-03 0.  1.
         12    1    3    3    0    0 -0.10273387975E+02 -0.15693226096E+02  0.11932219422E+02  0.22230557935E+02  0.00000000000E+00 0. -1.
</event>
<event>
 7    1  0.1246400E-009  0.4778727E+02  0.7816164E-02  0.1312668E+00
        -11   -1    0    0    0    0  0.00000000000E+00  0.00000000000E+00  0.45593999997E+02  0.45594000000E+02  0.51100000000E-03 0.  1.
         11   -1    0    0    0    0 -0.00000000000E+00 -0.00000000000E+00 -0.45593999997E+02  0.45594000000E+02  0.51100000000E-03 0. -1.
    9900012    2    1    2    0    0 -0.36162499639E+02  0.96615748755E+00  0.23978391903E+02  0.47787272832E+02  0.20000008151E+02 0.  0.
         12    1    1    2    0    0  0.36162499639E+02 -0.96615748755E+00 -0.23978391903E+02  0.43400727168E+02  0.00000000000E+00 0. -1.
         11    1    3    3    0    0 -0.45711384578E+01 -0.20157536248E+01  0.93883711232E+01  0.10634852236E+02  0.51100000000E-03 0. -1.
        -11    1    3    3    0    0 -0.67348123979E+01  0.60760074528E+01  0.30116297085E+01  0.95574828466E+01  0.51100000000E-03 0.  1.
        -12    1    3    3    0    0 -0.24856548783E+02 -0.30940963405E+01  0.11578391071E+02  0.27594937749E+02  0.00000000000E+00 0.  1.
</event>
<event>
 7    1  0.1246400E-009  0.4778727E+02  0.7816164E-02  0.1312668E+00
        -11   -1    0    0    0    0  0.00000000000E+00  0.00000000000E+00  0.45593999997E+02  0.45594000000E+02  0.51100000000E-03 0.  1.
         11   -1    0    0    0    0 -0.00000000000E+00 -0.00000000000E+00 -0.45593999997E+02  0.45594000000E+02  0.51100000000E-03 0. -1.
    9900012    2    1    2    0    0 -0.11176817277E+02  0.38932525921E+02 -0.15587186259E+02  0.47787271959E+02  0.20000004168E+02 0.  0.
         12    1    1    2    0    0  0.11176817277E+02 -0.38932525921E+02  0.15587186259E+02  0.43400728041E+02  0.00000000000E+00 0. -1.
         11    1    3    3    0    0 -0.31264051325E+01  0.21785181534E+02 -0.10868474368E+02  0.24545718138E+02  0.51100000000E-03 0. -1.
        -11    1    3    3    0    0 -0.66485116966E+01  0.13463297055E+02  0.23011333994E+01  0.15190730416E+02  0.51100000000E-03 0.  1.
         12    1    3    3    0    0 -0.14019004478E+01  0.36840473316E+01 -0.70198452901E+01  0.80508234053E+01  0.00000000000E+00 0. -1.
</event>
<event>
 7    1  0.1246400E-009  0.4778727E+02  0.7816164E-02  0.1312668E+00
        -11   -1    0    0    0    0  0.00000000000E+00  0.00000000000E+00  0.45593999997E+02  0.45594000000E+02  0.51100000000E-03 0. -1.
         11   -1    0    0    0    0 -0.00000000000E+00 -0.00000000000E+00 -0.45593999997E+02  0.45594000000E+02  0.51100000000E-03 0.  1.
    9900012    2    1    2    0    0  0.40509703504E+02  0.15553770582E+02  0.81691342535E+00  0.47787271840E+02  0.20000003628E+02 0.  0.
         12    1    1    2    0    0 -0.40509703504E+02 -0.15553770582E+02 -0.81691342535E+00  0.43400728160E+02  0.00000000000E+00 0. -1.
         11    1    3    3    0    0  0.39312787794E+02  0.83178638187E+01  0.17570873059E+01  0.40221505426E+02  0.51100000000E-03 0. -1.
        -11    1    3    3    0    0  0.12681444319E+01  0.31628509190E+01 -0.11620458599E+00  0.34095923515E+01  0.51100000000E-03 0.  1.
         12    1    3    3    0    0 -0.71228722622E-01  0.40730558443E+01 -0.82396929461E+00  0.41561740628E+01  0.00000000000E+00 0. -1.
</event>
<event>
 7    1  0.1246400E-009  0.4778724E+02  0.7816164E-02  0.1312668E+00
        -11   -1    0    0    0    0  0.00000000000E+00  0.00000000000E+00  0.45593999997E+02  0.45594000000E+02  0.51100000000E-03 0. -1.
         11   -1    0    0    0    0 -0.00000000000E+00 -0.00000000000E+00 -0.45593999997E+02  0.45594000000E+02  0.51100000000E-03 0.  1.
    9900012    2    1    2    0    0  0.19872241689E+02  0.51505606397E+01 -0.38238616434E+02  0.47787239045E+02  0.19999854102E+02 0.  0.
         12    1    1    2    0    0 -0.19872241689E+02 -0.51505606397E+01  0.38238616434E+02  0.43400760955E+02  0.00000000000E+00 0. -1.
         11    1    3    3    0    0 -0.69129138918E+00 -0.14507174720E+01 -0.30460427189E+01  0.34439572406E+01  0.51100000000E-03 0. -1.
        -11    1    3    3    0    0  0.17369276729E+02  0.11712299677E+02 -0.27125281477E+02  0.34273176586E+02  0.51100000000E-03 0.  1.
        -12    1    3    3    0    0  0.31942563491E+01 -0.51110215651E+01 -0.80672922378E+01  0.10070105219E+02  0.00000000000E+00 0.  1.
</event>
<event>
 7    1  0.1246400E-009  0.4778727E+02  0.7816164E-02  0.1312668E+00
        -11   -1    0    0    0    0  0.00000000000E+00  0.00000000000E+00  0.45593999997E+02  0.45594000000E+02  0.51100000000E-03 0.  1.
         11   -1    0    0    0    0 -0.00000000000E+00 -0.00000000000E+00 -0.45593999997E+02  0.45594000000E+02  0.51100000000E-03 0. -1.
    9900012    2    1    2    0    0  0.25423569985E+02  0.17715138227E+02  0.30388137547E+02  0.47787274928E+02  0.20000017708E+02 0.  0.
         12    1    1    2    0    0 -0.25423569985E+02 -0.17715138227E+02 -0.30388137547E+02  0.43400725072E+02  0.00000000000E+00 0. -1.
         11    1    3    3    0    0  0.14012852057E+02  0.16944978082E+02  0.23667627456E+02  0.32305555166E+02  0.51100000000E-03 0. -1.
        -11    1    3    3    0    0  0.10599723871E+02  0.19965488272E+01  0.80818267534E+01  0.13477992332E+02  0.51100000000E-03 0.  1.
         12    1    3    3    0    0  0.81099405772E+00 -0.12263886816E+01 -0.13613166625E+01  0.20037274305E+01  0.00000000000E+00 0. -1.
</event>
<event>
 7    1  0.1246400E-009  0.4778727E+02  0.7816164E-02  0.1312668E+00
        -11   -1    0    0    0    0  0.00000000000E+00  0.00000000000E+00  0.45593999997E+02  0.45594000000E+02  0.51100000000E-03 0. -1.
         11   -1    0    0    0    0 -0.00000000000E+00 -0.00000000000E+00 -0.45593999997E+02  0.45594000000E+02  0.51100000000E-03 0.  1.
    9900012    2    1    2    0    0  0.17116199696E+02 -0.38652587370E+02 -0.98303783400E+01  0.47787272578E+02  0.20000006992E+02 0.  0.
         12    1    1    2    0    0 -0.17116199696E+02  0.38652587370E+02  0.98303783400E+01  0.43400727422E+02  0.00000000000E+00 0. -1.
         11    1    3    3    0    0  0.53385623855E+01 -0.28959943432E+01 -0.20884326921E+01  0.64225059712E+01  0.51100000000E-03 0. -1.
        -11    1    3    3    0    0  0.14929737725E+02 -0.24434276838E+02 -0.34004673615E+01  0.28835639956E+02  0.51100000000E-03 0.  1.
        -12    1    3    3    0    0 -0.31521004149E+01 -0.11322316189E+02 -0.43414782865E+01  0.12529126650E+02  0.00000000000E+00 0.  1.
</event>
<event>
 7    1  0.1246400E-009  0.4778725E+02  0.7816164E-02  0.1312668E+00
        -11   -1    0    0    0    0  0.00000000000E+00  0.00000000000E+00  0.45593999997E+02  0.45594000000E+02  0.51100000000E-03 0.  1.
         11   -1    0    0    0    0 -0.00000000000E+00 -0.00000000000E+00 -0.45593999997E+02  0.45594000000E+02  0.51100000000E-03 0. -1.
    9900012    2    1    2    0    0 -0.39804135203E+02  0.37149983545E+01  0.16895398859E+02  0.47787252373E+02  0.19999914868E+02 0.  0.
         12    1    1    2    0    0  0.39804135203E+02 -0.37149983545E+01 -0.16895398859E+02  0.43400747627E+02  0.00000000000E+00 0. -1.
         11    1    3    3    0    0 -0.34130695478E+01  0.70491224727E-01 -0.13027564477E+01  0.36539276640E+01  0.51100000000E-03 0. -1.
        -11    1    3    3    0    0 -0.25822346018E+02  0.75598862061E+01  0.18836692871E+02  0.32844579947E+02  0.51100000000E-03 0.  1.
        -12    1    3    3    0    0 -0.10568719637E+02 -0.39153790763E+01 -0.63853756430E+00  0.11288744762E+02  0.00000000000E+00 0.  1.
</event>
<event>
 7    1  0.1246400E-009  0.4778727E+02  0.7816164E-02  0.1312668E+00
        -11   -1    0    0    0    0  0.00000000000E+00  0.00000000000E+00  0.45593999997E+02  0.45594000000E+02  0.51100000000E-03 0.  1.
         11   -1    0    0    0    0 -0.00000000000E+00 -0.00000000000E+00 -0.45593999997E+02  0.45594000000E+02  0.51100000000E-03 0. -1.
    9900012    2    1    2    0    0  0.19072462923E+02 -0.14474202898E+02  0.36198921326E+02  0.47787270782E+02  0.19999998804E+02 0.  0.
         12    1    1    2    0    0 -0.19072462923E+02  0.14474202898E+02 -0.36198921326E+02  0.43400729218E+02  0.00000000000E+00 0. -1.
         11    1    3    3    0    0  0.85470864192E+01  0.18356466894E+01  0.14560331536E+02  0.16983095705E+02  0.51100000000E-03 0. -1.
        -11    1    3    3    0    0 -0.14789890908E+01 -0.55452462068E+01  0.46965908615E+01  0.74158701584E+01  0.51100000000E-03 0.  1.
        -12    1    3    3    0    0  0.12004365595E+02 -0.10764603381E+02  0.16941998928E+02  0.23388304919E+02  0.00000000000E+00 0.  1.
</event>
<event>
 7    1  0.1246400E-009  0.4778724E+02  0.7816164E-02  0.1312668E+00
        -11   -1    0    0    0    0  0.00000000000E+00  0.00000000000E+00  0.45593999997E+02  0.45594000000E+02  0.51100000000E-03 0. -1.
         11   -1    0    0    0    0 -0.00000000000E+00 -0.00000000000E+00 -0.45593999997E+02  0.45594000000E+02  0.51100000000E-03 0.  1.
    9900012    2    1    2    0    0  0.35671469156E+02  0.17901704536E+02 -0.17049968635E+02  0.47787237708E+02  0.19999848006E+02 0.  0.
         12    1    1    2    0    0 -0.35671469156E+02 -0.17901704536E+02  0.17049968635E+02  0.43400762292E+02  0.00000000000E+00 0. -1.
         11    1    3    3    0    0  0.11821672802E+01  0.45879305164E+01 -0.72750350885E+00  0.47933169641E+01  0.51100000000E-03 0. -1.
        -11    1    3    3    0    0  0.12762557310E+02 -0.22475700395E+01 -0.39763833611E+01  0.13555296569E+02  0.51100000000E-03 0.  1.
        -12    1    3    3    0    0  0.21726744566E+02  0.15561344059E+02 -0.12346081765E+02  0.29438624175E+02  0.00000000000E+00 0.  1.
</event>
<event>
 7    1  0.1246400E-009  0.4778727E+02  0.7816164E-02  0.1312668E+00
        -11   -1    0    0    0    0  0.00000000000E+00  0.00000000000E+00  0.45593999997E+02  0.45594000000E+02  0.51100000000E-03 0. -1.
         11   -1    0    0    0    0 -0.00000000000E+00 -0.00000000000E+00 -0.45593999997E+02  0.45594000000E+02  0.51100000000E-03 0.  1.
    9900012    2    1    2    0    0  0.19589074944E+02  0.15073581940E+02 -0.35674623344E+02  0.47787268665E+02  0.19999989152E+02 0.  0.
         12    1    1    2    0    0 -0.19589074944E+02 -0.15073581940E+02  0.35674623344E+02  0.43400731335E+02  0.00000000000E+00 0. -1.
         11    1    3    3    0    0  0.35683952262E+01  0.45202410457E+01 -0.59703825333E+01  0.82952692215E+01  0.51100000000E-03 0. -1.
        -11    1    3    3    0    0  0.81890544797E+01  0.14855989884E+02 -0.21252344879E+02  0.27192337374E+02  0.51100000000E-03 0.  1.
         12    1    3    3    0    0  0.78316252380E+01 -0.43026489901E+01 -0.84518959314E+01  0.12299662070E+02  0.00000000000E+00 0. -1.
</event>
<event>
 7    1  0.1246400E-009  0.4778727E+02  0.7816164E-02  0.1312668E+00
        -11   -1    0    0    0    0  0.00000000000E+00  0.00000000000E+00  0.45593999997E+02  0.45594000000E+02  0.51100000000E-03 0. -1.
         11   -1    0    0    0    0 -0.00000000000E+00 -0.00000000000E+00 -0.45593999997E+02  0.45594000000E+02  0.51100000000E-03 0.  1.
    9900012    2    1    2    0    0 -0.16314571896E+02 -0.17474480048E+02 -0.36222927520E+02  0.47787272043E+02  0.20000004552E+02 0.  0.
         12    1    1    2    0    0  0.16314571896E+02  0.17474480048E+02  0.36222927520E+02  0.43400727957E+02  0.00000000000E+00 0. -1.
         11    1    3    3    0    0 -0.55878955701E+01 -0.99566281294E+01 -0.50729999576E+01  0.12493772426E+02  0.51100000000E-03 0. -1.
        -11    1    3    3    0    0 -0.65189056192E+01  0.32814198188E+00 -0.70793579258E+01  0.96291804706E+01  0.51100000000E-03 0.  1.
         12    1    3    3    0    0 -0.42077707068E+01 -0.78459939003E+01 -0.24070569636E+02  0.25664319146E+02  0.00000000000E+00 0. -1.
</event>
<event>
 7    1  0.1246400E-009  0.4778727E+02  0.7816164E-02  0.1312668E+00
        -11   -1    0    0    0    0  0.00000000000E+00  0.00000000000E+00  0.45593999997E+02  0.45594000000E+02  0.51100000000E-03 0.  1.
         11   -1    0    0    0    0 -0.00000000000E+00 -0.00000000000E+00 -0.45593999997E+02  0.45594000000E+02  0.51100000000E-03 0. -1.
    9900012    2    1    2    0    0  0.42732853033E+02  0.11603822422E+01  0.74953547427E+01  0.47787267771E+02  0.19999985077E+02 0.  0.
         12    1    1    2    0    0 -0.42732853033E+02 -0.11603822422E+01 -0.74953547427E+01  0.43400732229E+02  0.00000000000E+00 0. -1.
         11    1    3    3    0    0  0.26576782190E+02 -0.88077253381E+00  0.13884170530E+02  0.29997854980E+02  0.51100000000E-03 0. -1.
        -11    1    3    3    0    0  0.55665661776E+01  0.12182315076E+01 -0.70197815276E+00  0.57413866447E+01  0.51100000000E-03 0.  1.
         12    1    3    3    0    0  0.10589504665E+02  0.82292326839E+00 -0.56868376342E+01  0.12048026146E+02  0.00000000000E+00 0. -1.
</event>
<event>
 7    1  0.1246400E-009  0.4778727E+02  0.7816164E-02  0.1312668E+00
        -11   -1    0    0    0    0  0.00000000000E+00  0.00000000000E+00  0.45593999997E+02  0.45594000000E+02  0.51100000000E-03 0.  1.
         11   -1    0    0    0    0 -0.00000000000E+00 -0.00000000000E+00 -0.45593999997E+02  0.45594000000E+02  0.51100000000E-03 0. -1.
    9900012    2    1    2    0    0  0.37190945892E+02 -0.21300354045E+02  0.68375484729E+01  0.47787267196E+02  0.19999982455E+02 0.  0.
         12    1    1    2    0    0 -0.37190945892E+02  0.21300354045E+02 -0.68375484729E+01  0.43400732804E+02  0.00000000000E+00 0. -1.
         11    1    3    3    0    0  0.11464535153E+02  0.12137642750E+01  0.20629859756E+01  0.11711733492E+02  0.51100000000E-03 0. -1.
        -11    1    3    3    0    0  0.21635666527E+02 -0.13301265948E+02  0.54397748608E+01  0.25973388163E+02  0.51100000000E-03 0.  1.
         12    1    3    3    0    0  0.40907442116E+01 -0.92128523726E+01 -0.66521236345E+00  0.10102145541E+02  0.00000000000E+00 0. -1.
</event>
<event>
 7    1  0.1246400E-009  0.4778727E+02  0.7816164E-02  0.1312668E+00
        -11   -1    0    0    0    0  0.00000000000E+00  0.00000000000E+00  0.45593999997E+02  0.45594000000E+02  0.51100000000E-03 0.  1.
         11   -1    0    0    0    0 -0.00000000000E+00 -0.00000000000E+00 -0.45593999997E+02  0.45594000000E+02  0.51100000000E-03 0. -1.
    9900012    2    1    2    0    0  0.43385591189E+01 -0.14012383775E+02  0.40846702645E+02  0.47787272918E+02  0.20000008540E+02 0.  0.
         12    1    1    2    0    0 -0.43385591189E+01  0.14012383775E+02 -0.40846702645E+02  0.43400727082E+02  0.00000000000E+00 0. -1.
         11    1    3    3    0    0 -0.97405184776E+00 -0.13618150659E+02  0.17859900117E+02  0.22480632482E+02  0.51100000000E-03 0. -1.
        -11    1    3    3    0    0  0.31350434641E-02  0.33914681906E+01  0.40720963291E+01  0.52994372428E+01  0.51100000000E-03 0.  1.
        -12    1    3    3    0    0  0.53094759232E+01 -0.37857013072E+01  0.18914706199E+02  0.20007203192E+02  0.00000000000E+00 0.  1.
</event>
<event>
 7    1  0.1246400E-009  0.4778728E+02  0.7816164E-02  0.1312668E+00
        -11   -1    0    0    0    0  0.00000000000E+00  0.00000000000E+00  0.45593999997E+02  0.45594000000E+02  0.51100000000E-03 0. -1.
         11   -1    0    0    0    0 -0.00000000000E+00 -0.00000000000E+00 -0.45593999997E+02  0.45594000000E+02  0.51100000000E-03 0.  1.
    9900012    2    1    2    0    0  0.32156326406E+02 -0.10517143456E+02 -0.27184245627E+02  0.47787275988E+02  0.20000022541E+02 0.  0.
         12    1    1    2    0    0 -0.32156326406E+02  0.10517143456E+02  0.27184245627E+02  0.43400724012E+02  0.00000000000E+00 0. -1.
         11    1    3    3    0    0  0.25697599718E+02 -0.97805793349E+00 -0.17767893135E+02  0.31257339223E+02  0.51100000000E-03 0. -1.
        -11    1    3    3    0    0  0.24134167184E+01 -0.29325464760E+01 -0.77142291573E+01  0.85984731693E+01  0.51100000000E-03 0.  1.
         12    1    3    3    0    0  0.40453099704E+01 -0.66065390464E+01 -0.17021233344E+01  0.79314635960E+01  0.00000000000E+00 0. -1.
</event>
<event>
 7    1  0.1246400E-009  0.4778727E+02  0.7816164E-02  0.1312668E+00
        -11   -1    0    0    0    0  0.00000000000E+00  0.00000000000E+00  0.45593999997E+02  0.45594000000E+02  0.51100000000E-03 0. -1.
         11   -1    0    0    0    0 -0.00000000000E+00 -0.00000000000E+00 -0.45593999997E+02  0.45594000000E+02  0.51100000000E-03 0.  1.
    9900012    2    1    2    0    0  0.11732381160E+02  0.20373477838E+02 -0.36481446952E+02  0.47787270298E+02  0.19999996598E+02 0.  0.
         12    1    1    2    0    0 -0.11732381160E+02 -0.20373477838E+02  0.36481446952E+02  0.43400729702E+02  0.00000000000E+00 0. -1.
         11    1    3    3    0    0  0.28635050152E+01  0.13714714121E+02 -0.12308616332E+02  0.18649264882E+02  0.51100000000E-03 0. -1.
        -11    1    3    3    0    0  0.10715229036E+02  0.75896534310E+01 -0.23575665784E+02  0.26985755315E+02  0.51100000000E-03 0.  1.
        -12    1    3    3    0    0 -0.18463528910E+01 -0.93088971331E+00 -0.59716483617E+00  0.21522501012E+01  0.00000000000E+00 0.  1.
</event>
<event>
 7    1  0.1246400E-009  0.4778727E+02  0.7816164E-02  0.1312668E+00
        -11   -1    0    0    0    0  0.00000000000E+00  0.00000000000E+00  0.45593999997E+02  0.45594000000E+02  0.51100000000E-03 0.  1.
         11   -1    0    0    0    0 -0.00000000000E+00 -0.00000000000E+00 -0.45593999997E+02  0.45594000000E+02  0.51100000000E-03 0. -1.
    9900012    2    1    2    0    0  0.37672452709E+02 -0.21491818850E+02  0.15847853768E+01  0.47787268264E+02  0.19999987321E+02 0.  0.
         12    1    1    2    0    0 -0.37672452709E+02  0.21491818850E+02 -0.15847853768E+01  0.43400731736E+02  0.00000000000E+00 0. -1.
         11    1    3    3    0    0  0.10960488293E+02 -0.70642897609E+01 -0.19219319235E+01  0.13180679650E+02  0.51100000000E-03 0. -1.
        -11    1    3    3    0    0  0.97467406227E+01 -0.97628081294E+01  0.86407397237E+01  0.16278014577E+02  0.51100000000E-03 0.  1.
         12    1    3    3    0    0  0.16965223793E+02 -0.46647209593E+01 -0.51340224235E+01  0.18328574037E+02  0.00000000000E+00 0. -1.
</event>
<event>
 7    1  0.1246400E-009  0.4778727E+02  0.7816164E-02  0.1312668E+00
        -11   -1    0    0    0    0  0.00000000000E+00  0.00000000000E+00  0.45593999997E+02  0.45594000000E+02  0.51100000000E-03 0.  1.
         11   -1    0    0    0    0 -0.00000000000E+00 -0.00000000000E+00 -0.45593999997E+02  0.45594000000E+02  0.51100000000E-03 0. -1.
    9900012    2    1    2    0    0 -0.43296926600E+02  0.21301474155E+01  0.21123401338E+01  0.47787270031E+02  0.19999995380E+02 0.  0.
         12    1    1    2    0    0  0.43296926600E+02 -0.21301474155E+01 -0.21123401338E+01  0.43400729969E+02  0.00000000000E+00 0. -1.
         11    1    3    3    0    0  0.52064010239E+00  0.77301672214E+00 -0.10088013353E+00  0.93744228163E+00  0.51100000000E-03 0. -1.
        -11    1    3    3    0    0  0.11104138045E+01  0.48152920380E+00 -0.12999865085E+01  0.17761909736E+01  0.51100000000E-03 0.  1.
        -12    1    3    3    0    0 -0.44927980506E+02  0.87560148957E+00  0.35132067758E+01  0.45073636776E+02  0.00000000000E+00 0.  1.
</event>
<event>
 7    1  0.1246400E-009  0.4778727E+02  0.7816164E-02  0.1312668E+00
        -11   -1    0    0    0    0  0.00000000000E+00  0.00000000000E+00  0.45593999997E+02  0.45594000000E+02  0.51100000000E-03 0.  1.
         11   -1    0    0    0    0 -0.00000000000E+00 -0.00000000000E+00 -0.45593999997E+02  0.45594000000E+02  0.51100000000E-03 0. -1.
    9900012    2    1    2    0    0 -0.20091487013E+01 -0.13341222562E+02  0.41250431780E+02  0.47787273969E+02  0.20000013336E+02 0.  0.
         12    1    1    2    0    0  0.20091487013E+01  0.13341222562E+02 -0.41250431780E+02  0.43400726031E+02  0.00000000000E+00 0. -1.
         11    1    3    3    0    0 -0.17550490702E+01 -0.79538832147E+01  0.46983092558E+01  0.94031146731E+01  0.51100000000E-03 0. -1.
        -11    1    3    3    0    0 -0.44014142022E+01 -0.57876403228E+01  0.27018998884E+02  0.27980270342E+02  0.51100000000E-03 0.  1.
         12    1    3    3    0    0  0.41473145711E+01  0.40030097518E+00  0.95331236406E+01  0.10403888954E+02  0.00000000000E+00 0. -1.
</event>
<event>
 7    1  0.1246400E-009  0.4778727E+02  0.7816164E-02  0.1312668E+00
        -11   -1    0    0    0    0  0.00000000000E+00  0.00000000000E+00  0.45593999997E+02  0.45594000000E+02  0.51100000000E-03 0.  1.
         11   -1    0    0    0    0 -0.00000000000E+00 -0.00000000000E+00 -0.45593999997E+02  0.45594000000E+02  0.51100000000E-03 0. -1.
    9900012    2    1    2    0    0  0.31300473811E+02 -0.18727441167E+02  0.23519917029E+02  0.47787271774E+02  0.20000003329E+02 0.  0.
         12    1    1    2    0    0 -0.31300473811E+02  0.18727441167E+02 -0.23519917029E+02  0.43400728226E+02  0.00000000000E+00 0. -1.
         11    1    3    3    0    0  0.11844162706E+02 -0.11974959765E+02  0.39317817954E+01  0.17295743983E+02  0.51100000000E-03 0. -1.
        -11    1    3    3    0    0  0.14277665708E+02 -0.91001373540E-01  0.87112114254E+01  0.16725585911E+02  0.51100000000E-03 0.  1.
         12    1    3    3    0    0  0.51786453971E+01 -0.66614800290E+01  0.10876923808E+02  0.13765941880E+02  0.00000000000E+00 0. -1.
</event>
<event>
 7    1  0.1246400E-009  0.4778727E+02  0.7816164E-02  0.1312668E+00
        -11   -1    0    0    0    0  0.00000000000E+00  0.00000000000E+00  0.45593999997E+02  0.45594000000E+02  0.51100000000E-03 0.  1.
         11   -1    0    0    0    0 -0.00000000000E+00 -0.00000000000E+00 -0.45593999997E+02  0.45594000000E+02  0.51100000000E-03 0. -1.
    9900012    2    1    2    0    0  0.16697519416E+01  0.41487466517E+02  0.12634290059E+02  0.47787271494E+02  0.20000002050E+02 0.  0.
         12    1    1    2    0    0 -0.16697519416E+01 -0.41487466517E+02 -0.12634290059E+02  0.43400728506E+02  0.00000000000E+00 0. -1.
         11    1    3    3    0    0  0.31419982492E+01  0.20457164471E+02  0.10040482583E+02  0.23003891453E+02  0.51100000000E-03 0.  1.
        -11    1    3    3    0    0  0.11846134873E+01  0.19094425174E+02 -0.18892716926E+01  0.19224196463E+02  0.51100000000E-03 0. -1.
         12    1    3    3    0    0 -0.26568597949E+01  0.19358768718E+01  0.44830791682E+01  0.55591835786E+01  0.00000000000E+00 0. -1.
</event>
<event>
 7    1  0.1246400E-009  0.4778726E+02  0.7816164E-02  0.1312668E+00
        -11   -1    0    0    0    0  0.00000000000E+00  0.00000000000E+00  0.45593999997E+02  0.45594000000E+02  0.51100000000E-03 0.  1.
         11   -1    0    0    0    0 -0.00000000000E+00 -0.00000000000E+00 -0.45593999997E+02  0.45594000000E+02  0.51100000000E-03 0. -1.
    9900012    2    1    2    0    0  0.17287302858E+02  0.30869626708E+02 -0.25136419424E+02  0.47787259515E+02  0.19999947431E+02 0.  0.
         12    1    1    2    0    0 -0.17287302858E+02 -0.30869626708E+02  0.25136419424E+02  0.43400740485E+02  0.00000000000E+00 0. -1.
         11    1    3    3    0    0  0.37212189934E+01 -0.54939661047E+00 -0.61822558179E+00  0.38120218472E+01  0.51100000000E-03 0. -1.
        -11    1    3    3    0    0  0.44511659881E+01  0.16410665820E+02 -0.50057512003E+01  0.17725134038E+02  0.51100000000E-03 0.  1.
         12    1    3    3    0    0  0.91149178766E+01  0.15008357498E+02 -0.19512442642E+02  0.26250103629E+02  0.00000000000E+00 0. -1.
</event>
<event>
 7    1  0.1246400E-009  0.4778727E+02  0.7816164E-02  0.1312668E+00
        -11   -1    0    0    0    0  0.00000000000E+00  0.00000000000E+00  0.45593999997E+02  0.45594000000E+02  0.51100000000E-03 0.  1.
         11   -1    0    0    0    0 -0.00000000000E+00 -0.00000000000E+00 -0.45593999997E+02  0.45594000000E+02  0.51100000000E-03 0. -1.
    9900012    2    1    2    0    0 -0.34868483547E+02 -0.14253198181E+02  0.21555940646E+02  0.47787269817E+02  0.19999994405E+02 0.  0.
         12    1    1    2    0    0  0.34868483547E+02  0.14253198181E+02 -0.21555940646E+02  0.43400730183E+02  0.00000000000E+00 0. -1.
         11    1    3    3    0    0 -0.12320111595E+02  0.22221067602E+01  0.77070100051E+01  0.14701051379E+02  0.51100000000E-03 0. -1.
        -11    1    3    3    0    0 -0.17516946203E+02 -0.93710342955E+01  0.14126015173E+02  0.24376299821E+02  0.51100000000E-03 0.  1.
         12    1    3    3    0    0 -0.50314257492E+01 -0.71042706453E+01 -0.27708453240E+00  0.87099186167E+01  0.00000000000E+00 0. -1.
</event>
<event>
 7    1  0.1246400E-009  0.4778726E+02  0.7816164E-02  0.1312668E+00
        -11   -1    0    0    0    0  0.00000000000E+00  0.00000000000E+00  0.45593999997E+02  0.45594000000E+02  0.51100000000E-03 0.  1.
         11   -1    0    0    0    0 -0.00000000000E+00 -0.00000000000E+00 -0.45593999997E+02  0.45594000000E+02  0.51100000000E-03 0. -1.
    9900012    2    1    2    0    0  0.57513507828E+01  0.23076239536E+02  0.36304725678E+02  0.47787262985E+02  0.19999963252E+02 0.  0.
         12    1    1    2    0    0 -0.57513507828E+01 -0.23076239536E+02 -0.36304725678E+02  0.43400737015E+02  0.00000000000E+00 0. -1.
         11    1    3    3    0    0  0.28810158443E+01  0.30428951515E+01  0.13661064383E+02  0.14289301716E+02  0.51100000000E-03 0. -1.
        -11    1    3    3    0    0  0.79354420730E+01  0.12141539976E+02  0.94510997327E+01  0.17312178381E+02  0.51100000000E-03 0.  1.
         12    1    3    3    0    0 -0.50651071345E+01  0.78918044081E+01  0.13192561562E+02  0.16185782887E+02  0.00000000000E+00 0. -1.
</event>
<event>
 7    1  0.1246400E-009  0.4778726E+02  0.7816164E-02  0.1312668E+00
        -11   -1    0    0    0    0  0.00000000000E+00  0.00000000000E+00  0.45593999997E+02  0.45594000000E+02  0.51100000000E-03 0.  1.
         11   -1    0    0    0    0 -0.00000000000E+00 -0.00000000000E+00 -0.45593999997E+02  0.45594000000E+02  0.51100000000E-03 0. -1.
    9900012    2    1    2    0    0  0.21419853933E+02  0.12695218869E+02  0.35547785847E+02  0.47787264946E+02  0.19999972193E+02 0.  0.
         12    1    1    2    0    0 -0.21419853933E+02 -0.12695218869E+02 -0.35547785847E+02  0.43400735054E+02  0.00000000000E+00 0. -1.
         11    1    3    3    0    0  0.47324546427E+01  0.28057140864E+00  0.15274871558E+00  0.47432246090E+01  0.51100000000E-03 0.  1.
        -11    1    3    3    0    0  0.40425931638E+00  0.74379368238E+01  0.11560741231E+02  0.13752711292E+02  0.51100000000E-03 0. -1.
        -12    1    3    3    0    0  0.16283139974E+02  0.49767106367E+01  0.23834295900E+02  0.29291329045E+02  0.00000000000E+00 0.  1.
</event>
<event>
 7    1  0.1246400E-009  0.4778727E+02  0.7816164E-02  0.1312668E+00
        -11   -1    0    0    0    0  0.00000000000E+00  0.00000000000E+00  0.45593999997E+02  0.45594000000E+02  0.51100000000E-03 0.  1.
         11   -1    0    0    0    0 -0.00000000000E+00 -0.00000000000E+00 -0.45593999997E+02  0.45594000000E+02  0.51100000000E-03 0. -1.
    9900012    2    1    2    0    0 -0.19073486697E+02  0.62094535679E+01  0.38487246941E+02  0.47787269758E+02  0.19999994136E+02 0.  0.
         12    1    1    2    0    0  0.19073486697E+02 -0.62094535679E+01 -0.38487246941E+02  0.43400730242E+02  0.00000000000E+00 0. -1.
         11    1    3    3    0    0 -0.66431228371E+01  0.10718314718E+01  0.26814411821E+01  0.72436200071E+01  0.51100000000E-03 0. -1.
        -11    1    3    3    0    0 -0.13975904275E+01  0.54855065795E+01  0.41513469480E+01  0.70198093407E+01  0.51100000000E-03 0.  1.
         12    1    3    3    0    0 -0.11032773432E+02 -0.34788448345E+00  0.31654458811E+02  0.33523840410E+02  0.00000000000E+00 0. -1.
</event>
<event>
 7    1  0.1246400E-009  0.4778727E+02  0.7816164E-02  0.1312668E+00
        -11   -1    0    0    0    0  0.00000000000E+00  0.00000000000E+00  0.45593999997E+02  0.45594000000E+02  0.51100000000E-03 0.  1.
         11   -1    0    0    0    0 -0.00000000000E+00 -0.00000000000E+00 -0.45593999997E+02  0.45594000000E+02  0.51100000000E-03 0. -1.
    9900012    2    1    2    0    0 -0.23467925968E+00 -0.24558377935E+01  0.43330558858E+02  0.47787267926E+02  0.19999985782E+02 0.  0.
         12    1    1    2    0    0  0.23467925968E+00  0.24558377935E+01 -0.43330558858E+02  0.43400732074E+02  0.00000000000E+00 0. -1.
         11    1    3    3    0    0  0.13832922681E+01 -0.78484719900E+01  0.65626453856E+01  0.10323774736E+02  0.51100000000E-03 0. -1.
        -11    1    3    3    0    0 -0.24021450708E+01  0.86141259513E+00  0.14947701950E+02  0.15163974625E+02  0.51100000000E-03 0.  1.
        -12    1    3    3    0    0  0.78417354302E+00  0.45312216013E+01  0.21820211522E+02  0.22299518565E+02  0.00000000000E+00 0.  1.
</event>
<event>
 7    1  0.1246400E-009  0.4778727E+02  0.7816164E-02  0.1312668E+00
        -11   -1    0    0    0    0  0.00000000000E+00  0.00000000000E+00  0.45593999997E+02  0.45594000000E+02  0.51100000000E-03 0. -1.
         11   -1    0    0    0    0 -0.00000000000E+00 -0.00000000000E+00 -0.45593999997E+02  0.45594000000E+02  0.51100000000E-03 0.  1.
    9900012    2    1    2    0    0  0.12730429386E+02  0.34820324415E+01 -0.41345313318E+02  0.47787270563E+02  0.19999997806E+02 0.  0.
         12    1    1    2    0    0 -0.12730429386E+02 -0.34820324415E+01  0.41345313318E+02  0.43400729437E+02  0.00000000000E+00 0. -1.
         11    1    3    3    0    0  0.22690832353E+01 -0.39264972941E+01 -0.87567932359E+01  0.98614171277E+01  0.51100000000E-03 0. -1.
        -11    1    3    3    0    0  0.72712734229E+01 -0.30568827885E+01 -0.92937710314E+01  0.12189755117E+02  0.51100000000E-03 0.  1.
        -12    1    3    3    0    0  0.31900727274E+01  0.10465412524E+02 -0.23294749051E+02  0.25736098318E+02  0.00000000000E+00 0.  1.
</event>
<event>
 7    1  0.1246400E-009  0.4778727E+02  0.7816164E-02  0.1312668E+00
        -11   -1    0    0    0    0  0.00000000000E+00  0.00000000000E+00  0.45593999997E+02  0.45594000000E+02  0.51100000000E-03 0.  1.
         11   -1    0    0    0    0 -0.00000000000E+00 -0.00000000000E+00 -0.45593999997E+02  0.45594000000E+02  0.51100000000E-03 0. -1.
    9900012    2    1    2    0    0 -0.33990285737E+02  0.22546252613E+02  0.14830726001E+02  0.47787268842E+02  0.19999989958E+02 0.  0.
         12    1    1    2    0    0  0.33990285737E+02 -0.22546252613E+02 -0.14830726001E+02  0.43400731158E+02  0.00000000000E+00 0. -1.
         11    1    3    3    0    0 -0.10745055076E+01 -0.18976620136E+01  0.45848347585E+00  0.22284278230E+01  0.51100000000E-03 0. -1.
        -11    1    3    3    0    0 -0.30077481778E+02  0.20139718256E+02  0.74979878572E+01  0.36965970617E+02  0.51100000000E-03 0.  1.
        -12    1    3    3    0    0 -0.28382984512E+01  0.43041963706E+01  0.68742546681E+01  0.85928704014E+01  0.00000000000E+00 0.  1.
</event>
<event>
 7    1  0.1246400E-009  0.4778727E+02  0.7816164E-02  0.1312668E+00
        -11   -1    0    0    0    0  0.00000000000E+00  0.00000000000E+00  0.45593999997E+02  0.45594000000E+02  0.51100000000E-03 0.  1.
         11   -1    0    0    0    0 -0.00000000000E+00 -0.00000000000E+00 -0.45593999997E+02  0.45594000000E+02  0.51100000000E-03 0. -1.
    9900012    2    1    2    0    0  0.21305957624E+02 -0.19696849600E+02  0.32275591221E+02  0.47787268404E+02  0.19999987960E+02 0.  0.
         12    1    1    2    0    0 -0.21305957624E+02  0.19696849600E+02 -0.32275591221E+02  0.43400731596E+02  0.00000000000E+00 0. -1.
         11    1    3    3    0    0  0.80639721294E+01 -0.11003503717E+02  0.22488588063E+01  0.13826138533E+02  0.51100000000E-03 0. -1.
        -11    1    3    3    0    0  0.40274701939E+01 -0.27386209582E+01  0.10133457183E+02  0.11243109697E+02  0.51100000000E-03 0.  1.
         12    1    3    3    0    0  0.92145153009E+01 -0.59547249246E+01  0.19893275232E+02  0.22718020173E+02  0.00000000000E+00 0. -1.
</event>
<event>
 7    1  0.1246400E-009  0.4778727E+02  0.7816164E-02  0.1312668E+00
        -11   -1    0    0    0    0  0.00000000000E+00  0.00000000000E+00  0.45593999997E+02  0.45594000000E+02  0.51100000000E-03 0.  1.
         11   -1    0    0    0    0 -0.00000000000E+00 -0.00000000000E+00 -0.45593999997E+02  0.45594000000E+02  0.51100000000E-03 0. -1.
    9900012    2    1    2    0    0  0.98378673319E+01  0.12615446078E+02  0.40344643683E+02  0.47787269738E+02  0.19999994044E+02 0.  0.
         12    1    1    2    0    0 -0.98378673319E+01 -0.12615446078E+02 -0.40344643683E+02  0.43400730262E+02  0.00000000000E+00 0. -1.
         11    1    3    3    0    0  0.52106774596E+01  0.30870699268E+00  0.24032420309E+01  0.57464799761E+01  0.51100000000E-03 0. -1.
        -11    1    3    3    0    0  0.18862623351E+01  0.11861801996E+02  0.16436108401E+02  0.20356964209E+02  0.51100000000E-03 0.  1.
         12    1    3    3    0    0  0.27409275372E+01  0.44493708861E+00  0.21505293251E+02  0.21683825553E+02  0.00000000000E+00 0. -1.
</event>
<event>
 7    1  0.1246400E-009  0.4778727E+02  0.7816164E-02  0.1312668E+00
        -11   -1    0    0    0    0  0.00000000000E+00  0.00000000000E+00  0.45593999997E+02  0.45594000000E+02  0.51100000000E-03 0. -1.
         11   -1    0    0    0    0 -0.00000000000E+00 -0.00000000000E+00 -0.45593999997E+02  0.45594000000E+02  0.51100000000E-03 0.  1.
    9900012    2    1    2    0    0  0.33249461768E+02  0.13050068487E+02 -0.24653436747E+02  0.47787274904E+02  0.20000017598E+02 0.  0.
         12    1    1    2    0    0 -0.33249461768E+02 -0.13050068487E+02  0.24653436747E+02  0.43400725096E+02  0.00000000000E+00 0. -1.
         11    1    3    3    0    0  0.16192165555E+02  0.13454385453E+01 -0.10467612841E+01  0.16281650398E+02  0.51100000000E-03 0. -1.
        -11    1    3    3    0    0  0.69631642691E+01  0.31963104847E+01 -0.85073346670E+01  0.11448877707E+02  0.51100000000E-03 0.  1.
         12    1    3    3    0    0  0.10094131944E+02  0.85083194571E+01 -0.15099340796E+02  0.20056746799E+02  0.00000000000E+00 0. -1.
</event>
<event>
 7    1  0.1246400E-009  0.4778727E+02  0.7816164E-02  0.1312668E+00
        -11   -1    0    0    0    0  0.00000000000E+00  0.00000000000E+00  0.45593999997E+02  0.45594000000E+02  0.51100000000E-03 0.  1.
         11   -1    0    0    0    0 -0.00000000000E+00 -0.00000000000E+00 -0.45593999997E+02  0.45594000000E+02  0.51100000000E-03 0. -1.
    9900012    2    1    2    0    0  0.85749135158E+01  0.32434972706E+02  0.27533012208E+02  0.47787270081E+02  0.19999995606E+02 0.  0.
         12    1    1    2    0    0 -0.85749135158E+01 -0.32434972706E+02 -0.27533012208E+02  0.43400729919E+02  0.00000000000E+00 0. -1.
         11    1    3    3    0    0  0.14923748671E+01  0.13475005846E+02  0.93067494718E+01  0.16444407903E+02  0.51100000000E-03 0. -1.
        -11    1    3    3    0    0 -0.19840673082E+01  0.16028990136E+01  0.96205422161E+01  0.99529212357E+01  0.51100000000E-03 0.  1.
         12    1    3    3    0    0  0.90666059569E+01  0.17357067846E+02  0.86057205205E+01  0.21389940941E+02  0.00000000000E+00 0. -1.
</event>
<event>
 7    1  0.1246400E-009  0.4778727E+02  0.7816164E-02  0.1312668E+00
        -11   -1    0    0    0    0  0.00000000000E+00  0.00000000000E+00  0.45593999997E+02  0.45594000000E+02  0.51100000000E-03 0.  1.
         11   -1    0    0    0    0 -0.00000000000E+00 -0.00000000000E+00 -0.45593999997E+02  0.45594000000E+02  0.51100000000E-03 0. -1.
    9900012    2    1    2    0    0 -0.35669972811E+02  0.99306352392E+01  0.22641969169E+02  0.47787271383E+02  0.20000001544E+02 0.  0.
         12    1    1    2    0    0  0.35669972811E+02 -0.99306352392E+01 -0.22641969169E+02  0.43400728617E+02  0.00000000000E+00 0. -1.
         11    1    3    3    0    0 -0.13758619579E+01 -0.29631524769E+01 -0.10942384127E+01  0.34453775836E+01  0.51100000000E-03 0. -1.
        -11    1    3    3    0    0 -0.10817758375E+02  0.66900349007E+01  0.49806136582E+01  0.13659684327E+02  0.51100000000E-03 0.  1.
        -12    1    3    3    0    0 -0.23476352479E+02  0.62037528154E+01  0.18755593924E+02  0.30682209473E+02  0.00000000000E+00 0.  1.
</event>
<event>
 7    1  0.1246400E-009  0.4778727E+02  0.7816164E-02  0.1312668E+00
        -11   -1    0    0    0    0  0.00000000000E+00  0.00000000000E+00  0.45593999997E+02  0.45594000000E+02  0.51100000000E-03 0. -1.
         11   -1    0    0    0    0 -0.00000000000E+00 -0.00000000000E+00 -0.45593999997E+02  0.45594000000E+02  0.51100000000E-03 0.  1.
    9900012    2    1    2    0    0  0.26486097715E+02 -0.25966622508E+02 -0.22535412303E+02  0.47787266547E+02  0.19999979493E+02 0.  0.
         12    1    1    2    0    0 -0.26486097715E+02  0.25966622508E+02  0.22535412303E+02  0.43400733453E+02  0.00000000000E+00 0. -1.
         11    1    3    3    0    0  0.16990913042E+02 -0.13422984398E+02 -0.15326098440E+02  0.26528417401E+02  0.51100000000E-03 0. -1.
        -11    1    3    3    0    0  0.70514469635E+01 -0.48111236411E+01 -0.95590407914E+01  0.12815813516E+02  0.51100000000E-03 0.  1.
         12    1    3    3    0    0  0.24437377090E+01 -0.77325144685E+01  0.23497269285E+01  0.84430356292E+01  0.00000000000E+00 0. -1.
</event>
<event>
 7    1  0.1246400E-009  0.4778727E+02  0.7816164E-02  0.1312668E+00
        -11   -1    0    0    0    0  0.00000000000E+00  0.00000000000E+00  0.45593999997E+02  0.45594000000E+02  0.51100000000E-03 0. -1.
         11   -1    0    0    0    0 -0.00000000000E+00 -0.00000000000E+00 -0.45593999997E+02  0.45594000000E+02  0.51100000000E-03 0.  1.
    9900012    2    1    2    0    0  0.19754236323E+02  0.37593321951E+02  0.89518445784E+01  0.47787271557E+02  0.20000002336E+02 0.  0.
         12    1    1    2    0    0 -0.19754236323E+02 -0.37593321951E+02 -0.89518445784E+01  0.43400728443E+02  0.00000000000E+00 0. -1.
         11    1    3    3    0    0  0.64842244525E+01  0.53786877025E+01  0.93551491999E+01  0.12589450543E+02  0.51100000000E-03 0. -1.
        -11    1    3    3    0    0  0.24683865536E+01  0.12205549348E+02  0.12287681405E+00  0.12453251223E+02  0.51100000000E-03 0.  1.
         12    1    3    3    0    0  0.10801625317E+02  0.20009084901E+02 -0.52618143559E+00  0.22744569791E+02  0.00000000000E+00 0. -1.
</event>
<event>
 7    1  0.1246400E-009  0.4778727E+02  0.7816164E-02  0.1312668E+00
        -11   -1    0    0    0    0  0.00000000000E+00  0.00000000000E+00  0.45593999997E+02  0.45594000000E+02  0.51100000000E-03 0.  1.
         11   -1    0    0    0    0 -0.00000000000E+00 -0.00000000000E+00 -0.45593999997E+02  0.45594000000E+02  0.51100000000E-03 0. -1.
    9900012    2    1    2    0    0  0.14588414669E+02  0.40862156032E+02  0.10419629470E+01  0.47787270456E+02  0.19999997319E+02 0.  0.
         12    1    1    2    0    0 -0.14588414669E+02 -0.40862156032E+02 -0.10419629470E+01  0.43400729544E+02  0.00000000000E+00 0. -1.
         11    1    3    3    0    0  0.78305368566E+01  0.21094162892E+02 -0.29180303227E+01  0.22689114500E+02  0.51100000000E-03 0. -1.
        -11    1    3    3    0    0  0.52235672667E+01  0.21696951350E+02  0.34669433901E+01  0.22584575480E+02  0.51100000000E-03 0.  1.
        -12    1    3    3    0    0  0.15343105452E+01 -0.19289582103E+01  0.49304987967E+00  0.25135804762E+01  0.00000000000E+00 0.  1.
</event>
<event>
 7    1  0.1246400E-009  0.4778727E+02  0.7816164E-02  0.1312668E+00
        -11   -1    0    0    0    0  0.00000000000E+00  0.00000000000E+00  0.45593999997E+02  0.45594000000E+02  0.51100000000E-03 0.  1.
         11   -1    0    0    0    0 -0.00000000000E+00 -0.00000000000E+00 -0.45593999997E+02  0.45594000000E+02  0.51100000000E-03 0. -1.
    9900012    2    1    2    0    0 -0.57111584696E+01 -0.42636089638E+02 -0.57593309853E+01  0.47787270005E+02  0.19999995260E+02 0.  0.
         12    1    1    2    0    0  0.57111584696E+01  0.42636089638E+02  0.57593309853E+01  0.43400729995E+02  0.00000000000E+00 0. -1.
         11    1    3    3    0    0 -0.29561173015E+01 -0.15186993760E+02 -0.80143285997E+01  0.17424490584E+02  0.51100000000E-03 0. -1.
        -11    1    3    3    0    0 -0.72778959779E+01 -0.21958265730E+02  0.23176223140E+01  0.23248754314E+02  0.51100000000E-03 0.  1.
        -12    1    3    3    0    0  0.45228548098E+01 -0.54908301493E+01 -0.62624699659E-01  0.71140251062E+01  0.00000000000E+00 0.  1.
</event>
<event>
 7    1  0.1246400E-009  0.4778727E+02  0.7816164E-02  0.1312668E+00
        -11   -1    0    0    0    0  0.00000000000E+00  0.00000000000E+00  0.45593999997E+02  0.45594000000E+02  0.51100000000E-03 0.  1.
         11   -1    0    0    0    0 -0.00000000000E+00 -0.00000000000E+00 -0.45593999997E+02  0.45594000000E+02  0.51100000000E-03 0. -1.
    9900012    2    1    2    0    0 -0.34132089703E+02  0.13516010342E+02  0.23150402454E+02  0.47787271701E+02  0.20000002994E+02 0.  0.
         12    1    1    2    0    0  0.34132089703E+02 -0.13516010342E+02 -0.23150402454E+02  0.43400728299E+02  0.00000000000E+00 0. -1.
         11    1    3    3    0    0 -0.12881528830E+02  0.51315221290E+00  0.13657666637E+02  0.18781080065E+02  0.51100000000E-03 0. -1.
        -11    1    3    3    0    0 -0.65209255068E+01  0.47256900829E+00 -0.15745025998E+01  0.67249423514E+01  0.51100000000E-03 0.  1.
        -12    1    3    3    0    0 -0.14729635366E+02  0.12530289121E+02  0.11067238417E+02  0.22281249284E+02  0.00000000000E+00 0.  1.
</event>
<event>
 7    1  0.1246400E-009  0.4778727E+02  0.7816164E-02  0.1312668E+00
        -11   -1    0    0    0    0  0.00000000000E+00  0.00000000000E+00  0.45593999997E+02  0.45594000000E+02  0.51100000000E-03 0.  1.
         11   -1    0    0    0    0 -0.00000000000E+00 -0.00000000000E+00 -0.45593999997E+02  0.45594000000E+02  0.51100000000E-03 0. -1.
    9900012    2    1    2    0    0 -0.83971313417E+00  0.82231731543E+01  0.42606311521E+02  0.47787268712E+02  0.19999989367E+02 0.  0.
         12    1    1    2    0    0  0.83971313417E+00 -0.82231731543E+01 -0.42606311521E+02  0.43400731288E+02  0.00000000000E+00 0. -1.
         11    1    3    3    0    0 -0.79187428369E+01  0.26026666029E+01  0.92536891443E+01  0.12454361670E+02  0.51100000000E-03 0. -1.
        -11    1    3    3    0    0  0.81874488731E+00 -0.11746750483E+01  0.11663834028E+01  0.18467959180E+01  0.51100000000E-03 0.  1.
        -12    1    3    3    0    0  0.62602848154E+01  0.67951815997E+01  0.32186238974E+02  0.33486111124E+02  0.00000000000E+00 0.  1.
</event>
<event>
 7    1  0.1246400E-009  0.4778728E+02  0.7816164E-02  0.1312668E+00
        -11   -1    0    0    0    0  0.00000000000E+00  0.00000000000E+00  0.45593999997E+02  0.45594000000E+02  0.51100000000E-03 0. -1.
         11   -1    0    0    0    0 -0.00000000000E+00 -0.00000000000E+00 -0.45593999997E+02  0.45594000000E+02  0.51100000000E-03 0.  1.
    9900012    2    1    2    0    0 -0.33998519789E+02  0.17702755081E+02 -0.20355234466E+02  0.47787280473E+02  0.20000042990E+02 0.  0.
         12    1    1    2    0    0  0.33998519789E+02 -0.17702755081E+02  0.20355234466E+02  0.43400719527E+02  0.00000000000E+00 0. -1.
         11    1    3    3    0    0 -0.54842665527E+00  0.58631621518E+01 -0.21625526212E+01  0.62732827383E+01  0.51100000000E-03 0.  1.
        -11    1    3    3    0    0 -0.21440355345E+02  0.10785628906E+02 -0.68445705212E+01  0.24957299015E+02  0.51100000000E-03 0. -1.
        -12    1    3    3    0    0 -0.12009737788E+02  0.10539640226E+01 -0.11348111324E+02  0.16556698720E+02  0.00000000000E+00 0.  1.
</event>
<event>
 7    1  0.1631219E-009  0.4778727E+02  0.7816164E-02  0.1312668E+00
        -11   -1    0    0    0    0  0.00000000000E+00  0.00000000000E+00  0.45593999997E+02  0.45594000000E+02  0.51100000000E-03 0. -1.
         11   -1    0    0    0    0 -0.00000000000E+00 -0.00000000000E+00 -0.45593999997E+02  0.45594000000E+02  0.51100000000E-03 0.  1.
    9900012    2    1    2    0    0  0.43220136584E+02  0.13995689756E+01 -0.36992396218E+01  0.47787269898E+02  0.19999994771E+02 0.  0.
         12    1    1    2    0    0 -0.43220136584E+02 -0.13995689756E+01  0.36992396218E+01  0.43400730102E+02  0.00000000000E+00 0. -1.
         11    1    3    3    0    0  0.22741598724E+01  0.11335680789E+01 -0.44613925907E+01  0.51342773420E+01  0.51100000000E-03 0. -1.
        -11    1    3    3    0    0  0.13567488859E+02 -0.31281220598E+01  0.48913552888E+01  0.14757616961E+02  0.51100000000E-03 0.  1.
        -12    1    3    3    0    0  0.27378487853E+02  0.33941229565E+01 -0.41292023200E+01  0.27895375594E+02  0.00000000000E+00 0.  1.
</event>
<event>
 7    1  0.1246400E-009  0.4778727E+02  0.7816164E-02  0.1312668E+00
        -11   -1    0    0    0    0  0.00000000000E+00  0.00000000000E+00  0.45593999997E+02  0.45594000000E+02  0.51100000000E-03 0.  1.
         11   -1    0    0    0    0 -0.00000000000E+00 -0.00000000000E+00 -0.45593999997E+02  0.45594000000E+02  0.51100000000E-03 0. -1.
    9900012    2    1    2    0    0 -0.39902641542E+00 -0.24584310859E+02  0.35764168868E+02  0.47787270314E+02  0.19999996670E+02 0.  0.
         12    1    1    2    0    0  0.39902641542E+00  0.24584310859E+02 -0.35764168868E+02  0.43400729686E+02  0.00000000000E+00 0. -1.
         11    1    3    3    0    0 -0.16929112087E+01  0.16420663975E+01  0.91474204159E+01  0.94465671511E+01  0.51100000000E-03 0. -1.
        -11    1    3    3    0    0  0.42948237685E-01 -0.77991972999E+01  0.29929204559E+01  0.83538551694E+01  0.51100000000E-03 0.  1.
        -12    1    3    3    0    0  0.12509365556E+01 -0.18427179956E+02  0.23623827996E+02  0.29986847994E+02  0.00000000000E+00 0.  1.
</event>
<event>
 7    1  0.1246400E-009  0.4778727E+02  0.7816164E-02  0.1312668E+00
        -11   -1    0    0    0    0  0.00000000000E+00  0.00000000000E+00  0.45593999997E+02  0.45594000000E+02  0.51100000000E-03 0.  1.
         11   -1    0    0    0    0 -0.00000000000E+00 -0.00000000000E+00 -0.45593999997E+02  0.45594000000E+02  0.51100000000E-03 0. -1.
    9900012    2    1    2    0    0  0.72246253656E+01  0.25216974819E+02  0.34576467944E+02  0.47787272285E+02  0.20000005656E+02 0.  0.
         12    1    1    2    0    0 -0.72246253656E+01 -0.25216974819E+02 -0.34576467944E+02  0.43400727715E+02  0.00000000000E+00 0. -1.
         11    1    3    3    0    0 -0.42043099981E+01  0.60952743846E+01  0.34707686868E+01  0.81777030958E+01  0.51100000000E-03 0. -1.
        -11    1    3    3    0    0  0.58860747344E+01  0.33018918147E+01  0.43266934515E+01  0.80167725313E+01  0.51100000000E-03 0.  1.
        -12    1    3    3    0    0  0.55428606294E+01  0.15819808620E+02  0.26779005806E+02  0.31592796658E+02  0.00000000000E+00 0.  1.
</event>
<event>
 7    1  0.1246400E-009  0.4778727E+02  0.7816164E-02  0.1312668E+00
        -11   -1    0    0    0    0  0.00000000000E+00  0.00000000000E+00  0.45593999997E+02  0.45594000000E+02  0.51100000000E-03 0.  1.
         11   -1    0    0    0    0 -0.00000000000E+00 -0.00000000000E+00 -0.45593999997E+02  0.45594000000E+02  0.51100000000E-03 0. -1.
    9900012    2    1    2    0    0 -0.11834918822E+02  0.23792915014E+02  0.34314069517E+02  0.47787268725E+02  0.19999989424E+02 0.  0.
         12    1    1    2    0    0  0.11834918822E+02 -0.23792915014E+02 -0.34314069517E+02  0.43400731275E+02  0.00000000000E+00 0. -1.
         11    1    3    3    0    0 -0.86273366871E+01  0.17317815232E+02  0.13680827314E+02  0.23696048172E+02  0.51100000000E-03 0. -1.
        -11    1    3    3    0    0 -0.11387224999E+01  0.81812783835E+01  0.19504901891E+02  0.21181860233E+02  0.51100000000E-03 0.  1.
         12    1    3    3    0    0 -0.20688596346E+01 -0.17061786011E+01  0.11283403129E+01  0.29093603194E+01  0.00000000000E+00 0. -1.
</event>
<event>
 7    1  0.1246400E-009  0.4778728E+02  0.7816164E-02  0.1312668E+00
        -11   -1    0    0    0    0  0.00000000000E+00  0.00000000000E+00  0.45593999997E+02  0.45594000000E+02  0.51100000000E-03 0.  1.
         11   -1    0    0    0    0 -0.00000000000E+00 -0.00000000000E+00 -0.45593999997E+02  0.45594000000E+02  0.51100000000E-03 0. -1.
    9900012    2    1    2    0    0  0.28577283346E+02 -0.24120992416E+02  0.22025879986E+02  0.47787276645E+02  0.20000025536E+02 0.  0.
         12    1    1    2    0    0 -0.28577283346E+02  0.24120992416E+02 -0.22025879986E+02  0.43400723355E+02  0.00000000000E+00 0. -1.
         11    1    3    3    0    0  0.14308601324E+02 -0.11301044195E+02  0.49361236705E+01  0.18889547081E+02  0.51100000000E-03 0. -1.
        -11    1    3    3    0    0  0.11872747113E+02 -0.19200253107E+01  0.10297768877E+02  0.15833277150E+02  0.51100000000E-03 0.  1.
         12    1    3    3    0    0  0.23959349088E+01 -0.10899922909E+02  0.67919874386E+01  0.13064452414E+02  0.00000000000E+00 0. -1.
</event>
<event>
 7    1  0.1246400E-009  0.4778727E+02  0.7816164E-02  0.1312668E+00
        -11   -1    0    0    0    0  0.00000000000E+00  0.00000000000E+00  0.45593999997E+02  0.45594000000E+02  0.51100000000E-03 0. -1.
         11   -1    0    0    0    0 -0.00000000000E+00 -0.00000000000E+00 -0.45593999997E+02  0.45594000000E+02  0.51100000000E-03 0.  1.
    9900012    2    1    2    0    0 -0.11006939376E+01 -0.16269686119E+01 -0.43356256649E+02  0.47787267925E+02  0.19999985779E+02 0.  0.
         12    1    1    2    0    0  0.11006939376E+01  0.16269686119E+01  0.43356256649E+02  0.43400732075E+02  0.00000000000E+00 0. -1.
         11    1    3    3    0    0 -0.22211622626E+01 -0.48483160801E+01 -0.11637807074E+02  0.12801495396E+02  0.51100000000E-03 0. -1.
        -11    1    3    3    0    0 -0.66096469847E+00  0.29791061798E+01 -0.32764148791E+02  0.32905947703E+02  0.51100000000E-03 0.  1.
         12    1    3    3    0    0  0.17814330234E+01  0.24224128843E+00  0.10456992164E+01  0.20798248267E+01  0.00000000000E+00 0. -1.
</event>
<event>
 7    1  0.1246400E-009  0.4778728E+02  0.7816164E-02  0.1312668E+00
        -11   -1    0    0    0    0  0.00000000000E+00  0.00000000000E+00  0.45593999997E+02  0.45594000000E+02  0.51100000000E-03 0. -1.
         11   -1    0    0    0    0 -0.00000000000E+00 -0.00000000000E+00 -0.45593999997E+02  0.45594000000E+02  0.51100000000E-03 0.  1.
    9900012    2    1    2    0    0 -0.18649737842E+02 -0.30478806908E+02 -0.24634374284E+02  0.47787276637E+02  0.20000025497E+02 0.  0.
         12    1    1    2    0    0  0.18649737842E+02  0.30478806908E+02  0.24634374284E+02  0.43400723363E+02  0.00000000000E+00 0. -1.
         11    1    3    3    0    0  0.17580978850E+01 -0.78477454872E+01 -0.56002592194E+01  0.98000469892E+01  0.51100000000E-03 0. -1.
        -11    1    3    3    0    0  0.14896946917E+01 -0.27709388494E+01 -0.77274244546E+00  0.32395097669E+01  0.51100000000E-03 0.  1.
        -12    1    3    3    0    0 -0.21897530418E+02 -0.19860122571E+02 -0.18261372619E+02  0.34747719881E+02  0.00000000000E+00 0.  1.
</event>
<event>
 7    1  0.1246400E-009  0.4778727E+02  0.7816164E-02  0.1312668E+00
        -11   -1    0    0    0    0  0.00000000000E+00  0.00000000000E+00  0.45593999997E+02  0.45594000000E+02  0.51100000000E-03 0. -1.
         11   -1    0    0    0    0 -0.00000000000E+00 -0.00000000000E+00 -0.45593999997E+02  0.45594000000E+02  0.51100000000E-03 0.  1.
    9900012    2    1    2    0    0 -0.27835385651E+01  0.22614573778E+02 -0.36938543525E+02  0.47787273833E+02  0.20000012712E+02 0.  0.
         12    1    1    2    0    0  0.27835385651E+01 -0.22614573778E+02  0.36938543525E+02  0.43400726167E+02  0.00000000000E+00 0. -1.
         11    1    3    3    0    0 -0.38159928111E+01  0.10898229143E+02 -0.79605460993E+01  0.14025102283E+02  0.51100000000E-03 0. -1.
        -11    1    3    3    0    0  0.65909431000E+01  0.61877903710E+01 -0.11675238649E+02  0.14766193768E+02  0.51100000000E-03 0.  1.
         12    1    3    3    0    0 -0.55584888540E+01  0.55285542639E+01 -0.17302758777E+02  0.18995977782E+02  0.00000000000E+00 0. -1.
</event>
<event>
 7    1  0.1246400E-009  0.4778727E+02  0.7816164E-02  0.1312668E+00
        -11   -1    0    0    0    0  0.00000000000E+00  0.00000000000E+00  0.45593999997E+02  0.45594000000E+02  0.51100000000E-03 0.  1.
         11   -1    0    0    0    0 -0.00000000000E+00 -0.00000000000E+00 -0.45593999997E+02  0.45594000000E+02  0.51100000000E-03 0. -1.
    9900012    2    1    2    0    0  0.12542425985E+02 -0.26393921983E+02  0.32088495159E+02  0.47787273177E+02  0.20000009722E+02 0.  0.
         12    1    1    2    0    0 -0.12542425985E+02  0.26393921983E+02 -0.32088495159E+02  0.43400726823E+02  0.00000000000E+00 0. -1.
         11    1    3    3    0    0 -0.20835252893E+01 -0.65952401780E+01  0.15239785907E+01  0.70824276659E+01  0.51100000000E-03 0. -1.
        -11    1    3    3    0    0  0.36554564298E+01 -0.83964375913E+01  0.19046791697E+02  0.21133925337E+02  0.51100000000E-03 0.  1.
        -12    1    3    3    0    0  0.10970494844E+02 -0.11402244214E+02  0.11517724871E+02  0.19570920174E+02  0.00000000000E+00 0.  1.
</event>
<event>
 7    1  0.1246400E-009  0.4778727E+02  0.7816164E-02  0.1312668E+00
        -11   -1    0    0    0    0  0.00000000000E+00  0.00000000000E+00  0.45593999997E+02  0.45594000000E+02  0.51100000000E-03 0.  1.
         11   -1    0    0    0    0 -0.00000000000E+00 -0.00000000000E+00 -0.45593999997E+02  0.45594000000E+02  0.51100000000E-03 0. -1.
    9900012    2    1    2    0    0  0.17995177883E+02 -0.14733280479E+02  0.36643242357E+02  0.47787271998E+02  0.20000004347E+02 0.  0.
         12    1    1    2    0    0 -0.17995177883E+02  0.14733280479E+02 -0.36643242357E+02  0.43400728002E+02  0.00000000000E+00 0. -1.
         11    1    3    3    0    0  0.53008289110E+01 -0.17924411308E+01  0.16334642943E+02  0.17266504935E+02  0.51100000000E-03 0. -1.
        -11    1    3    3    0    0  0.15707903881E+02 -0.11172656750E+02  0.16809102197E+02  0.25575621598E+02  0.51100000000E-03 0.  1.
         12    1    3    3    0    0 -0.30135549096E+01 -0.17681825984E+01  0.34994972167E+01  0.49451454644E+01  0.00000000000E+00 0. -1.
</event>
<event>
 7    1  0.1246400E-009  0.4778727E+02  0.7816164E-02  0.1312668E+00
        -11   -1    0    0    0    0  0.00000000000E+00  0.00000000000E+00  0.45593999997E+02  0.45594000000E+02  0.51100000000E-03 0.  1.
         11   -1    0    0    0    0 -0.00000000000E+00 -0.00000000000E+00 -0.45593999997E+02  0.45594000000E+02  0.51100000000E-03 0. -1.
    9900012    2    1    2    0    0 -0.18481395075E+02  0.34759508416E+02  0.18271233279E+02  0.47787270112E+02  0.19999995750E+02 0.  0.
         12    1    1    2    0    0  0.18481395075E+02 -0.34759508416E+02 -0.18271233279E+02  0.43400729888E+02  0.00000000000E+00 0. -1.
         11    1    3    3    0    0 -0.27368949062E+01  0.19339393596E+02  0.79388050961E+01  0.21083817609E+02  0.51100000000E-03 0.  1.
        -11    1    3    3    0    0 -0.11260559550E+02  0.13393902275E+02  0.28217963414E+01  0.17724541021E+02  0.51100000000E-03 0. -1.
         12    1    3    3    0    0 -0.44839406188E+01  0.20262125455E+01  0.75106318413E+01  0.89789114823E+01  0.00000000000E+00 0. -1.
</event>
<event>
 7    1  0.1246400E-009  0.4778727E+02  0.7816164E-02  0.1312668E+00
        -11   -1    0    0    0    0  0.00000000000E+00  0.00000000000E+00  0.45593999997E+02  0.45594000000E+02  0.51100000000E-03 0. -1.
         11   -1    0    0    0    0 -0.00000000000E+00 -0.00000000000E+00 -0.45593999997E+02  0.45594000000E+02  0.51100000000E-03 0.  1.
    9900012    2    1    2    0    0  0.65652296772E+01 -0.13591201058E+02 -0.40691525576E+02  0.47787271428E+02  0.20000001750E+02 0.  0.
         12    1    1    2    0    0 -0.65652296772E+01  0.13591201058E+02  0.40691525576E+02  0.43400728572E+02  0.00000000000E+00 0. -1.
         11    1    3    3    0    0  0.38886432856E+01 -0.17695478405E+02 -0.28898585226E+02  0.34108352803E+02  0.51100000000E-03 0. -1.
        -11    1    3    3    0    0  0.34409917063E+01  0.81319587675E+00 -0.55571182852E+01  0.65865981625E+01  0.51100000000E-03 0.  1.
         12    1    3    3    0    0 -0.76440531474E+00  0.32910814708E+01 -0.62358220641E+01  0.70923204629E+01  0.00000000000E+00 0. -1.
</event>
<event>
 7    1  0.1246400E-009  0.4778727E+02  0.7816164E-02  0.1312668E+00
        -11   -1    0    0    0    0  0.00000000000E+00  0.00000000000E+00  0.45593999997E+02  0.45594000000E+02  0.51100000000E-03 0. -1.
         11   -1    0    0    0    0 -0.00000000000E+00 -0.00000000000E+00 -0.45593999997E+02  0.45594000000E+02  0.51100000000E-03 0.  1.
    9900012    2    1    2    0    0  0.41859424890E+01 -0.34520318822E+02  0.25970153250E+02  0.47787269754E+02  0.19999994115E+02 0.  0.
         12    1    1    2    0    0 -0.41859424890E+01  0.34520318822E+02 -0.25970153250E+02  0.43400730246E+02  0.00000000000E+00 0. -1.
         11    1    3    3    0    0  0.11076259240E+01 -0.14114559229E+02  0.84140335930E+01  0.16469474156E+02  0.51100000000E-03 0.  1.
        -11    1    3    3    0    0 -0.66770663450E+00  0.22469399622E-01 -0.24144308771E+01  0.25051574292E+01  0.51100000000E-03 0. -1.
         12    1    3    3    0    0  0.37460231996E+01 -0.20428228993E+02  0.19970550534E+02  0.28812638168E+02  0.00000000000E+00 0. -1.
</event>
<event>
 7    1  0.1246400E-009  0.4778728E+02  0.7816164E-02  0.1312668E+00
        -11   -1    0    0    0    0  0.00000000000E+00  0.00000000000E+00  0.45593999997E+02  0.45594000000E+02  0.51100000000E-03 0.  1.
         11   -1    0    0    0    0 -0.00000000000E+00 -0.00000000000E+00 -0.45593999997E+02  0.45594000000E+02  0.51100000000E-03 0. -1.
    9900012    2    1    2    0    0 -0.31472084292E+02  0.80443860709E+00  0.29874456558E+02  0.47787281506E+02  0.20000047697E+02 0.  0.
         12    1    1    2    0    0  0.31472084292E+02 -0.80443860709E+00 -0.29874456558E+02  0.43400718494E+02  0.00000000000E+00 0. -1.
         11    1    3    3    0    0 -0.84077666692E+01  0.41239224446E+01  0.74828289295E+00  0.93945305493E+01  0.51100000000E-03 0. -1.
        -11    1    3    3    0    0 -0.53141900529E+01 -0.45766347088E+01  0.10553484847E+02  0.12671315790E+02  0.51100000000E-03 0.  1.
        -12    1    3    3    0    0 -0.17750127570E+02  0.12571508713E+01  0.18572688819E+02  0.25721435167E+02  0.00000000000E+00 0.  1.
</event>
<event>
 7    1  0.1246400E-009  0.4778727E+02  0.7816164E-02  0.1312668E+00
        -11   -1    0    0    0    0  0.00000000000E+00  0.00000000000E+00  0.45593999997E+02  0.45594000000E+02  0.51100000000E-03 0.  1.
         11   -1    0    0    0    0 -0.00000000000E+00 -0.00000000000E+00 -0.45593999997E+02  0.45594000000E+02  0.51100000000E-03 0. -1.
    9900012    2    1    2    0    0  0.59433726189E+00 -0.40243528991E+02  0.16239730830E+02  0.47787265907E+02  0.19999976576E+02 0.  0.
         12    1    1    2    0    0 -0.59433726189E+00  0.40243528991E+02 -0.16239730830E+02  0.43400734093E+02  0.00000000000E+00 0. -1.
         11    1    3    3    0    0  0.12166499249E+01 -0.71985338367E+01 -0.22373101613E+01  0.76357503532E+01  0.51100000000E-03 0. -1.
        -11    1    3    3    0    0  0.57144154017E+01 -0.19565739322E+02  0.13496403657E+02  0.24446382361E+02  0.51100000000E-03 0.  1.
         12    1    3    3    0    0 -0.63367280647E+01 -0.13479255832E+02  0.49806373341E+01  0.15705133193E+02  0.00000000000E+00 0. -1.
</event>
<event>
 7    1  0.1246400E-009  0.4778727E+02  0.7816164E-02  0.1312668E+00
        -11   -1    0    0    0    0  0.00000000000E+00  0.00000000000E+00  0.45593999997E+02  0.45594000000E+02  0.51100000000E-03 0. -1.
         11   -1    0    0    0    0 -0.00000000000E+00 -0.00000000000E+00 -0.45593999997E+02  0.45594000000E+02  0.51100000000E-03 0.  1.
    9900012    2    1    2    0    0 -0.42306631970E+02  0.94177981787E+01 -0.22532912727E+01  0.47787270135E+02  0.19999995855E+02 0.  0.
         12    1    1    2    0    0  0.42306631970E+02 -0.94177981787E+01  0.22532912727E+01  0.43400729865E+02  0.00000000000E+00 0. -1.
         11    1    3    3    0    0 -0.88586552857E+01  0.56107963146E+01 -0.54569868131E+01  0.11820977713E+02  0.51100000000E-03 0. -1.
        -11    1    3    3    0    0 -0.19772378827E+02  0.76963573668E+01  0.44999596569E+01  0.21689410282E+02  0.51100000000E-03 0.  1.
         12    1    3    3    0    0 -0.13675597858E+02 -0.38893555027E+01 -0.12962641165E+01  0.14276882140E+02  0.00000000000E+00 0. -1.
</event>
<event>
 7    1  0.1246400E-009  0.4778723E+02  0.7816164E-02  0.1312668E+00
        -11   -1    0    0    0    0  0.00000000000E+00  0.00000000000E+00  0.45593999997E+02  0.45594000000E+02  0.51100000000E-03 0. -1.
         11   -1    0    0    0    0 -0.00000000000E+00 -0.00000000000E+00 -0.45593999997E+02  0.45594000000E+02  0.51100000000E-03 0.  1.
    9900012    2    1    2    0    0 -0.23241946941E+02  0.26038524455E+02 -0.25796002537E+02  0.47787232722E+02  0.19999825273E+02 0.  0.
         12    1    1    2    0    0  0.23241946941E+02 -0.26038524455E+02  0.25796002537E+02  0.43400767278E+02  0.00000000000E+00 0. -1.
         11    1    3    3    0    0 -0.20823637459E+01 -0.89895429695E+00  0.18765857927E+01  0.29437955256E+01  0.51100000000E-03 0. -1.
        -11    1    3    3    0    0 -0.14508270485E+02  0.11622323862E+02 -0.14492757541E+02  0.23571345864E+02  0.51100000000E-03 0.  1.
        -12    1    3    3    0    0 -0.66513127103E+01  0.15315154890E+02 -0.13179830788E+02  0.21272091333E+02  0.00000000000E+00 0.  1.
</event>
<event>
 7    1  0.1246400E-009  0.4778727E+02  0.7816164E-02  0.1312668E+00
        -11   -1    0    0    0    0  0.00000000000E+00  0.00000000000E+00  0.45593999997E+02  0.45594000000E+02  0.51100000000E-03 0.  1.
         11   -1    0    0    0    0 -0.00000000000E+00 -0.00000000000E+00 -0.45593999997E+02  0.45594000000E+02  0.51100000000E-03 0. -1.
    9900012    2    1    2    0    0 -0.26992345645E+02 -0.27788237617E+02  0.19566572853E+02  0.47787266752E+02  0.19999980430E+02 0.  0.
         12    1    1    2    0    0  0.26992345645E+02  0.27788237617E+02 -0.19566572853E+02  0.43400733248E+02  0.00000000000E+00 0. -1.
         11    1    3    3    0    0 -0.22350338226E+00 -0.66169326883E+01 -0.14102988262E+01  0.67692462655E+01  0.51100000000E-03 0. -1.
        -11    1    3    3    0    0 -0.12099425466E+02 -0.43388208369E+01  0.64584522214E+01  0.14385168342E+02  0.51100000000E-03 0.  1.
        -12    1    3    3    0    0 -0.14669416796E+02 -0.16832484091E+02  0.14518419458E+02  0.26632852145E+02  0.00000000000E+00 0.  1.
</event>
<event>
 7    1  0.1246400E-009  0.4778727E+02  0.7816164E-02  0.1312668E+00
        -11   -1    0    0    0    0  0.00000000000E+00  0.00000000000E+00  0.45593999997E+02  0.45594000000E+02  0.51100000000E-03 0.  1.
         11   -1    0    0    0    0 -0.00000000000E+00 -0.00000000000E+00 -0.45593999997E+02  0.45594000000E+02  0.51100000000E-03 0. -1.
    9900012    2    1    2    0    0  0.11351100092E+02 -0.14249355595E+02  0.39392028475E+02  0.47787268260E+02  0.19999987304E+02 0.  0.
         12    1    1    2    0    0 -0.11351100092E+02  0.14249355595E+02 -0.39392028475E+02  0.43400731740E+02  0.00000000000E+00 0. -1.
         11    1    3    3    0    0  0.14174653714E+00 -0.21066417688E+01  0.16885078715E+02  0.17016577655E+02  0.51100000000E-03 0. -1.
        -11    1    3    3    0    0  0.26090303330E+01 -0.12048494395E+02  0.14333606721E+02  0.18905701213E+02  0.51100000000E-03 0.  1.
         12    1    3    3    0    0  0.86003232218E+01 -0.94219431064E-01  0.81733430400E+01  0.11864989392E+02  0.00000000000E+00 0. -1.
</event>
<event>
 7    1  0.1246400E-009  0.4778727E+02  0.7816164E-02  0.1312668E+00
        -11   -1    0    0    0    0  0.00000000000E+00  0.00000000000E+00  0.45593999997E+02  0.45594000000E+02  0.51100000000E-03 0. -1.
         11   -1    0    0    0    0 -0.00000000000E+00 -0.00000000000E+00 -0.45593999997E+02  0.45594000000E+02  0.51100000000E-03 0.  1.
    9900012    2    1    2    0    0 -0.51586867889E+01 -0.33725245405E+02 -0.26825715239E+02  0.47787271607E+02  0.20000002563E+02 0.  0.
         12    1    1    2    0    0  0.51586867889E+01  0.33725245405E+02  0.26825715239E+02  0.43400728393E+02  0.00000000000E+00 0. -1.
         11    1    3    3    0    0  0.21387365655E+01 -0.28942220383E+01 -0.97514508647E+01  0.10394301782E+02  0.51100000000E-03 0. -1.
        -11    1    3    3    0    0 -0.12791585382E+01 -0.19346697560E+02 -0.14407443202E+02  0.24155855872E+02  0.51100000000E-03 0.  1.
        -12    1    3    3    0    0 -0.60182648163E+01 -0.11484325806E+02 -0.26668211724E+01  0.13237113953E+02  0.00000000000E+00 0.  1.
</event>
<event>
 7    1  0.1246400E-009  0.4778727E+02  0.7816164E-02  0.1312668E+00
        -11   -1    0    0    0    0  0.00000000000E+00  0.00000000000E+00  0.45593999997E+02  0.45594000000E+02  0.51100000000E-03 0. -1.
         11   -1    0    0    0    0 -0.00000000000E+00 -0.00000000000E+00 -0.45593999997E+02  0.45594000000E+02  0.51100000000E-03 0.  1.
    9900012    2    1    2    0    0  0.31669727999E+02 -0.73565551586E+01 -0.28749486389E+02  0.47787267944E+02  0.19999985865E+02 0.  0.
         12    1    1    2    0    0 -0.31669727999E+02  0.73565551586E+01  0.28749486389E+02  0.43400732056E+02  0.00000000000E+00 0. -1.
         11    1    3    3    0    0  0.75060302734E+01  0.30956252799E+01 -0.10095938276E+02  0.12955746072E+02  0.51100000000E-03 0. -1.
        -11    1    3    3    0    0  0.19773807731E+01 -0.39113723204E+01  0.98104651683E+00  0.44912493451E+01  0.51100000000E-03 0.  1.
        -12    1    3    3    0    0  0.22186316953E+02 -0.65408081181E+01 -0.19634594630E+02  0.30340272527E+02  0.00000000000E+00 0.  1.
</event>
<event>
 7    1  0.1246400E-009  0.4778727E+02  0.7816164E-02  0.1312668E+00
        -11   -1    0    0    0    0  0.00000000000E+00  0.00000000000E+00  0.45593999997E+02  0.45594000000E+02  0.51100000000E-03 0.  1.
         11   -1    0    0    0    0 -0.00000000000E+00 -0.00000000000E+00 -0.45593999997E+02  0.45594000000E+02  0.51100000000E-03 0. -1.
    9900012    2    1    2    0    0  0.31320505740E+02  0.18135875422E+02  0.23952852836E+02  0.47787271710E+02  0.20000003035E+02 0.  0.
         12    1    1    2    0    0 -0.31320505740E+02 -0.18135875422E+02 -0.23952852836E+02  0.43400728290E+02  0.00000000000E+00 0. -1.
         11    1    3    3    0    0  0.82148717169E+00  0.30259031185E+01  0.32527060301E+01  0.45178565311E+01  0.51100000000E-03 0. -1.
        -11    1    3    3    0    0  0.81283619392E+01  0.13210181791E+02  0.93722507337E+01  0.18122313727E+02  0.51100000000E-03 0.  1.
         12    1    3    3    0    0  0.22370656629E+02  0.18997905128E+01  0.11327896072E+02  0.25147101452E+02  0.00000000000E+00 0. -1.
</event>
<event>
 7    1  0.1246400E-009  0.4778727E+02  0.7816164E-02  0.1312668E+00
        -11   -1    0    0    0    0  0.00000000000E+00  0.00000000000E+00  0.45593999997E+02  0.45594000000E+02  0.51100000000E-03 0.  1.
         11   -1    0    0    0    0 -0.00000000000E+00 -0.00000000000E+00 -0.45593999997E+02  0.45594000000E+02  0.51100000000E-03 0. -1.
    9900012    2    1    2    0    0  0.25860019204E+02 -0.11144552549E+02  0.33025470564E+02  0.47787270160E+02  0.19999995966E+02 0.  0.
         12    1    1    2    0    0 -0.25860019204E+02  0.11144552549E+02 -0.33025470564E+02  0.43400729840E+02  0.00000000000E+00 0. -1.
         11    1    3    3    0    0  0.28725984315E+01 -0.53930664572E+01  0.57003792493E+01  0.83565131129E+01  0.51100000000E-03 0. -1.
        -11    1    3    3    0    0  0.24237114363E+02 -0.20890151149E+01  0.25155311968E+02  0.34994162617E+02  0.51100000000E-03 0.  1.
        -12    1    3    3    0    0 -0.12496935905E+01 -0.36624709766E+01  0.21697793461E+01  0.44365944299E+01  0.00000000000E+00 0.  1.
</event>
<event>
 7    1  0.1246400E-009  0.4778728E+02  0.7816164E-02  0.1312668E+00
        -11   -1    0    0    0    0  0.00000000000E+00  0.00000000000E+00  0.45593999997E+02  0.45594000000E+02  0.51100000000E-03 0. -1.
         11   -1    0    0    0    0 -0.00000000000E+00 -0.00000000000E+00 -0.45593999997E+02  0.45594000000E+02  0.51100000000E-03 0.  1.
    9900012    2    1    2    0    0  0.25621416808E+02 -0.32830077588E+02 -0.12220946532E+02  0.47787279639E+02  0.20000039188E+02 0.  0.
         12    1    1    2    0    0 -0.25621416808E+02  0.32830077588E+02  0.12220946532E+02  0.43400720361E+02  0.00000000000E+00 0. -1.
         11    1    3    3    0    0  0.10822846060E+01 -0.30443078957E+01 -0.34862579119E+01  0.47532246972E+01  0.51100000000E-03 0. -1.
        -11    1    3    3    0    0  0.12152302362E+02 -0.48851206791E+01 -0.77216677119E+01  0.15204177362E+02  0.51100000000E-03 0.  1.
         12    1    3    3    0    0  0.12386829840E+02 -0.24900649013E+02 -0.10130209078E+01  0.27829877580E+02  0.00000000000E+00 0. -1.
</event>
<event>
 7    1  0.1246400E-009  0.4778727E+02  0.7816164E-02  0.1312668E+00
        -11   -1    0    0    0    0  0.00000000000E+00  0.00000000000E+00  0.45593999997E+02  0.45594000000E+02  0.51100000000E-03 0. -1.
         11   -1    0    0    0    0 -0.00000000000E+00 -0.00000000000E+00 -0.45593999997E+02  0.45594000000E+02  0.51100000000E-03 0.  1.
    9900012    2    1    2    0    0  0.38217979299E+02  0.20404882368E+02  0.25787659253E+01  0.47787271897E+02  0.20000003889E+02 0.  0.
         12    1    1    2    0    0 -0.38217979299E+02 -0.20404882368E+02 -0.25787659253E+01  0.43400728103E+02  0.00000000000E+00 0. -1.
         11    1    3    3    0    0  0.37136322116E+02  0.17204603736E+02  0.64684257275E+01  0.41436039164E+02  0.51100000000E-03 0. -1.
        -11    1    3    3    0    0  0.21794364352E+01  0.32562782646E+01 -0.29409543794E+01  0.48992350663E+01  0.51100000000E-03 0.  1.
        -12    1    3    3    0    0 -0.10977792520E+01 -0.55999632322E-01 -0.94870542278E+00  0.14519976667E+01  0.00000000000E+00 0.  1.
</event>
<event>
 7    1  0.1246400E-009  0.4778730E+02  0.7816164E-02  0.1312668E+00
        -11   -1    0    0    0    0  0.00000000000E+00  0.00000000000E+00  0.45593999997E+02  0.45594000000E+02  0.51100000000E-03 0. -1.
         11   -1    0    0    0    0 -0.00000000000E+00 -0.00000000000E+00 -0.45593999997E+02  0.45594000000E+02  0.51100000000E-03 0.  1.
    9900012    2    1    2    0    0 -0.37185003619E+02 -0.20110875059E+02  0.98208343964E+01  0.47787302102E+02  0.20000141605E+02 0.  0.
         12    1    1    2    0    0  0.37185003619E+02  0.20110875059E+02 -0.98208343964E+01  0.43400697898E+02  0.00000000000E+00 0. -1.
         11    1    3    3    0    0  0.14805755668E+01  0.15138619037E+01  0.92152595608E+00  0.23093488739E+01  0.51100000000E-03 0. -1.
        -11    1    3    3    0    0 -0.25818214540E+02 -0.11866672547E+02  0.67181855482E+01  0.29198152967E+02  0.51100000000E-03 0.  1.
        -12    1    3    3    0    0 -0.12847364646E+02 -0.97580644156E+01  0.21811228921E+01  0.16279800262E+02  0.00000000000E+00 0.  1.
</event>
<event>
 7    1  0.1246400E-009  0.4778727E+02  0.7816164E-02  0.1312668E+00
        -11   -1    0    0    0    0  0.00000000000E+00  0.00000000000E+00  0.45593999997E+02  0.45594000000E+02  0.51100000000E-03 0.  1.
         11   -1    0    0    0    0 -0.00000000000E+00 -0.00000000000E+00 -0.45593999997E+02  0.45594000000E+02  0.51100000000E-03 0. -1.
    9900012    2    1    2    0    0  0.30041775254E+01  0.65055907069E+01  0.42805086490E+02  0.47787271637E+02  0.20000002701E+02 0.  0.
         12    1    1    2    0    0 -0.30041775254E+01 -0.65055907069E+01 -0.42805086490E+02  0.43400728363E+02  0.00000000000E+00 0. -1.
         11    1    3    3    0    0  0.20932273807E+01 -0.41321043804E+01  0.57253553883E+01  0.73644811129E+01  0.51100000000E-03 0. -1.
        -11    1    3    3    0    0  0.63651828096E+01  0.58046450554E+01  0.23171678508E+02  0.24721167884E+02  0.51100000000E-03 0.  1.
        -12    1    3    3    0    0 -0.54542326648E+01  0.48330500320E+01  0.13908052594E+02  0.15701622640E+02  0.00000000000E+00 0.  1.
</event>
<event>
 7    1  0.1246400E-009  0.4778727E+02  0.7816164E-02  0.1312668E+00
        -11   -1    0    0    0    0  0.00000000000E+00  0.00000000000E+00  0.45593999997E+02  0.45594000000E+02  0.51100000000E-03 0.  1.
         11   -1    0    0    0    0 -0.00000000000E+00 -0.00000000000E+00 -0.45593999997E+02  0.45594000000E+02  0.51100000000E-03 0. -1.
    9900012    2    1    2    0    0 -0.19840946003E+02  0.26771324354E+02  0.27807484765E+02  0.47787272414E+02  0.20000006247E+02 0.  0.
         12    1    1    2    0    0  0.19840946003E+02 -0.26771324354E+02 -0.27807484765E+02  0.43400727586E+02  0.00000000000E+00 0. -1.
         11    1    3    3    0    0 -0.38148299840E+01 -0.71377083427E+00  0.99475014221E+00  0.40064853322E+01  0.51100000000E-03 0. -1.
        -11    1    3    3    0    0 -0.88444266801E+01  0.93704184137E+01  0.34126340813E+01  0.13329467213E+02  0.51100000000E-03 0.  1.
        -12    1    3    3    0    0 -0.71816893391E+01  0.18114676775E+02  0.23400100542E+02  0.30451319869E+02  0.00000000000E+00 0.  1.
</event>
<event>
 7    1  0.1246400E-009  0.4778727E+02  0.7816164E-02  0.1312668E+00
        -11   -1    0    0    0    0  0.00000000000E+00  0.00000000000E+00  0.45593999997E+02  0.45594000000E+02  0.51100000000E-03 0. -1.
         11   -1    0    0    0    0 -0.00000000000E+00 -0.00000000000E+00 -0.45593999997E+02  0.45594000000E+02  0.51100000000E-03 0.  1.
    9900012    2    1    2    0    0  0.25317996552E+01 -0.32960536871E+02 -0.28121450324E+02  0.47787274561E+02  0.20000016033E+02 0.  0.
         12    1    1    2    0    0 -0.25317996552E+01  0.32960536871E+02  0.28121450324E+02  0.43400725439E+02  0.00000000000E+00 0. -1.
         11    1    3    3    0    0  0.33877884185E+01 -0.88085772935E+01 -0.81510110055E+00  0.94727258152E+01  0.51100000000E-03 0. -1.
        -11    1    3    3    0    0  0.44920715386E+01 -0.18725791178E+02 -0.19407187384E+02  0.27339950336E+02  0.51100000000E-03 0.  1.
        -12    1    3    3    0    0 -0.53480603019E+01 -0.54261683990E+01 -0.78991618393E+01  0.10974598410E+02  0.00000000000E+00 0.  1.
</event>
<event>
 7    1  0.1246400E-009  0.4778727E+02  0.7816164E-02  0.1312668E+00
        -11   -1    0    0    0    0  0.00000000000E+00  0.00000000000E+00  0.45593999997E+02  0.45594000000E+02  0.51100000000E-03 0.  1.
         11   -1    0    0    0    0 -0.00000000000E+00 -0.00000000000E+00 -0.45593999997E+02  0.45594000000E+02  0.51100000000E-03 0. -1.
    9900012    2    1    2    0    0 -0.15187962270E+02  0.32101576053E+01  0.40529547702E+02  0.47787267901E+02  0.19999985670E+02 0.  0.
         12    1    1    2    0    0  0.15187962270E+02 -0.32101576053E+01 -0.40529547702E+02  0.43400732099E+02  0.00000000000E+00 0. -1.
         11    1    3    3    0    0  0.15764114304E+01  0.53570655098E+00  0.11773932150E+02  0.11891069466E+02  0.51100000000E-03 0. -1.
        -11    1    3    3    0    0 -0.14032583140E+02  0.20639044415E+01  0.29723687606E+02  0.32934339166E+02  0.51100000000E-03 0.  1.
        -12    1    3    3    0    0 -0.27317905602E+01  0.61054661285E+00 -0.96807205415E+00  0.29618592697E+01  0.00000000000E+00 0.  1.
</event>
<event>
 7    1  0.1533506E-009  0.4778727E+02  0.7816164E-02  0.1312668E+00
        -11   -1    0    0    0    0  0.00000000000E+00  0.00000000000E+00  0.45593999997E+02  0.45594000000E+02  0.51100000000E-03 0. -1.
         11   -1    0    0    0    0 -0.00000000000E+00 -0.00000000000E+00 -0.45593999997E+02  0.45594000000E+02  0.51100000000E-03 0.  1.
    9900012    2    1    2    0    0  0.33818796889E+01 -0.26314972993E+02 -0.34346881405E+02  0.47787272170E+02  0.20000005134E+02 0.  0.
         12    1    1    2    0    0 -0.33818796889E+01  0.26314972993E+02  0.34346881405E+02  0.43400727830E+02  0.00000000000E+00 0. -1.
         11    1    3    3    0    0  0.62627788853E+00 -0.51061472462E-01  0.97069657599E+00  0.11563232123E+01  0.51100000000E-03 0. -1.
        -11    1    3    3    0    0  0.57244924881E+01 -0.25220558281E+02 -0.25492055375E+02  0.36313788865E+02  0.51100000000E-03 0.  1.
        -12    1    3    3    0    0 -0.29688906877E+01 -0.10433532399E+01 -0.98255226061E+01  0.10317160093E+02  0.00000000000E+00 0.  1.
</event>
<event>
 7    1  0.1246400E-009  0.4778728E+02  0.7816164E-02  0.1312668E+00
        -11   -1    0    0    0    0  0.00000000000E+00  0.00000000000E+00  0.45593999997E+02  0.45594000000E+02  0.51100000000E-03 0.  1.
         11   -1    0    0    0    0 -0.00000000000E+00 -0.00000000000E+00 -0.45593999997E+02  0.45594000000E+02  0.51100000000E-03 0. -1.
    9900012    2    1    2    0    0 -0.16818765279E+02 -0.33645025991E+02  0.21650948612E+02  0.47787283241E+02  0.20000055608E+02 0.  0.
         12    1    1    2    0    0  0.16818765279E+02  0.33645025991E+02 -0.21650948612E+02  0.43400716759E+02  0.00000000000E+00 0. -1.
         11    1    3    3    0    0  0.25402569134E+01 -0.55344853404E+01  0.24060729019E+01  0.65477187050E+01  0.51100000000E-03 0. -1.
        -11    1    3    3    0    0 -0.96983498708E+01 -0.66905742414E+01  0.16778629787E+01  0.11901134330E+02  0.51100000000E-03 0.  1.
        -12    1    3    3    0    0 -0.96606723211E+01 -0.21419966409E+02  0.17567012732E+02  0.29338430206E+02  0.00000000000E+00 0.  1.
</event>
<event>
 7    1  0.1246400E-009  0.4778727E+02  0.7816164E-02  0.1312668E+00
        -11   -1    0    0    0    0  0.00000000000E+00  0.00000000000E+00  0.45593999997E+02  0.45594000000E+02  0.51100000000E-03 0. -1.
         11   -1    0    0    0    0 -0.00000000000E+00 -0.00000000000E+00 -0.45593999997E+02  0.45594000000E+02  0.51100000000E-03 0.  1.
    9900012    2    1    2    0    0  0.20651353903E+02 -0.11150566731E+02 -0.36507663799E+02  0.47787273364E+02  0.20000010577E+02 0.  0.
         12    1    1    2    0    0 -0.20651353903E+02  0.11150566731E+02  0.36507663799E+02  0.43400726636E+02  0.00000000000E+00 0. -1.
         11    1    3    3    0    0  0.72595619407E+01  0.69749165677E+00 -0.11057170509E+01  0.73763368036E+01  0.51100000000E-03 0. -1.
        -11    1    3    3    0    0  0.77324561008E+01 -0.74632756136E+01 -0.12858790457E+02  0.16758277135E+02  0.51100000000E-03 0.  1.
        -12    1    3    3    0    0  0.56593358610E+01 -0.43847827745E+01 -0.22543156291E+02  0.23652659426E+02  0.00000000000E+00 0.  1.
</event>
<event>
 7    1  0.1246400E-009  0.4778727E+02  0.7816164E-02  0.1312668E+00
        -11   -1    0    0    0    0  0.00000000000E+00  0.00000000000E+00  0.45593999997E+02  0.45594000000E+02  0.51100000000E-03 0.  1.
         11   -1    0    0    0    0 -0.00000000000E+00 -0.00000000000E+00 -0.45593999997E+02  0.45594000000E+02  0.51100000000E-03 0. -1.
    9900012    2    1    2    0    0  0.40072777390E+02 -0.14971984571E+02  0.73236237936E+01  0.47787271029E+02  0.19999999928E+02 0.  0.
         12    1    1    2    0    0 -0.40072777390E+02  0.14971984571E+02 -0.73236237936E+01  0.43400728971E+02  0.00000000000E+00 0. -1.
         11    1    3    3    0    0  0.97976949790E+01 -0.50081758059E+01  0.24788093227E+00  0.11006275347E+02  0.51100000000E-03 0. -1.
        -11    1    3    3    0    0  0.28727928937E+02 -0.79646189946E+01  0.11280840436E+02  0.31874541847E+02  0.51100000000E-03 0.  1.
         12    1    3    3    0    0  0.15471534742E+01 -0.19991897701E+01 -0.42050975751E+01  0.49064538341E+01  0.00000000000E+00 0. -1.
</event>
<event>
 7    1  0.1246400E-009  0.4778727E+02  0.7816164E-02  0.1312668E+00
        -11   -1    0    0    0    0  0.00000000000E+00  0.00000000000E+00  0.45593999997E+02  0.45594000000E+02  0.51100000000E-03 0.  1.
         11   -1    0    0    0    0 -0.00000000000E+00 -0.00000000000E+00 -0.45593999997E+02  0.45594000000E+02  0.51100000000E-03 0. -1.
    9900012    2    1    2    0    0  0.12067971358E+02  0.25534089981E+02  0.32954483523E+02  0.47787266503E+02  0.19999979292E+02 0.  0.
         12    1    1    2    0    0 -0.12067971358E+02 -0.25534089981E+02 -0.32954483523E+02  0.43400733497E+02  0.00000000000E+00 0. -1.
         11    1    3    3    0    0  0.54687555250E+01  0.59436934168E+01  0.14667901675E+02  0.16744614604E+02  0.51100000000E-03 0. -1.
        -11    1    3    3    0    0  0.34650937884E+01  0.16263874927E+02  0.20133842213E+02  0.26113063878E+02  0.51100000000E-03 0.  1.
         12    1    3    3    0    0  0.31341220441E+01  0.33265216378E+01 -0.18472603651E+01  0.49295880204E+01  0.00000000000E+00 0. -1.
</event>
<event>
 7    1  0.1246400E-009  0.4778727E+02  0.7816164E-02  0.1312668E+00
        -11   -1    0    0    0    0  0.00000000000E+00  0.00000000000E+00  0.45593999997E+02  0.45594000000E+02  0.51100000000E-03 0.  1.
         11   -1    0    0    0    0 -0.00000000000E+00 -0.00000000000E+00 -0.45593999997E+02  0.45594000000E+02  0.51100000000E-03 0. -1.
    9900012    2    1    2    0    0  0.11553927202E+02 -0.28138317082E+02  0.30957473369E+02  0.47787270981E+02  0.19999999711E+02 0.  0.
         12    1    1    2    0    0 -0.11553927202E+02  0.28138317082E+02 -0.30957473369E+02  0.43400729019E+02  0.00000000000E+00 0. -1.
         11    1    3    3    0    0 -0.13977500974E+01 -0.86679509534E-02 -0.41391446959E+00  0.14577743026E+01  0.51100000000E-03 0. -1.
        -11    1    3    3    0    0  0.11730748188E+02 -0.29655394098E+02  0.30690552771E+02  0.44260172637E+02  0.51100000000E-03 0.  1.
        -12    1    3    3    0    0  0.12209291109E+01  0.15257449677E+01  0.68083506810E+00  0.20693240419E+01  0.00000000000E+00 0.  1.
</event>
<event>
 7    1  0.1246400E-009  0.4778727E+02  0.7816164E-02  0.1312668E+00
        -11   -1    0    0    0    0  0.00000000000E+00  0.00000000000E+00  0.45593999997E+02  0.45594000000E+02  0.51100000000E-03 0. -1.
         11   -1    0    0    0    0 -0.00000000000E+00 -0.00000000000E+00 -0.45593999997E+02  0.45594000000E+02  0.51100000000E-03 0.  1.
    9900012    2    1    2    0    0  0.25723570312E+02 -0.13444769424E+02 -0.32267004530E+02  0.47787268718E+02  0.19999989393E+02 0.  0.
         12    1    1    2    0    0 -0.25723570312E+02  0.13444769424E+02  0.32267004530E+02  0.43400731282E+02  0.00000000000E+00 0. -1.
         11    1    3    3    0    0  0.22602410023E+01 -0.59022605202E+01 -0.41424090283E+01  0.75567798337E+01  0.51100000000E-03 0. -1.
        -11    1    3    3    0    0  0.19631147341E+01 -0.48321869236E+01 -0.12411408219E+02  0.13462797041E+02  0.51100000000E-03 0.  1.
        -12    1    3    3    0    0  0.21500214576E+02 -0.27103219797E+01 -0.15713187283E+02  0.26767691843E+02  0.00000000000E+00 0.  1.
</event>
<event>
 7    1  0.1246400E-009  0.4778727E+02  0.7816164E-02  0.1312668E+00
        -11   -1    0    0    0    0  0.00000000000E+00  0.00000000000E+00  0.45593999997E+02  0.45594000000E+02  0.51100000000E-03 0.  1.
         11   -1    0    0    0    0 -0.00000000000E+00 -0.00000000000E+00 -0.45593999997E+02  0.45594000000E+02  0.51100000000E-03 0. -1.
    9900012    2    1    2    0    0  0.12827320650E+02  0.39903752243E+02  0.11259396564E+02  0.47787267182E+02  0.19999982392E+02 0.  0.
         12    1    1    2    0    0 -0.12827320650E+02 -0.39903752243E+02 -0.11259396564E+02  0.43400732818E+02  0.00000000000E+00 0. -1.
         11    1    3    3    0    0  0.13125375154E+02  0.23570418443E+02  0.96014749389E+01  0.28636138353E+02  0.51100000000E-03 0. -1.
        -11    1    3    3    0    0 -0.17623506397E+01  0.41604672200E+01  0.46990977794E+01  0.65189636804E+01  0.51100000000E-03 0.  1.
         12    1    3    3    0    0  0.14642961355E+01  0.12172866580E+02 -0.30411761547E+01  0.12632165149E+02  0.00000000000E+00 0. -1.
</event>
<event>
 7    1  0.1246400E-009  0.4778727E+02  0.7816164E-02  0.1312668E+00
        -11   -1    0    0    0    0  0.00000000000E+00  0.00000000000E+00  0.45593999997E+02  0.45594000000E+02  0.51100000000E-03 0. -1.
         11   -1    0    0    0    0 -0.00000000000E+00 -0.00000000000E+00 -0.45593999997E+02  0.45594000000E+02  0.51100000000E-03 0.  1.
    9900012    2    1    2    0    0  0.40681330432E+02  0.15080311054E+02 -0.11121309244E+01  0.47787271177E+02  0.20000000604E+02 0.  0.
         12    1    1    2    0    0 -0.40681330432E+02 -0.15080311054E+02  0.11121309244E+01  0.43400728823E+02  0.00000000000E+00 0. -1.
         11    1    3    3    0    0  0.29876502425E+02  0.10305006807E+02  0.16804828593E+01  0.31648421530E+02  0.51100000000E-03 0. -1.
        -11    1    3    3    0    0  0.63846213503E+01  0.81099807359E+01 -0.12921630604E+01  0.10402156649E+02  0.51100000000E-03 0.  1.
         12    1    3    3    0    0  0.44202066560E+01 -0.33346764890E+01 -0.15004507233E+01  0.57366929970E+01  0.00000000000E+00 0. -1.
</event>
<event>
 7    1  0.1246400E-009  0.4778728E+02  0.7816164E-02  0.1312668E+00
        -11   -1    0    0    0    0  0.00000000000E+00  0.00000000000E+00  0.45593999997E+02  0.45594000000E+02  0.51100000000E-03 0. -1.
         11   -1    0    0    0    0 -0.00000000000E+00 -0.00000000000E+00 -0.45593999997E+02  0.45594000000E+02  0.51100000000E-03 0.  1.
    9900012    2    1    2    0    0 -0.32132232324E+02 -0.25653887063E+01 -0.29061336331E+02  0.47787276012E+02  0.20000022648E+02 0.  0.
         12    1    1    2    0    0  0.32132232324E+02  0.25653887063E+01  0.29061336331E+02  0.43400723988E+02  0.00000000000E+00 0. -1.
         11    1    3    3    0    0 -0.34552019081E+01  0.18917880494E+01 -0.13747781907E+02  0.14301006603E+02  0.51100000000E-03 0. -1.
        -11    1    3    3    0    0 -0.78018889053E+01 -0.18587532145E+01 -0.10929888128E+01  0.80943843996E+01  0.51100000000E-03 0.  1.
        -12    1    3    3    0    0 -0.20875141511E+02 -0.25984235412E+01 -0.14220565611E+02  0.25391885009E+02  0.00000000000E+00 0.  1.
</event>
<event>
 7    1  0.1246400E-009  0.4778727E+02  0.7816164E-02  0.1312668E+00
        -11   -1    0    0    0    0  0.00000000000E+00  0.00000000000E+00  0.45593999997E+02  0.45594000000E+02  0.51100000000E-03 0.  1.
         11   -1    0    0    0    0 -0.00000000000E+00 -0.00000000000E+00 -0.45593999997E+02  0.45594000000E+02  0.51100000000E-03 0. -1.
    9900012    2    1    2    0    0  0.52932770906E+00 -0.43326788848E+02  0.24764282974E+01  0.47787268246E+02  0.19999987240E+02 0.  0.
         12    1    1    2    0    0 -0.52932770906E+00  0.43326788848E+02 -0.24764282974E+01  0.43400731754E+02  0.00000000000E+00 0. -1.
         11    1    3    3    0    0  0.37219494796E+01 -0.19419887457E+02 -0.47394398400E+01  0.20333401757E+02  0.51100000000E-03 0.  1.
        -11    1    3    3    0    0  0.44823112963E+00  0.36862154051E+00  0.23610861637E+01  0.24313619885E+01  0.51100000000E-03 0. -1.
        -12    1    3    3    0    0 -0.36408529001E+01 -0.24275522932E+02  0.48547819737E+01  0.25022504500E+02  0.00000000000E+00 0.  1.
</event>
<event>
 7    1  0.1246400E-009  0.4778727E+02  0.7816164E-02  0.1312668E+00
        -11   -1    0    0    0    0  0.00000000000E+00  0.00000000000E+00  0.45593999997E+02  0.45594000000E+02  0.51100000000E-03 0.  1.
         11   -1    0    0    0    0 -0.00000000000E+00 -0.00000000000E+00 -0.45593999997E+02  0.45594000000E+02  0.51100000000E-03 0. -1.
    9900012    2    1    2    0    0 -0.11179895497E+02 -0.18862286253E+02  0.37454601795E+02  0.47787273029E+02  0.20000009050E+02 0.  0.
         12    1    1    2    0    0  0.11179895497E+02  0.18862286253E+02 -0.37454601795E+02  0.43400726971E+02  0.00000000000E+00 0. -1.
         11    1    3    3    0    0 -0.12779095420E+01  0.21751311830E+01  0.89814560998E+00  0.26778562804E+01  0.51100000000E-03 0. -1.
        -11    1    3    3    0    0 -0.47156031259E+01  0.34404047060E-01  0.70671015559E+01  0.84960003026E+01  0.51100000000E-03 0.  1.
         12    1    3    3    0    0 -0.51863828288E+01 -0.21071821483E+02  0.29489354629E+02  0.36613416446E+02  0.00000000000E+00 0. -1.
</event>
<event>
 7    1  0.1246400E-009  0.4778728E+02  0.7816164E-02  0.1312668E+00
        -11   -1    0    0    0    0  0.00000000000E+00  0.00000000000E+00  0.45593999997E+02  0.45594000000E+02  0.51100000000E-03 0.  1.
         11   -1    0    0    0    0 -0.00000000000E+00 -0.00000000000E+00 -0.45593999997E+02  0.45594000000E+02  0.51100000000E-03 0. -1.
    9900012    2    1    2    0    0 -0.10633971451E+02  0.42000511652E+02 -0.25492328030E+01  0.47787275171E+02  0.20000018813E+02 0.  0.
         12    1    1    2    0    0  0.10633971451E+02 -0.42000511652E+02  0.25492328030E+01  0.43400724829E+02  0.00000000000E+00 0. -1.
         11    1    3    3    0    0 -0.35560450128E+01  0.99614795477E+01  0.42962793200E+00  0.10585892090E+02  0.51100000000E-03 0.  1.
        -11    1    3    3    0    0 -0.12102257593E+02  0.15098620182E+02 -0.26297273961E+01  0.19528144733E+02  0.51100000000E-03 0. -1.
         12    1    3    3    0    0  0.50243311553E+01  0.16940411922E+02 -0.34913333891E+00  0.17673238348E+02  0.00000000000E+00 0. -1.
</event>
<event>
 7    1  0.1246400E-009  0.4778727E+02  0.7816164E-02  0.1312668E+00
        -11   -1    0    0    0    0  0.00000000000E+00  0.00000000000E+00  0.45593999997E+02  0.45594000000E+02  0.51100000000E-03 0.  1.
         11   -1    0    0    0    0 -0.00000000000E+00 -0.00000000000E+00 -0.45593999997E+02  0.45594000000E+02  0.51100000000E-03 0. -1.
    9900012    2    1    2    0    0 -0.29154196417E+02  0.18546172590E+02  0.26262060481E+02  0.47787268357E+02  0.19999987745E+02 0.  0.
         12    1    1    2    0    0  0.29154196417E+02 -0.18546172590E+02 -0.26262060481E+02  0.43400731643E+02  0.00000000000E+00 0. -1.
         11    1    3    3    0    0 -0.64246513367E+01  0.10495910841E+02  0.64768172466E+01  0.13906453577E+02  0.51100000000E-03 0. -1.
        -11    1    3    3    0    0 -0.80672918710E+01 -0.76654274323E+00  0.52746908448E+00  0.81207764287E+01  0.51100000000E-03 0.  1.
        -12    1    3    3    0    0 -0.14662253210E+02  0.88168044920E+01  0.19257774149E+02  0.25760038351E+02  0.00000000000E+00 0.  1.
</event>
<event>
 7    1  0.1246400E-009  0.4778727E+02  0.7816164E-02  0.1312668E+00
        -11   -1    0    0    0    0  0.00000000000E+00  0.00000000000E+00  0.45593999997E+02  0.45594000000E+02  0.51100000000E-03 0. -1.
         11   -1    0    0    0    0 -0.00000000000E+00 -0.00000000000E+00 -0.45593999997E+02  0.45594000000E+02  0.51100000000E-03 0.  1.
    9900012    2    1    2    0    0 -0.11952027304E+02  0.32391183081E+01 -0.41596637004E+02  0.47787273576E+02  0.20000011541E+02 0.  0.
         12    1    1    2    0    0  0.11952027304E+02 -0.32391183081E+01  0.41596637004E+02  0.43400726424E+02  0.00000000000E+00 0. -1.
         11    1    3    3    0    0  0.43501081189E+01 -0.36634678131E+01 -0.12246152930E+02  0.13502321982E+02  0.51100000000E-03 0. -1.
        -11    1    3    3    0    0 -0.60662218770E+01  0.22336021222E+01 -0.10305517115E+02  0.12165184321E+02  0.51100000000E-03 0.  1.
         12    1    3    3    0    0 -0.10235913546E+02  0.46689839990E+01 -0.19044966960E+02  0.22119767273E+02  0.00000000000E+00 0. -1.
</event>
<event>
 7    1  0.1246400E-009  0.4778727E+02  0.7816164E-02  0.1312668E+00
        -11   -1    0    0    0    0  0.00000000000E+00  0.00000000000E+00  0.45593999997E+02  0.45594000000E+02  0.51100000000E-03 0.  1.
         11   -1    0    0    0    0 -0.00000000000E+00 -0.00000000000E+00 -0.45593999997E+02  0.45594000000E+02  0.51100000000E-03 0. -1.
    9900012    2    1    2    0    0  0.32076318085E+02  0.28189038593E+02  0.77531670262E+01  0.47787266393E+02  0.19999978792E+02 0.  0.
         12    1    1    2    0    0 -0.32076318085E+02 -0.28189038593E+02 -0.77531670262E+01  0.43400733607E+02  0.00000000000E+00 0. -1.
         11    1    3    3    0    0  0.18240809562E+02  0.16566104460E+02  0.90467365813E+00  0.24657278543E+02  0.51100000000E-03 0. -1.
        -11    1    3    3    0    0  0.13160167167E+02  0.11540794112E+02  0.98277938231E+01  0.20073999608E+02  0.51100000000E-03 0.  1.
         12    1    3    3    0    0  0.67534135689E+00  0.82140020782E-01 -0.29793004551E+01  0.30559882416E+01  0.00000000000E+00 0. -1.
</event>
<event>
 7    1  0.1246400E-009  0.4778727E+02  0.7816164E-02  0.1312668E+00
        -11   -1    0    0    0    0  0.00000000000E+00  0.00000000000E+00  0.45593999997E+02  0.45594000000E+02  0.51100000000E-03 0. -1.
         11   -1    0    0    0    0 -0.00000000000E+00 -0.00000000000E+00 -0.45593999997E+02  0.45594000000E+02  0.51100000000E-03 0.  1.
    9900012    2    1    2    0    0 -0.43241457314E+02 -0.20884624206E+01 -0.30721336257E+01  0.47787270618E+02  0.19999998054E+02 0.  0.
         12    1    1    2    0    0  0.43241457314E+02  0.20884624206E+01  0.30721336257E+01  0.43400729382E+02  0.00000000000E+00 0. -1.
         11    1    3    3    0    0 -0.13476441084E+02 -0.67033589384E+01 -0.76454447271E+01  0.16882011453E+02  0.51100000000E-03 0. -1.
        -11    1    3    3    0    0 -0.13805233315E+02  0.37214283311E+01  0.69797051324E-01  0.14298194557E+02  0.51100000000E-03 0.  1.
         12    1    3    3    0    0 -0.15959782915E+02  0.89346818670E+00  0.45035140501E+01  0.16607064608E+02  0.00000000000E+00 0. -1.
</event>
<event>
 7    1  0.1246400E-009  0.4778727E+02  0.7816164E-02  0.1312668E+00
        -11   -1    0    0    0    0  0.00000000000E+00  0.00000000000E+00  0.45593999997E+02  0.45594000000E+02  0.51100000000E-03 0.  1.
         11   -1    0    0    0    0 -0.00000000000E+00 -0.00000000000E+00 -0.45593999997E+02  0.45594000000E+02  0.51100000000E-03 0. -1.
    9900012    2    1    2    0    0  0.11993304731E+02  0.38386530983E+02  0.16317423645E+02  0.47787269203E+02  0.19999991605E+02 0.  0.
         12    1    1    2    0    0 -0.11993304731E+02 -0.38386530983E+02 -0.16317423645E+02  0.43400730797E+02  0.00000000000E+00 0. -1.
         11    1    3    3    0    0  0.10236972374E+02  0.21475258625E+02  0.22631467752E+01  0.23897785881E+02  0.51100000000E-03 0.  1.
        -11    1    3    3    0    0 -0.13146151770E+01 -0.36081573323E+00  0.26073387908E+01  0.29422129236E+01  0.51100000000E-03 0. -1.
        -12    1    3    3    0    0  0.30709475342E+01  0.17272088091E+02  0.11446938079E+02  0.20947270399E+02  0.00000000000E+00 0.  1.
</event>
<event>
 7    1  0.1246400E-009  0.4778727E+02  0.7816164E-02  0.1312668E+00
        -11   -1    0    0    0    0  0.00000000000E+00  0.00000000000E+00  0.45593999997E+02  0.45594000000E+02  0.51100000000E-03 0. -1.
         11   -1    0    0    0    0 -0.00000000000E+00 -0.00000000000E+00 -0.45593999997E+02  0.45594000000E+02  0.51100000000E-03 0.  1.
    9900012    2    1    2    0    0  0.90729038663E+01  0.39861149734E+01 -0.42254188690E+02  0.47787272368E+02  0.20000006034E+02 0.  0.
         12    1    1    2    0    0 -0.90729038663E+01 -0.39861149734E+01  0.42254188690E+02  0.43400727632E+02  0.00000000000E+00 0. -1.
         11    1    3    3    0    0  0.67907988327E+01  0.52477701714E+01 -0.91712477338E+01  0.12560486687E+02  0.51100000000E-03 0. -1.
        -11    1    3    3    0    0 -0.29807211476E+01  0.35202678828E+01 -0.17506715105E+02  0.18104200025E+02  0.51100000000E-03 0.  1.
         12    1    3    3    0    0  0.52628261812E+01 -0.47819230809E+01 -0.15576225851E+02  0.17122585656E+02  0.00000000000E+00 0. -1.
</event>
<event>
 7    1  0.1246400E-009  0.4778728E+02  0.7816164E-02  0.1312668E+00
        -11   -1    0    0    0    0  0.00000000000E+00  0.00000000000E+00  0.45593999997E+02  0.45594000000E+02  0.51100000000E-03 0.  1.
         11   -1    0    0    0    0 -0.00000000000E+00 -0.00000000000E+00 -0.45593999997E+02  0.45594000000E+02  0.51100000000E-03 0. -1.
    9900012    2    1    2    0    0  0.38549836570E+02 -0.17406529620E+02  0.97234276249E+01  0.47787283212E+02  0.20000055475E+02 0.  0.
         12    1    1    2    0    0 -0.38549836570E+02  0.17406529620E+02 -0.97234276249E+01  0.43400716788E+02  0.00000000000E+00 0. -1.
         11    1    3    3    0    0  0.62745442325E+01 -0.50125910414E+01 -0.21438316609E+01  0.83121590893E+01  0.51100000000E-03 0. -1.
        -11    1    3    3    0    0  0.18663071083E+01 -0.46549682374E+01  0.55260057201E+01  0.74624775372E+01  0.51100000000E-03 0.  1.
        -12    1    3    3    0    0  0.30408985229E+02 -0.77389703411E+01  0.63412535657E+01  0.32012646585E+02  0.00000000000E+00 0.  1.
</event>
<event>
 7    1  0.1246400E-009  0.4778727E+02  0.7816164E-02  0.1312668E+00
        -11   -1    0    0    0    0  0.00000000000E+00  0.00000000000E+00  0.45593999997E+02  0.45594000000E+02  0.51100000000E-03 0.  1.
         11   -1    0    0    0    0 -0.00000000000E+00 -0.00000000000E+00 -0.45593999997E+02  0.45594000000E+02  0.51100000000E-03 0. -1.
    9900012    2    1    2    0    0 -0.35148165707E+02 -0.22444116409E+02  0.12020453967E+02  0.47787271579E+02  0.20000002436E+02 0.  0.
         12    1    1    2    0    0  0.35148165707E+02  0.22444116409E+02 -0.12020453967E+02  0.43400728421E+02  0.00000000000E+00 0. -1.
         11    1    3    3    0    0 -0.17393834226E+02 -0.10484930410E+02  0.11251880562E+02  0.23218183633E+02  0.51100000000E-03 0.  1.
        -11    1    3    3    0    0 -0.10276779457E+02 -0.11169946088E+02  0.49506342171E+01  0.15965233196E+02  0.51100000000E-03 0. -1.
        -12    1    3    3    0    0 -0.74775520238E+01 -0.78923991098E+00 -0.41820608117E+01  0.86038547488E+01  0.00000000000E+00 0.  1.
</event>
<event>
 7    1  0.1246400E-009  0.4778727E+02  0.7816164E-02  0.1312668E+00
        -11   -1    0    0    0    0  0.00000000000E+00  0.00000000000E+00  0.45593999997E+02  0.45594000000E+02  0.51100000000E-03 0.  1.
         11   -1    0    0    0    0 -0.00000000000E+00 -0.00000000000E+00 -0.45593999997E+02  0.45594000000E+02  0.51100000000E-03 0. -1.
    9900012    2    1    2    0    0  0.49156591280E+01  0.13776144271E+02  0.40861684089E+02  0.47787273253E+02  0.20000010069E+02 0.  0.
         12    1    1    2    0    0 -0.49156591280E+01 -0.13776144271E+02 -0.40861684089E+02  0.43400726747E+02  0.00000000000E+00 0. -1.
         11    1    3    3    0    0  0.29735697987E+01  0.50209545466E+01  0.48245160285E+00  0.58553276354E+01  0.51100000000E-03 0. -1.
        -11    1    3    3    0    0  0.37197681565E+01  0.55469171099E+01  0.16967016148E+02  0.18234160298E+02  0.51100000000E-03 0.  1.
         12    1    3    3    0    0 -0.17776788272E+01  0.32082726145E+01  0.23412216338E+02  0.23697785319E+02  0.00000000000E+00 0. -1.
</event>
<event>
 7    1  0.1246400E-009  0.4778727E+02  0.7816164E-02  0.1312668E+00
        -11   -1    0    0    0    0  0.00000000000E+00  0.00000000000E+00  0.45593999997E+02  0.45594000000E+02  0.51100000000E-03 0.  1.
         11   -1    0    0    0    0 -0.00000000000E+00 -0.00000000000E+00 -0.45593999997E+02  0.45594000000E+02  0.51100000000E-03 0. -1.
    9900012    2    1    2    0    0  0.25840149684E+02 -0.26908049807E+02  0.22178068322E+02  0.47787271957E+02  0.20000004161E+02 0.  0.
         12    1    1    2    0    0 -0.25840149684E+02  0.26908049807E+02 -0.22178068322E+02  0.43400728043E+02  0.00000000000E+00 0. -1.
         11    1    3    3    0    0  0.50413248306E+01 -0.15759461615E+02  0.12800529450E+02  0.20919587494E+02  0.51100000000E-03 0. -1.
        -11    1    3    3    0    0  0.13821184469E+02 -0.81047552320E+01  0.10523671835E+02  0.19169242725E+02  0.51100000000E-03 0.  1.
        -12    1    3    3    0    0  0.69776403852E+01 -0.30438329598E+01 -0.11461329624E+01  0.76984417384E+01  0.00000000000E+00 0.  1.
</event>
<event>
 7    1  0.1246400E-009  0.4778725E+02  0.7816164E-02  0.1312668E+00
        -11   -1    0    0    0    0  0.00000000000E+00  0.00000000000E+00  0.45593999997E+02  0.45594000000E+02  0.51100000000E-03 0.  1.
         11   -1    0    0    0    0 -0.00000000000E+00 -0.00000000000E+00 -0.45593999997E+02  0.45594000000E+02  0.51100000000E-03 0. -1.
    9900012    2    1    2    0    0 -0.33204337460E+02  0.23324942796E+02  0.15396244700E+02  0.47787247317E+02  0.19999891818E+02 0.  0.
         12    1    1    2    0    0  0.33204337460E+02 -0.23324942796E+02 -0.15396244700E+02  0.43400752683E+02  0.00000000000E+00 0. -1.
         11    1    3    3    0    0  0.21089539154E+00  0.10683523777E+00 -0.13684183089E+00  0.27316035950E+00  0.51100000000E-03 0. -1.
        -11    1    3    3    0    0 -0.27475922563E+02  0.16846307648E+02  0.19788640846E+02  0.37819501700E+02  0.51100000000E-03 0.  1.
         12    1    3    3    0    0 -0.59393102878E+01  0.63717999107E+01 -0.42555543146E+01  0.96945852578E+01  0.00000000000E+00 0. -1.
</event>
<event>
 7    1  0.1246400E-009  0.4778727E+02  0.7816164E-02  0.1312668E+00
        -11   -1    0    0    0    0  0.00000000000E+00  0.00000000000E+00  0.45593999997E+02  0.45594000000E+02  0.51100000000E-03 0.  1.
         11   -1    0    0    0    0 -0.00000000000E+00 -0.00000000000E+00 -0.45593999997E+02  0.45594000000E+02  0.51100000000E-03 0. -1.
    9900012    2    1    2    0    0  0.29442104277E+02  0.65398859491E+01  0.31209223874E+02  0.47787271120E+02  0.20000000346E+02 0.  0.
         12    1    1    2    0    0 -0.29442104277E+02 -0.65398859491E+01 -0.31209223874E+02  0.43400728880E+02  0.00000000000E+00 0. -1.
         11    1    3    3    0    0  0.98150916364E+01  0.35820145704E+01  0.34936066517E+01  0.11016902464E+02  0.51100000000E-03 0. -1.
        -11    1    3    3    0    0  0.25085969304E+01  0.43693942119E+01  0.13713592109E+02  0.14609834808E+02  0.51100000000E-03 0.  1.
         12    1    3    3    0    0  0.17118415710E+02 -0.14115228332E+01  0.14002025114E+02  0.22160533847E+02  0.00000000000E+00 0. -1.
</event>
<event>
 7    1  0.1273298E-009  0.4778727E+02  0.7816164E-02  0.1312668E+00
        -11   -1    0    0    0    0  0.00000000000E+00  0.00000000000E+00  0.45593999997E+02  0.45594000000E+02  0.51100000000E-03 0. -1.
         11   -1    0    0    0    0 -0.00000000000E+00 -0.00000000000E+00 -0.45593999997E+02  0.45594000000E+02  0.51100000000E-03 0.  1.
    9900012    2    1    2    0    0  0.43247456865E+02  0.22113046865E+01 -0.28967000176E+01  0.47787271150E+02  0.20000000483E+02 0.  0.
         12    1    1    2    0    0 -0.43247456865E+02 -0.22113046865E+01  0.28967000176E+01  0.43400728850E+02  0.00000000000E+00 0. -1.
         11    1    3    3    0    0  0.70195260663E+01 -0.16083037076E+01  0.44287710220E+01  0.84542533696E+01  0.51100000000E-03 0. -1.
        -11    1    3    3    0    0  0.19866744064E+02  0.77551594247E+01 -0.98235997084E+00  0.21349357104E+02  0.51100000000E-03 0.  1.
        -12    1    3    3    0    0  0.16361186735E+02 -0.39355510306E+01 -0.63431110688E+01  0.17983660676E+02  0.00000000000E+00 0.  1.
</event>
<event>
 7    1  0.1246400E-009  0.4778727E+02  0.7816164E-02  0.1312668E+00
        -11   -1    0    0    0    0  0.00000000000E+00  0.00000000000E+00  0.45593999997E+02  0.45594000000E+02  0.51100000000E-03 0.  1.
         11   -1    0    0    0    0 -0.00000000000E+00 -0.00000000000E+00 -0.45593999997E+02  0.45594000000E+02  0.51100000000E-03 0. -1.
    9900012    2    1    2    0    0  0.24039690638E+02  0.36105547145E+02  0.14511569293E+01  0.47787272851E+02  0.20000008239E+02 0.  0.
         12    1    1    2    0    0 -0.24039690638E+02 -0.36105547145E+02 -0.14511569293E+01  0.43400727149E+02  0.00000000000E+00 0. -1.
         11    1    3    3    0    0  0.45276504558E+01  0.11047487139E+02  0.32279493684E+01  0.12367952463E+02  0.51100000000E-03 0. -1.
        -11    1    3    3    0    0  0.22388243093E+01  0.12889264469E+02  0.36931519561E+01  0.13593558934E+02  0.51100000000E-03 0.  1.
         12    1    3    3    0    0  0.17273215873E+02  0.12168795536E+02 -0.54699443953E+01  0.21825761455E+02  0.00000000000E+00 0. -1.
</event>
<event>
 7    1  0.1246400E-009  0.4778727E+02  0.7816164E-02  0.1312668E+00
        -11   -1    0    0    0    0  0.00000000000E+00  0.00000000000E+00  0.45593999997E+02  0.45594000000E+02  0.51100000000E-03 0. -1.
         11   -1    0    0    0    0 -0.00000000000E+00 -0.00000000000E+00 -0.45593999997E+02  0.45594000000E+02  0.51100000000E-03 0.  1.
    9900012    2    1    2    0    0  0.41105490386E+02 -0.10781431071E+02 -0.88160465356E+01  0.47787271062E+02  0.20000000080E+02 0.  0.
         12    1    1    2    0    0 -0.41105490386E+02  0.10781431071E+02  0.88160465356E+01  0.43400728938E+02  0.00000000000E+00 0. -1.
         11    1    3    3    0    0  0.10514331737E+01 -0.45089741372E+01 -0.17538278440E+01  0.49509869578E+01  0.51100000000E-03 0. -1.
        -11    1    3    3    0    0  0.19777027312E+02  0.15253181346E+01 -0.72259869123E+01  0.21110951940E+02  0.51100000000E-03 0.  1.
         12    1    3    3    0    0  0.20277029901E+02 -0.77977750681E+01  0.16376822069E+00  0.21725332164E+02  0.00000000000E+00 0. -1.
</event>
<event>
 7    1  0.1246400E-009  0.4778727E+02  0.7816164E-02  0.1312668E+00
        -11   -1    0    0    0    0  0.00000000000E+00  0.00000000000E+00  0.45593999997E+02  0.45594000000E+02  0.51100000000E-03 0. -1.
         11   -1    0    0    0    0 -0.00000000000E+00 -0.00000000000E+00 -0.45593999997E+02  0.45594000000E+02  0.51100000000E-03 0.  1.
    9900012    2    1    2    0    0 -0.34042510224E+02 -0.21095576708E+02 -0.16724446121E+02  0.47787274695E+02  0.20000016643E+02 0.  0.
         12    1    1    2    0    0  0.34042510224E+02  0.21095576708E+02  0.16724446121E+02  0.43400725305E+02  0.00000000000E+00 0. -1.
         11    1    3    3    0    0  0.19192862513E+01 -0.99330064884E+00 -0.12015591975E+00  0.21644268524E+01  0.51100000000E-03 0. -1.
        -11    1    3    3    0    0 -0.16203656701E+02 -0.36563905170E+01 -0.45069178429E+01  0.17211623712E+02  0.51100000000E-03 0.  1.
        -12    1    3    3    0    0 -0.19758139774E+02 -0.16445885542E+02 -0.12097372358E+02  0.28411224130E+02  0.00000000000E+00 0.  1.
</event>
<event>
 7    1  0.1246400E-009  0.4778727E+02  0.7816164E-02  0.1312668E+00
        -11   -1    0    0    0    0  0.00000000000E+00  0.00000000000E+00  0.45593999997E+02  0.45594000000E+02  0.51100000000E-03 0. -1.
         11   -1    0    0    0    0 -0.00000000000E+00 -0.00000000000E+00 -0.45593999997E+02  0.45594000000E+02  0.51100000000E-03 0.  1.
    9900012    2    1    2    0    0  0.25679774069E+02  0.34912787908E+02 -0.22956233252E+01  0.47787269105E+02  0.19999991158E+02 0.  0.
         12    1    1    2    0    0 -0.25679774069E+02 -0.34912787908E+02  0.22956233252E+01  0.43400730895E+02  0.00000000000E+00 0. -1.
         11    1    3    3    0    0  0.10337000324E+02  0.26221817794E+02  0.34845911563E+01  0.28400346475E+02  0.51100000000E-03 0. -1.
        -11    1    3    3    0    0  0.13079750141E+01 -0.48591608636E+00 -0.15646002803E+01  0.20963986688E+01  0.51100000000E-03 0.  1.
        -12    1    3    3    0    0  0.14034798731E+02  0.91768862005E+01 -0.42156142013E+01  0.17290523961E+02  0.00000000000E+00 0.  1.
</event>
<event>
 7    1  0.1246400E-009  0.4778726E+02  0.7816164E-02  0.1312668E+00
        -11   -1    0    0    0    0  0.00000000000E+00  0.00000000000E+00  0.45593999997E+02  0.45594000000E+02  0.51100000000E-03 0.  1.
         11   -1    0    0    0    0 -0.00000000000E+00 -0.00000000000E+00 -0.45593999997E+02  0.45594000000E+02  0.51100000000E-03 0. -1.
    9900012    2    1    2    0    0  0.25763214806E+02 -0.28623716778E+02  0.20014088758E+02  0.47787260972E+02  0.19999954078E+02 0.  0.
         12    1    1    2    0    0 -0.25763214806E+02  0.28623716778E+02 -0.20014088758E+02  0.43400739028E+02  0.00000000000E+00 0. -1.
         11    1    3    3    0    0  0.78214220647E+01 -0.21933862638E+01 -0.20494608151E+01  0.83777011351E+01  0.51100000000E-03 0. -1.
        -11    1    3    3    0    0  0.62524739582E+01 -0.84885354587E+01  0.11258916586E+02  0.15424391974E+02  0.51100000000E-03 0.  1.
        -12    1    3    3    0    0  0.11689318784E+02 -0.17941795055E+02  0.10804632987E+02  0.23985167863E+02  0.00000000000E+00 0.  1.
</event>
<event>
 7    1  0.1246400E-009  0.4778727E+02  0.7816164E-02  0.1312668E+00
        -11   -1    0    0    0    0  0.00000000000E+00  0.00000000000E+00  0.45593999997E+02  0.45594000000E+02  0.51100000000E-03 0.  1.
         11   -1    0    0    0    0 -0.00000000000E+00 -0.00000000000E+00 -0.45593999997E+02  0.45594000000E+02  0.51100000000E-03 0. -1.
    9900012    2    1    2    0    0  0.30983172755E+02  0.30388428180E+02  0.45789089186E+00  0.47787271604E+02  0.20000002553E+02 0.  0.
         12    1    1    2    0    0 -0.30983172755E+02 -0.30388428180E+02 -0.45789089186E+00  0.43400728396E+02  0.00000000000E+00 0. -1.
         11    1    3    3    0    0  0.67693017202E+01  0.86961379291E+01  0.38242123938E+01  0.11664941550E+02  0.51100000000E-03 0. -1.
        -11    1    3    3    0    0  0.25536626325E+02  0.16224883016E+02 -0.37372793480E+01  0.30484969577E+02  0.51100000000E-03 0.  1.
        -12    1    3    3    0    0 -0.13227552901E+01  0.54674072352E+01  0.37095784608E+00  0.56373604778E+01  0.00000000000E+00 0.  1.
</event>
<event>
 7    1  0.1246400E-009  0.4778727E+02  0.7816164E-02  0.1312668E+00
        -11   -1    0    0    0    0  0.00000000000E+00  0.00000000000E+00  0.45593999997E+02  0.45594000000E+02  0.51100000000E-03 0.  1.
         11   -1    0    0    0    0 -0.00000000000E+00 -0.00000000000E+00 -0.45593999997E+02  0.45594000000E+02  0.51100000000E-03 0. -1.
    9900012    2    1    2    0    0  0.17989187657E+01  0.18311130167E+02  0.39307628859E+02  0.47787270936E+02  0.19999999507E+02 0.  0.
         12    1    1    2    0    0 -0.17989187657E+01 -0.18311130167E+02 -0.39307628859E+02  0.43400729064E+02  0.00000000000E+00 0. -1.
         11    1    3    3    0    0 -0.11195909063E+01  0.15473264937E+01 -0.65721058670E+00  0.20198091722E+01  0.51100000000E-03 0. -1.
        -11    1    3    3    0    0 -0.23930239595E+00  0.18631231580E+02  0.33649163507E+02  0.38463570568E+02  0.51100000000E-03 0.  1.
         12    1    3    3    0    0  0.31578120680E+01 -0.18674279067E+01  0.63156759390E+01  0.73038911965E+01  0.00000000000E+00 0. -1.
</event>
<event>
 7    1  0.1246400E-009  0.4778728E+02  0.7816164E-02  0.1312668E+00
        -11   -1    0    0    0    0  0.00000000000E+00  0.00000000000E+00  0.45593999997E+02  0.45594000000E+02  0.51100000000E-03 0. -1.
         11   -1    0    0    0    0 -0.00000000000E+00 -0.00000000000E+00 -0.45593999997E+02  0.45594000000E+02  0.51100000000E-03 0.  1.
    9900012    2    1    2    0    0 -0.27294845635E+02  0.20705856251E+02 -0.26643606461E+02  0.47787275967E+02  0.20000022444E+02 0.  0.
         12    1    1    2    0    0  0.27294845635E+02 -0.20705856251E+02  0.26643606461E+02  0.43400724033E+02  0.00000000000E+00 0. -1.
         11    1    3    3    0    0 -0.34760263727E+01  0.60987105662E+01 -0.11665777844E+02  0.13614969809E+02  0.51100000000E-03 0. -1.
        -11    1    3    3    0    0 -0.11612454332E+02  0.13905631051E+02 -0.63065274334E+01  0.19183012252E+02  0.51100000000E-03 0.  1.
         12    1    3    3    0    0 -0.12206364930E+02  0.70151463428E+00 -0.86713011828E+01  0.14989293906E+02  0.00000000000E+00 0. -1.
</event>
<event>
 7    1  0.1246400E-009  0.4778726E+02  0.7816164E-02  0.1312668E+00
        -11   -1    0    0    0    0  0.00000000000E+00  0.00000000000E+00  0.45593999997E+02  0.45594000000E+02  0.51100000000E-03 0. -1.
         11   -1    0    0    0    0 -0.00000000000E+00 -0.00000000000E+00 -0.45593999997E+02  0.45594000000E+02  0.51100000000E-03 0.  1.
    9900012    2    1    2    0    0  0.77342939189E+01  0.42618163616E+02  0.27380195296E+01  0.47787263562E+02  0.19999965884E+02 0.  0.
         12    1    1    2    0    0 -0.77342939189E+01 -0.42618163616E+02 -0.27380195296E+01  0.43400736438E+02  0.00000000000E+00 0. -1.
         11    1    3    3    0    0  0.23034769126E+01  0.29655493182E+00  0.21731026995E+01  0.31806172857E+01  0.51100000000E-03 0.  1.
        -11    1    3    3    0    0 -0.18382741259E+00  0.30904053113E+02  0.46303038695E+01  0.31249544084E+02  0.51100000000E-03 0. -1.
         12    1    3    3    0    0  0.56146444189E+01  0.11417555572E+02 -0.40653870395E+01  0.13357102192E+02  0.00000000000E+00 0. -1.
</event>
<event>
 7    1  0.1246400E-009  0.4778727E+02  0.7816164E-02  0.1312668E+00
        -11   -1    0    0    0    0  0.00000000000E+00  0.00000000000E+00  0.45593999997E+02  0.45594000000E+02  0.51100000000E-03 0.  1.
         11   -1    0    0    0    0 -0.00000000000E+00 -0.00000000000E+00 -0.45593999997E+02  0.45594000000E+02  0.51100000000E-03 0. -1.
    9900012    2    1    2    0    0 -0.14199182274E+02 -0.23830659114E+02  0.33378231728E+02  0.47787269081E+02  0.19999991046E+02 0.  0.
         12    1    1    2    0    0  0.14199182274E+02  0.23830659114E+02 -0.33378231728E+02  0.43400730919E+02  0.00000000000E+00 0. -1.
         11    1    3    3    0    0  0.18831290433E+01 -0.64848758769E+01  0.56180007523E+01  0.87841745683E+01  0.51100000000E-03 0. -1.
        -11    1    3    3    0    0 -0.15635234832E+02 -0.19325129298E+02  0.23159570004E+02  0.33974797625E+02  0.51100000000E-03 0.  1.
         12    1    3    3    0    0 -0.44707648568E+00  0.19793460607E+01  0.46006609717E+01  0.50282968874E+01  0.00000000000E+00 0. -1.
</event>
<event>
 7    1  0.1246400E-009  0.4778727E+02  0.7816164E-02  0.1312668E+00
        -11   -1    0    0    0    0  0.00000000000E+00  0.00000000000E+00  0.45593999997E+02  0.45594000000E+02  0.51100000000E-03 0.  1.
         11   -1    0    0    0    0 -0.00000000000E+00 -0.00000000000E+00 -0.45593999997E+02  0.45594000000E+02  0.51100000000E-03 0. -1.
    9900012    2    1    2    0    0  0.18738334589E+02  0.34798005212E+02  0.17933122916E+02  0.47787271349E+02  0.20000001390E+02 0.  0.
         12    1    1    2    0    0 -0.18738334589E+02 -0.34798005212E+02 -0.17933122916E+02  0.43400728651E+02  0.00000000000E+00 0. -1.
         11    1    3    3    0    0  0.37042371573E+01  0.80725212647E+01 -0.10735403744E+01  0.89464776132E+01  0.51100000000E-03 0. -1.
        -11    1    3    3    0    0  0.13392581063E+02  0.28285388959E+02  0.18928934239E+02  0.36574977892E+02  0.51100000000E-03 0.  1.
         12    1    3    3    0    0  0.16415163687E+01 -0.15599050121E+01  0.77729051708E-01  0.22658158445E+01  0.00000000000E+00 0. -1.
</event>
<event>
 7    1  0.1246400E-009  0.4778728E+02  0.7816164E-02  0.1312668E+00
        -11   -1    0    0    0    0  0.00000000000E+00  0.00000000000E+00  0.45593999997E+02  0.45594000000E+02  0.51100000000E-03 0. -1.
         11   -1    0    0    0    0 -0.00000000000E+00 -0.00000000000E+00 -0.45593999997E+02  0.45594000000E+02  0.51100000000E-03 0.  1.
    9900012    2    1    2    0    0  0.24893343070E+02  0.33524639093E+02 -0.11833959318E+02  0.47787279400E+02  0.20000038094E+02 0.  0.
         12    1    1    2    0    0 -0.24893343070E+02 -0.33524639093E+02  0.11833959318E+02  0.43400720600E+02  0.00000000000E+00 0. -1.
         11    1    3    3    0    0  0.88044416001E+01  0.19063663707E+02 -0.33346452156E+01  0.21261733814E+02  0.51100000000E-03 0. -1.
        -11    1    3    3    0    0  0.11000116785E+02  0.11106719728E+02 -0.11807976244E+02  0.19590561392E+02  0.51100000000E-03 0.  1.
         12    1    3    3    0    0  0.50887846849E+01  0.33542556579E+01  0.33086621424E+01  0.69349841932E+01  0.00000000000E+00 0. -1.
</event>
<event>
 7    1  0.1246400E-009  0.4778726E+02  0.7816164E-02  0.1312668E+00
        -11   -1    0    0    0    0  0.00000000000E+00  0.00000000000E+00  0.45593999997E+02  0.45594000000E+02  0.51100000000E-03 0.  1.
         11   -1    0    0    0    0 -0.00000000000E+00 -0.00000000000E+00 -0.45593999997E+02  0.45594000000E+02  0.51100000000E-03 0. -1.
    9900012    2    1    2    0    0 -0.12966546440E+02  0.41204898686E+02 -0.42010732779E+01  0.47787262460E+02  0.19999960862E+02 0.  0.
         12    1    1    2    0    0  0.12966546440E+02 -0.41204898686E+02  0.42010732779E+01  0.43400737540E+02  0.00000000000E+00 0. -1.
         11    1    3    3    0    0 -0.16459738189E+01  0.16674830474E+01  0.66827973349E+00  0.24364580007E+01  0.51100000000E-03 0. -1.
        -11    1    3    3    0    0  0.10651323212E+01 -0.16566419153E+01  0.41168024538E+00  0.20120760877E+01  0.51100000000E-03 0.  1.
         12    1    3    3    0    0 -0.12385704942E+02  0.41194057554E+02 -0.52810332567E+01  0.43338728372E+02  0.00000000000E+00 0. -1.
</event>
<event>
 7    1  0.1246400E-009  0.4778726E+02  0.7816164E-02  0.1312668E+00
        -11   -1    0    0    0    0  0.00000000000E+00  0.00000000000E+00  0.45593999997E+02  0.45594000000E+02  0.51100000000E-03 0. -1.
         11   -1    0    0    0    0 -0.00000000000E+00 -0.00000000000E+00 -0.45593999997E+02  0.45594000000E+02  0.51100000000E-03 0.  1.
    9900012    2    1    2    0    0  0.27481956510E+02  0.25341119428E+02  0.22049809111E+02  0.47787258655E+02  0.19999943511E+02 0.  0.
         12    1    1    2    0    0 -0.27481956510E+02 -0.25341119428E+02 -0.22049809111E+02  0.43400741345E+02  0.00000000000E+00 0. -1.
         11    1    3    3    0    0  0.54178536999E+01  0.16916282942E+02  0.14002527689E+02  0.22618234883E+02  0.51100000000E-03 0. -1.
        -11    1    3    3    0    0  0.11805265327E+02  0.46228078131E+01  0.60493054118E+01  0.14047374763E+02  0.51100000000E-03 0.  1.
         12    1    3    3    0    0  0.10258837483E+02  0.38020286727E+01  0.19979760108E+01  0.11121649008E+02  0.00000000000E+00 0. -1.
</event>
<event>
 7    1  0.1246400E-009  0.4778727E+02  0.7816164E-02  0.1312668E+00
        -11   -1    0    0    0    0  0.00000000000E+00  0.00000000000E+00  0.45593999997E+02  0.45594000000E+02  0.51100000000E-03 0.  1.
         11   -1    0    0    0    0 -0.00000000000E+00 -0.00000000000E+00 -0.45593999997E+02  0.45594000000E+02  0.51100000000E-03 0. -1.
    9900012    2    1    2    0    0 -0.31767422953E+02 -0.23927837991E+02 -0.17375632971E+02  0.47787271744E+02  0.20000003189E+02 0.  0.
         12    1    1    2    0    0  0.31767422953E+02  0.23927837991E+02  0.17375632971E+02  0.43400728256E+02  0.00000000000E+00 0. -1.
         11    1    3    3    0    0 -0.50618130149E+00 -0.15130158165E+01 -0.72003939845E+01  0.73750328924E+01  0.51100000000E-03 0. -1.
        -11    1    3    3    0    0 -0.10581313466E+02 -0.40116942947E+01 -0.15813840844E+01  0.11426226921E+02  0.51100000000E-03 0.  1.
        -12    1    3    3    0    0 -0.20679928186E+02 -0.18403127880E+02 -0.85938549024E+01  0.28986011930E+02  0.00000000000E+00 0.  1.
</event>
<event>
 7    1  0.1246400E-009  0.4778727E+02  0.7816164E-02  0.1312668E+00
        -11   -1    0    0    0    0  0.00000000000E+00  0.00000000000E+00  0.45593999997E+02  0.45594000000E+02  0.51100000000E-03 0. -1.
         11   -1    0    0    0    0 -0.00000000000E+00 -0.00000000000E+00 -0.45593999997E+02  0.45594000000E+02  0.51100000000E-03 0.  1.
    9900012    2    1    2    0    0 -0.44245451164E+00 -0.25575582661E+02 -0.35061617131E+02  0.47787272007E+02  0.20000004391E+02 0.  0.
         12    1    1    2    0    0  0.44245451164E+00  0.25575582661E+02  0.35061617131E+02  0.43400727993E+02  0.00000000000E+00 0. -1.
         11    1    3    3    0    0 -0.45281419570E+01 -0.18047414458E+02 -0.11265840572E+02  0.21751606889E+02  0.51100000000E-03 0. -1.
        -11    1    3    3    0    0 -0.12174780252E+01 -0.14019144244E+01 -0.87698470499E+01  0.89642531387E+01  0.51100000000E-03 0.  1.
        -12    1    3    3    0    0  0.53031654706E+01 -0.61262537782E+01 -0.15025929509E+02  0.17071411979E+02  0.00000000000E+00 0.  1.
</event>
<event>
 7    1  0.1246400E-009  0.4778727E+02  0.7816164E-02  0.1312668E+00
        -11   -1    0    0    0    0  0.00000000000E+00  0.00000000000E+00  0.45593999997E+02  0.45594000000E+02  0.51100000000E-03 0.  1.
         11   -1    0    0    0    0 -0.00000000000E+00 -0.00000000000E+00 -0.45593999997E+02  0.45594000000E+02  0.51100000000E-03 0. -1.
    9900012    2    1    2    0    0  0.22324086580E+02 -0.31600346780E+02  0.19664087078E+02  0.47787273291E+02  0.20000010243E+02 0.  0.
         12    1    1    2    0    0 -0.22324086580E+02  0.31600346780E+02 -0.19664087078E+02  0.43400726709E+02  0.00000000000E+00 0. -1.
         11    1    3    3    0    0  0.44172876423E+01 -0.66662268772E+00  0.20072901067E+01  0.48975534460E+01  0.51100000000E-03 0. -1.
        -11    1    3    3    0    0  0.14684053368E+02 -0.12718506292E+02  0.38427260428E+01  0.19802736410E+02  0.51100000000E-03 0.  1.
         12    1    3    3    0    0  0.32227455702E+01 -0.18215217800E+02  0.13814070929E+02  0.23086983435E+02  0.00000000000E+00 0. -1.
</event>
<event>
 7    1  0.1246400E-009  0.4778726E+02  0.7816164E-02  0.1312668E+00
        -11   -1    0    0    0    0  0.00000000000E+00  0.00000000000E+00  0.45593999997E+02  0.45594000000E+02  0.51100000000E-03 0.  1.
         11   -1    0    0    0    0 -0.00000000000E+00 -0.00000000000E+00 -0.45593999997E+02  0.45594000000E+02  0.51100000000E-03 0. -1.
    9900012    2    1    2    0    0 -0.21993609095E+01  0.32361386048E+02  0.28836218932E+02  0.47787262476E+02  0.19999960932E+02 0.  0.
         12    1    1    2    0    0  0.21993609095E+01 -0.32361386048E+02 -0.28836218932E+02  0.43400737524E+02  0.00000000000E+00 0. -1.
         11    1    3    3    0    0 -0.66720815286E+01  0.10810085203E+02  0.15042391005E+02  0.19688782122E+02  0.51100000000E-03 0. -1.
        -11    1    3    3    0    0  0.51033119293E+01  0.55084435698E+01  0.81455714350E+01  0.11078676702E+02  0.51100000000E-03 0.  1.
         12    1    3    3    0    0 -0.63059131015E+00  0.16042857275E+02  0.56482564917E+01  0.17019803652E+02  0.00000000000E+00 0. -1.
</event>
<event>
 7    1  0.1246400E-009  0.4778727E+02  0.7816164E-02  0.1312668E+00
        -11   -1    0    0    0    0  0.00000000000E+00  0.00000000000E+00  0.45593999997E+02  0.45594000000E+02  0.51100000000E-03 0.  1.
         11   -1    0    0    0    0 -0.00000000000E+00 -0.00000000000E+00 -0.45593999997E+02  0.45594000000E+02  0.51100000000E-03 0. -1.
    9900012    2    1    2    0    0 -0.17868396081E+02  0.15016545869E+02  0.36590259379E+02  0.47787270631E+02  0.19999998113E+02 0.  0.
         12    1    1    2    0    0  0.17868396081E+02 -0.15016545869E+02 -0.36590259379E+02  0.43400729369E+02  0.00000000000E+00 0. -1.
         11    1    3    3    0    0 -0.17464578571E+02  0.11042857738E+02  0.36835794439E+02  0.42235434932E+02  0.51100000000E-03 0.  1.
        -11    1    3    3    0    0  0.14575031433E+01  0.20491032638E+01  0.85655638991E+00  0.26564692185E+01  0.51100000000E-03 0. -1.
        -12    1    3    3    0    0 -0.18613206542E+01  0.19245848675E+01 -0.11020914501E+01  0.28953664801E+01  0.00000000000E+00 0.  1.
</event>
<event>
 7    1  0.1246400E-009  0.4778726E+02  0.7816164E-02  0.1312668E+00
        -11   -1    0    0    0    0  0.00000000000E+00  0.00000000000E+00  0.45593999997E+02  0.45594000000E+02  0.51100000000E-03 0. -1.
         11   -1    0    0    0    0 -0.00000000000E+00 -0.00000000000E+00 -0.45593999997E+02  0.45594000000E+02  0.51100000000E-03 0.  1.
    9900012    2    1    2    0    0 -0.17019340259E+02  0.28774809510E+02  0.27676279099E+02  0.47787262334E+02  0.19999960288E+02 0.  0.
         12    1    1    2    0    0  0.17019340259E+02 -0.28774809510E+02 -0.27676279099E+02  0.43400737666E+02  0.00000000000E+00 0. -1.
         11    1    3    3    0    0 -0.39337364908E+01  0.95132869834E+01  0.12703243148E+02  0.16350819513E+02  0.51100000000E-03 0.  1.
        -11    1    3    3    0    0 -0.11593030505E+02  0.20528269154E+02  0.16647109973E+02  0.28860603969E+02  0.51100000000E-03 0. -1.
         12    1    3    3    0    0 -0.14925732625E+01 -0.12667466276E+01 -0.16740740220E+01  0.25758388524E+01  0.00000000000E+00 0. -1.
</event>
<event>
 7    1  0.1246400E-009  0.4778727E+02  0.7816164E-02  0.1312668E+00
        -11   -1    0    0    0    0  0.00000000000E+00  0.00000000000E+00  0.45593999997E+02  0.45594000000E+02  0.51100000000E-03 0.  1.
         11   -1    0    0    0    0 -0.00000000000E+00 -0.00000000000E+00 -0.45593999997E+02  0.45594000000E+02  0.51100000000E-03 0. -1.
    9900012    2    1    2    0    0 -0.39812037370E+02  0.16777698710E+02  0.41393006345E+01  0.47787270706E+02  0.19999998456E+02 0.  0.
         12    1    1    2    0    0  0.39812037370E+02 -0.16777698710E+02 -0.41393006345E+01  0.43400729294E+02  0.00000000000E+00 0. -1.
         11    1    3    3    0    0 -0.30055353990E+01 -0.38635237903E+01  0.10565122217E+01  0.50076219355E+01  0.51100000000E-03 0. -1.
        -11    1    3    3    0    0 -0.14524143765E+02  0.83837958147E+01 -0.18583906163E+01  0.16872830240E+02  0.51100000000E-03 0.  1.
        -12    1    3    3    0    0 -0.22282358206E+02  0.12257426685E+02  0.49411790291E+01  0.25906818530E+02  0.00000000000E+00 0.  1.
</event>
<event>
 7    1  0.1246400E-009  0.4778728E+02  0.7816164E-02  0.1312668E+00
        -11   -1    0    0    0    0  0.00000000000E+00  0.00000000000E+00  0.45593999997E+02  0.45594000000E+02  0.51100000000E-03 0. -1.
         11   -1    0    0    0    0 -0.00000000000E+00 -0.00000000000E+00 -0.45593999997E+02  0.45594000000E+02  0.51100000000E-03 0.  1.
    9900012    2    1    2    0    0  0.10575446790E+02 -0.23005228934E+01 -0.42029637134E+02  0.47787275604E+02  0.20000020791E+02 0.  0.
         12    1    1    2    0    0 -0.10575446790E+02  0.23005228934E+01  0.42029637134E+02  0.43400724396E+02  0.00000000000E+00 0. -1.
         11    1    3    3    0    0  0.80260322927E+01  0.62901703453E+01 -0.13579269383E+02  0.16981754756E+02  0.51100000000E-03 0. -1.
        -11    1    3    3    0    0 -0.10841920518E+01 -0.34411502281E+01 -0.33408839848E+01  0.49171631413E+01  0.51100000000E-03 0.  1.
        -12    1    3    3    0    0  0.36336065494E+01 -0.51495430106E+01 -0.25109483766E+02  0.25888357707E+02  0.00000000000E+00 0.  1.
</event>
<event>
 7    1  0.1246400E-009  0.4778727E+02  0.7816164E-02  0.1312668E+00
        -11   -1    0    0    0    0  0.00000000000E+00  0.00000000000E+00  0.45593999997E+02  0.45594000000E+02  0.51100000000E-03 0.  1.
         11   -1    0    0    0    0 -0.00000000000E+00 -0.00000000000E+00 -0.45593999997E+02  0.45594000000E+02  0.51100000000E-03 0. -1.
    9900012    2    1    2    0    0  0.23835057762E+02 -0.20089209012E+02  0.30198298847E+02  0.47787267858E+02  0.19999985473E+02 0.  0.
         12    1    1    2    0    0 -0.23835057762E+02  0.20089209012E+02 -0.30198298847E+02  0.43400732142E+02  0.00000000000E+00 0. -1.
         11    1    3    3    0    0  0.79983784135E+01 -0.50585199232E+01  0.16908411090E+02  0.19376714038E+02  0.51100000000E-03 0. -1.
        -11    1    3    3    0    0  0.13848444238E+02 -0.50901896896E+01  0.60166452962E+01  0.15933909117E+02  0.51100000000E-03 0.  1.
        -12    1    3    3    0    0  0.19882351103E+01 -0.99404993987E+01  0.72732424603E+01  0.12476644703E+02  0.00000000000E+00 0.  1.
</event>
<event>
 7    1  0.1246400E-009  0.4778727E+02  0.7816164E-02  0.1312668E+00
        -11   -1    0    0    0    0  0.00000000000E+00  0.00000000000E+00  0.45593999997E+02  0.45594000000E+02  0.51100000000E-03 0. -1.
         11   -1    0    0    0    0 -0.00000000000E+00 -0.00000000000E+00 -0.45593999997E+02  0.45594000000E+02  0.51100000000E-03 0.  1.
    9900012    2    1    2    0    0 -0.15428173170E+02  0.37928442980E+02 -0.14388465557E+02  0.47787271258E+02  0.20000000974E+02 0.  0.
         12    1    1    2    0    0  0.15428173170E+02 -0.37928442980E+02  0.14388465557E+02  0.43400728742E+02  0.00000000000E+00 0. -1.
         11    1    3    3    0    0 -0.93319786405E+01  0.20460569741E+02 -0.91802848806E+01  0.24289882054E+02  0.51100000000E-03 0. -1.
        -11    1    3    3    0    0 -0.60202597958E+01  0.63210413447E+00 -0.90919570749E+00  0.61212515666E+01  0.51100000000E-03 0.  1.
         12    1    3    3    0    0 -0.75934734011E-01  0.16835769105E+02 -0.42989849686E+01  0.17376137637E+02  0.00000000000E+00 0. -1.
</event>
<event>
 7    1  0.1246400E-009  0.4778727E+02  0.7816164E-02  0.1312668E+00
        -11   -1    0    0    0    0  0.00000000000E+00  0.00000000000E+00  0.45593999997E+02  0.45594000000E+02  0.51100000000E-03 0.  1.
         11   -1    0    0    0    0 -0.00000000000E+00 -0.00000000000E+00 -0.45593999997E+02  0.45594000000E+02  0.51100000000E-03 0. -1.
    9900012    2    1    2    0    0 -0.14162155861E+02 -0.14860995652E+02  0.38238822242E+02  0.47787269858E+02  0.19999994592E+02 0.  0.
         12    1    1    2    0    0  0.14162155861E+02  0.14860995652E+02 -0.38238822242E+02  0.43400730142E+02  0.00000000000E+00 0. -1.
         11    1    3    3    0    0 -0.62338078937E+00 -0.50057012113E+00  0.10913946820E+02  0.10943190098E+02  0.51100000000E-03 0. -1.
        -11    1    3    3    0    0 -0.64072128796E+01 -0.12296720726E+02  0.76967279824E+01  0.15858793756E+02  0.51100000000E-03 0.  1.
         12    1    3    3    0    0 -0.71315621917E+01 -0.20637048052E+01  0.19628147439E+02  0.20985286005E+02  0.00000000000E+00 0. -1.
</event>
<event>
 7    1  0.1246400E-009  0.4778726E+02  0.7816164E-02  0.1312668E+00
        -11   -1    0    0    0    0  0.00000000000E+00  0.00000000000E+00  0.45593999997E+02  0.45594000000E+02  0.51100000000E-03 0.  1.
         11   -1    0    0    0    0 -0.00000000000E+00 -0.00000000000E+00 -0.45593999997E+02  0.45594000000E+02  0.51100000000E-03 0. -1.
    9900012    2    1    2    0    0 -0.15524953756E+02  0.36049325928E+02  0.18521497251E+02  0.47787263262E+02  0.19999964517E+02 0.  0.
         12    1    1    2    0    0  0.15524953756E+02 -0.36049325928E+02 -0.18521497251E+02  0.43400736738E+02  0.00000000000E+00 0. -1.
         11    1    3    3    0    0 -0.10717006395E+02  0.57711974914E+01  0.50089217218E+01  0.13162455836E+02  0.51100000000E-03 0. -1.
        -11    1    3    3    0    0  0.24039702356E+01  0.86141958981E+01  0.50743837762E+01  0.10282646295E+02  0.51100000000E-03 0.  1.
        -12    1    3    3    0    0 -0.72119175960E+01  0.21663932539E+02  0.84381917529E+01  0.24342161131E+02  0.00000000000E+00 0.  1.
</event>
<event>
 7    1  0.1246400E-009  0.4778727E+02  0.7816164E-02  0.1312668E+00
        -11   -1    0    0    0    0  0.00000000000E+00  0.00000000000E+00  0.45593999997E+02  0.45594000000E+02  0.51100000000E-03 0.  1.
         11   -1    0    0    0    0 -0.00000000000E+00 -0.00000000000E+00 -0.45593999997E+02  0.45594000000E+02  0.51100000000E-03 0. -1.
    9900012    2    1    2    0    0 -0.27324250188E+02  0.10449539020E+02  0.32059567269E+02  0.47787269965E+02  0.19999995079E+02 0.  0.
         12    1    1    2    0    0  0.27324250188E+02 -0.10449539020E+02 -0.32059567269E+02  0.43400730035E+02  0.00000000000E+00 0. -1.
         11    1    3    3    0    0  0.16844418717E+01 -0.16989046432E+01  0.40170846295E+01  0.46755310487E+01  0.51100000000E-03 0. -1.
        -11    1    3    3    0    0 -0.95146947217E+01  0.63053442860E+01  0.52739628699E+01  0.12573840576E+02  0.51100000000E-03 0.  1.
        -12    1    3    3    0    0 -0.19493997338E+02  0.58430993772E+01  0.22768519770E+02  0.30537898341E+02  0.00000000000E+00 0.  1.
</event>
<event>
 7    1  0.1246400E-009  0.4778728E+02  0.7816164E-02  0.1312668E+00
        -11   -1    0    0    0    0  0.00000000000E+00  0.00000000000E+00  0.45593999997E+02  0.45594000000E+02  0.51100000000E-03 0.  1.
         11   -1    0    0    0    0 -0.00000000000E+00 -0.00000000000E+00 -0.45593999997E+02  0.45594000000E+02  0.51100000000E-03 0. -1.
    9900012    2    1    2    0    0 -0.17001569268E+02 -0.12555983388E+02  0.37906685570E+02  0.47787275498E+02  0.20000020306E+02 0.  0.
         12    1    1    2    0    0  0.17001569268E+02  0.12555983388E+02 -0.37906685570E+02  0.43400724502E+02  0.00000000000E+00 0. -1.
         11    1    3    3    0    0  0.90577298790E+00 -0.18924870117E+01  0.10876257807E+01  0.23632312403E+01  0.51100000000E-03 0. -1.
        -11    1    3    3    0    0 -0.20153955594E+02 -0.54464435301E+01  0.29997818469E+02  0.36547432008E+02  0.51100000000E-03 0.  1.
        -12    1    3    3    0    0  0.22466133385E+01 -0.52170528458E+01  0.68212413202E+01  0.88766122500E+01  0.00000000000E+00 0.  1.
</event>
<event>
 7    1  0.1565875E-009  0.4778727E+02  0.7816164E-02  0.1312668E+00
        -11   -1    0    0    0    0  0.00000000000E+00  0.00000000000E+00  0.45593999997E+02  0.45594000000E+02  0.51100000000E-03 0.  1.
         11   -1    0    0    0    0 -0.00000000000E+00 -0.00000000000E+00 -0.45593999997E+02  0.45594000000E+02  0.51100000000E-03 0. -1.
    9900012    2    1    2    0    0  0.27536073014E+02  0.32230319712E+02  0.93056083337E+01  0.47787272215E+02  0.20000005339E+02 0.  0.
         12    1    1    2    0    0 -0.27536073014E+02 -0.32230319712E+02 -0.93056083337E+01  0.43400727785E+02  0.00000000000E+00 0. -1.
         11    1    3    3    0    0  0.61400897948E+00  0.53973659087E+01 -0.28261809355E+01  0.61233867035E+01  0.51100000000E-03 0. -1.
        -11    1    3    3    0    0  0.17104869774E+02  0.22650114917E+02  0.49772091934E+01  0.28816260815E+02  0.51100000000E-03 0.  1.
        -12    1    3    3    0    0  0.98171942603E+01  0.41828388865E+01  0.71545800759E+01  0.12847624697E+02  0.00000000000E+00 0.  1.
</event>
<event>
 7    1  0.1246400E-009  0.4778727E+02  0.7816164E-02  0.1312668E+00
        -11   -1    0    0    0    0  0.00000000000E+00  0.00000000000E+00  0.45593999997E+02  0.45594000000E+02  0.51100000000E-03 0.  1.
         11   -1    0    0    0    0 -0.00000000000E+00 -0.00000000000E+00 -0.45593999997E+02  0.45594000000E+02  0.51100000000E-03 0. -1.
    9900012    2    1    2    0    0  0.36788730513E+02 -0.22227606618E+02 -0.60121594730E+01  0.47787271317E+02  0.20000001243E+02 0.  0.
         12    1    1    2    0    0 -0.36788730513E+02  0.22227606618E+02  0.60121594730E+01  0.43400728683E+02  0.00000000000E+00 0. -1.
         11    1    3    3    0    0  0.17935910395E+02 -0.16523602438E+02 -0.88657281808E+01  0.25948554019E+02  0.51100000000E-03 0. -1.
        -11    1    3    3    0    0  0.17126014883E+02 -0.56442649019E+01 -0.52954729884E+00  0.18039914985E+02  0.51100000000E-03 0.  1.
         12    1    3    3    0    0  0.17268052341E+01 -0.59739277517E-01  0.33831160066E+01  0.37988023128E+01  0.00000000000E+00 0. -1.
</event>
<event>
 7    1  0.1246400E-009  0.4778727E+02  0.7816164E-02  0.1312668E+00
        -11   -1    0    0    0    0  0.00000000000E+00  0.00000000000E+00  0.45593999997E+02  0.45594000000E+02  0.51100000000E-03 0. -1.
         11   -1    0    0    0    0 -0.00000000000E+00 -0.00000000000E+00 -0.45593999997E+02  0.45594000000E+02  0.51100000000E-03 0.  1.
    9900012    2    1    2    0    0 -0.18774818410E+01 -0.19532086140E+01 -0.43316087561E+02  0.47787269551E+02  0.19999993190E+02 0.  0.
         12    1    1    2    0    0  0.18774818410E+01  0.19532086140E+01  0.43316087561E+02  0.43400730449E+02  0.00000000000E+00 0. -1.
         11    1    3    3    0    0  0.47068291783E+00  0.31298962201E+01 -0.24286514595E+01  0.39895038452E+01  0.51100000000E-03 0. -1.
        -11    1    3    3    0    0 -0.36490579362E+01 -0.65916279388E+01 -0.41108804369E+02  0.41793527964E+02  0.51100000000E-03 0.  1.
        -12    1    3    3    0    0  0.13008931774E+01  0.15085231047E+01  0.22136826823E+00  0.20042377420E+01  0.00000000000E+00 0.  1.
</event>
<event>
 7    1  0.1246400E-009  0.4778727E+02  0.7816164E-02  0.1312668E+00
        -11   -1    0    0    0    0  0.00000000000E+00  0.00000000000E+00  0.45593999997E+02  0.45594000000E+02  0.51100000000E-03 0.  1.
         11   -1    0    0    0    0 -0.00000000000E+00 -0.00000000000E+00 -0.45593999997E+02  0.45594000000E+02  0.51100000000E-03 0. -1.
    9900012    2    1    2    0    0  0.21391194591E+02 -0.76772221671E+01  0.36974317482E+02  0.47787273053E+02  0.20000009159E+02 0.  0.
         12    1    1    2    0    0 -0.21391194591E+02  0.76772221671E+01 -0.36974317482E+02  0.43400726947E+02  0.00000000000E+00 0. -1.
         11    1    3    3    0    0  0.47436766793E+01 -0.30784744962E+01  0.20658448613E+01  0.60205638369E+01  0.51100000000E-03 0. -1.
        -11    1    3    3    0    0  0.19052552200E+02 -0.20676334722E+01  0.31596657719E+02  0.36954345249E+02  0.51100000000E-03 0.  1.
        -12    1    3    3    0    0 -0.24050342876E+01 -0.25311141987E+01  0.33118149013E+01  0.48123639671E+01  0.00000000000E+00 0.  1.
</event>
<event>
 7    1  0.1246400E-009  0.4778727E+02  0.7816164E-02  0.1312668E+00
        -11   -1    0    0    0    0  0.00000000000E+00  0.00000000000E+00  0.45593999997E+02  0.45594000000E+02  0.51100000000E-03 0. -1.
         11   -1    0    0    0    0 -0.00000000000E+00 -0.00000000000E+00 -0.45593999997E+02  0.45594000000E+02  0.51100000000E-03 0.  1.
    9900012    2    1    2    0    0  0.68794487152E+01  0.28310013256E+02 -0.32168924414E+02  0.47787270016E+02  0.19999995313E+02 0.  0.
         12    1    1    2    0    0 -0.68794487152E+01 -0.28310013256E+02  0.32168924414E+02  0.43400729984E+02  0.00000000000E+00 0. -1.
         11    1    3    3    0    0  0.88438484654E+01  0.18726525953E+02 -0.96136233376E+01  0.22832393302E+02  0.51100000000E-03 0. -1.
        -11    1    3    3    0    0  0.10324838897E+01  0.19977361649E+01 -0.75290656229E+01  0.78577224551E+01  0.51100000000E-03 0.  1.
        -12    1    3    3    0    0 -0.29968836398E+01  0.75857511382E+01 -0.15026235453E+02  0.17097154260E+02  0.00000000000E+00 0.  1.
</event>
<event>
 7    1  0.1246400E-009  0.4778725E+02  0.7816164E-02  0.1312668E+00
        -11   -1    0    0    0    0  0.00000000000E+00  0.00000000000E+00  0.45593999997E+02  0.45594000000E+02  0.51100000000E-03 0.  1.
         11   -1    0    0    0    0 -0.00000000000E+00 -0.00000000000E+00 -0.45593999997E+02  0.45594000000E+02  0.51100000000E-03 0. -1.
    9900012    2    1    2    0    0  0.11904193024E+02  0.37562600924E+01  0.41566887535E+02  0.47787246080E+02  0.19999886179E+02 0.  0.
         12    1    1    2    0    0 -0.11904193024E+02 -0.37562600924E+01 -0.41566887535E+02  0.43400753920E+02  0.00000000000E+00 0. -1.
         11    1    3    3    0    0  0.59321861417E+01  0.44087000395E+01  0.46413421575E+01  0.87275154392E+01  0.51100000000E-03 0. -1.
        -11    1    3    3    0    0 -0.58716913536E+00  0.43283331822E+01  0.15569767986E+02  0.16170866122E+02  0.51100000000E-03 0.  1.
         12    1    3    3    0    0  0.65591760175E+01 -0.49807731292E+01  0.21355777391E+02  0.22888864519E+02  0.00000000000E+00 0. -1.
</event>
<event>
 7    1  0.1246400E-009  0.4778727E+02  0.7816164E-02  0.1312668E+00
        -11   -1    0    0    0    0  0.00000000000E+00  0.00000000000E+00  0.45593999997E+02  0.45594000000E+02  0.51100000000E-03 0. -1.
         11   -1    0    0    0    0 -0.00000000000E+00 -0.00000000000E+00 -0.45593999997E+02  0.45594000000E+02  0.51100000000E-03 0.  1.
    9900012    2    1    2    0    0  0.22204549650E+02  0.99946370280E+01 -0.35926156231E+02  0.47787268486E+02  0.19999988334E+02 0.  0.
         12    1    1    2    0    0 -0.22204549650E+02 -0.99946370280E+01  0.35926156231E+02  0.43400731514E+02  0.00000000000E+00 0. -1.
         11    1    3    3    0    0  0.85130113009E+01  0.78142624660E+00 -0.75580545060E+01  0.11410792109E+02  0.51100000000E-03 0. -1.
        -11    1    3    3    0    0  0.13669967127E+02  0.34450796315E+01 -0.10437036540E+02  0.17540476246E+02  0.51100000000E-03 0.  1.
        -12    1    3    3    0    0  0.21571222016E-01  0.57681311499E+01 -0.17931065184E+02  0.18836000131E+02  0.00000000000E+00 0.  1.
</event>
<event>
 7    1  0.1246400E-009  0.4778727E+02  0.7816164E-02  0.1312668E+00
        -11   -1    0    0    0    0  0.00000000000E+00  0.00000000000E+00  0.45593999997E+02  0.45594000000E+02  0.51100000000E-03 0. -1.
         11   -1    0    0    0    0 -0.00000000000E+00 -0.00000000000E+00 -0.45593999997E+02  0.45594000000E+02  0.51100000000E-03 0.  1.
    9900012    2    1    2    0    0 -0.27803602402E+02 -0.28506483502E+02 -0.17261608126E+02  0.47787273932E+02  0.20000013165E+02 0.  0.
         12    1    1    2    0    0  0.27803602402E+02  0.28506483502E+02  0.17261608126E+02  0.43400726068E+02  0.00000000000E+00 0. -1.
         11    1    3    3    0    0 -0.48305493006E+01  0.13363804754E+01 -0.32873113519E+01  0.59938748324E+01  0.51100000000E-03 0. -1.
        -11    1    3    3    0    0 -0.19864305789E+02 -0.16967448345E+02 -0.86722375427E+01  0.27526217541E+02  0.51100000000E-03 0.  1.
         12    1    3    3    0    0 -0.31087473119E+01 -0.12875415632E+02 -0.53020592313E+01  0.14267181559E+02  0.00000000000E+00 0. -1.
</event>
<event>
 7    1  0.1246400E-009  0.4778727E+02  0.7816164E-02  0.1312668E+00
        -11   -1    0    0    0    0  0.00000000000E+00  0.00000000000E+00  0.45593999997E+02  0.45594000000E+02  0.51100000000E-03 0.  1.
         11   -1    0    0    0    0 -0.00000000000E+00 -0.00000000000E+00 -0.45593999997E+02  0.45594000000E+02  0.51100000000E-03 0. -1.
    9900012    2    1    2    0    0  0.86405591409E+00  0.45699402134E+01  0.43150813639E+02  0.47787266551E+02  0.19999979513E+02 0.  0.
         12    1    1    2    0    0 -0.86405591409E+00 -0.45699402134E+01 -0.43150813639E+02  0.43400733449E+02  0.00000000000E+00 0. -1.
         11    1    3    3    0    0 -0.12783780640E+00 -0.47173157553E+01  0.59888121450E+01  0.76246496056E+01  0.51100000000E-03 0. -1.
        -11    1    3    3    0    0  0.37000944955E+01  0.30720997956E+01  0.29675261826E+02  0.30062429395E+02  0.51100000000E-03 0.  1.
         12    1    3    3    0    0 -0.27082007750E+01  0.62151561731E+01  0.74867396684E+01  0.10100187551E+02  0.00000000000E+00 0. -1.
</event>
<event>
 7    1  0.1246400E-009  0.4778727E+02  0.7816164E-02  0.1312668E+00
        -11   -1    0    0    0    0  0.00000000000E+00  0.00000000000E+00  0.45593999997E+02  0.45594000000E+02  0.51100000000E-03 0.  1.
         11   -1    0    0    0    0 -0.00000000000E+00 -0.00000000000E+00 -0.45593999997E+02  0.45594000000E+02  0.51100000000E-03 0. -1.
    9900012    2    1    2    0    0 -0.12022649375E+02 -0.87076041424E+01  0.40783047114E+02  0.47787269593E+02  0.19999993384E+02 0.  0.
         12    1    1    2    0    0  0.12022649375E+02  0.87076041424E+01 -0.40783047114E+02  0.43400730407E+02  0.00000000000E+00 0. -1.
         11    1    3    3    0    0  0.22116194747E+01  0.12676331086E+01  0.38759784626E+01  0.46391123831E+01  0.51100000000E-03 0. -1.
        -11    1    3    3    0    0  0.22364723009E+01 -0.11433832289E+01  0.10502502000E+02  0.10798688905E+02  0.51100000000E-03 0.  1.
        -12    1    3    3    0    0 -0.16470741151E+02 -0.88318540220E+01  0.26404566652E+02  0.32349468305E+02  0.00000000000E+00 0.  1.
</event>
<event>
 7    1  0.1246400E-009  0.4778727E+02  0.7816164E-02  0.1312668E+00
        -11   -1    0    0    0    0  0.00000000000E+00  0.00000000000E+00  0.45593999997E+02  0.45594000000E+02  0.51100000000E-03 0.  1.
         11   -1    0    0    0    0 -0.00000000000E+00 -0.00000000000E+00 -0.45593999997E+02  0.45594000000E+02  0.51100000000E-03 0. -1.
    9900012    2    1    2    0    0 -0.35146215508E+02 -0.24405650630E+02  0.72616159726E+01  0.47787270585E+02  0.19999997906E+02 0.  0.
         12    1    1    2    0    0  0.35146215508E+02  0.24405650630E+02 -0.72616159726E+01  0.43400729415E+02  0.00000000000E+00 0. -1.
         11    1    3    3    0    0 -0.73600570628E+01 -0.97034630994E+01  0.46013687518E+01  0.13019225428E+02  0.51100000000E-03 0. -1.
        -11    1    3    3    0    0 -0.15795500307E+02 -0.11061759935E+02 -0.52041126658E+01  0.19973561317E+02  0.51100000000E-03 0.  1.
        -12    1    3    3    0    0 -0.11990658138E+02 -0.36404275961E+01  0.78643598866E+01  0.14794483840E+02  0.00000000000E+00 0.  1.
</event>
<event>
 7    1  0.1246400E-009  0.4778727E+02  0.7816164E-02  0.1312668E+00
        -11   -1    0    0    0    0  0.00000000000E+00  0.00000000000E+00  0.45593999997E+02  0.45594000000E+02  0.51100000000E-03 0. -1.
         11   -1    0    0    0    0 -0.00000000000E+00 -0.00000000000E+00 -0.45593999997E+02  0.45594000000E+02  0.51100000000E-03 0.  1.
    9900012    2    1    2    0    0  0.32977336247E+02  0.27775588338E+02 -0.49634252438E+01  0.47787267246E+02  0.19999982681E+02 0.  0.
         12    1    1    2    0    0 -0.32977336247E+02 -0.27775588338E+02  0.49634252438E+01  0.43400732754E+02  0.00000000000E+00 0. -1.
         11    1    3    3    0    0  0.22719177265E+02  0.13855091363E+02 -0.40928278869E+01  0.26923517836E+02  0.51100000000E-03 0. -1.
        -11    1    3    3    0    0  0.32641226086E+01  0.64579803016E+01  0.52541843001E+01  0.89423967089E+01  0.51100000000E-03 0.  1.
         12    1    3    3    0    0  0.69940363731E+01  0.74625166726E+01 -0.61247816570E+01  0.11921352701E+02  0.00000000000E+00 0. -1.
</event>
<event>
 7    1  0.1246400E-009  0.4778727E+02  0.7816164E-02  0.1312668E+00
        -11   -1    0    0    0    0  0.00000000000E+00  0.00000000000E+00  0.45593999997E+02  0.45594000000E+02  0.51100000000E-03 0.  1.
         11   -1    0    0    0    0 -0.00000000000E+00 -0.00000000000E+00 -0.45593999997E+02  0.45594000000E+02  0.51100000000E-03 0. -1.
    9900012    2    1    2    0    0 -0.34631872983E+02 -0.24247518050E+02  0.98140026648E+01  0.47787269520E+02  0.19999993051E+02 0.  0.
         12    1    1    2    0    0  0.34631872983E+02  0.24247518050E+02 -0.98140026648E+01  0.43400730480E+02  0.00000000000E+00 0. -1.
         11    1    3    3    0    0 -0.10990225876E-02 -0.98892910215E+00  0.49077108514E+01  0.50063567630E+01  0.51100000000E-03 0. -1.
        -11    1    3    3    0    0 -0.15543547068E+02 -0.84933944719E+01  0.57846507445E+01  0.18633351540E+02  0.51100000000E-03 0.  1.
         12    1    3    3    0    0 -0.19087226892E+02 -0.14765194475E+02 -0.87835893110E+00  0.24147561217E+02  0.00000000000E+00 0. -1.
</event>
<event>
 7    1  0.1246400E-009  0.4778727E+02  0.7816164E-02  0.1312668E+00
        -11   -1    0    0    0    0  0.00000000000E+00  0.00000000000E+00  0.45593999997E+02  0.45594000000E+02  0.51100000000E-03 0.  1.
         11   -1    0    0    0    0 -0.00000000000E+00 -0.00000000000E+00 -0.45593999997E+02  0.45594000000E+02  0.51100000000E-03 0. -1.
    9900012    2    1    2    0    0  0.31874692393E+02 -0.20421123365E+02  0.21227455793E+02  0.47787272195E+02  0.20000005244E+02 0.  0.
         12    1    1    2    0    0 -0.31874692393E+02  0.20421123365E+02 -0.21227455793E+02  0.43400727805E+02  0.00000000000E+00 0. -1.
         11    1    3    3    0    0  0.22233392914E+01 -0.31856224976E+01 -0.29936031614E+01  0.49043948098E+01  0.51100000000E-03 0. -1.
        -11    1    3    3    0    0  0.78412891553E+01 -0.92457539828E+01  0.92452774501E+01  0.15246145012E+02  0.51100000000E-03 0.  1.
        -12    1    3    3    0    0  0.21810063946E+02 -0.79897468845E+01  0.14975781504E+02  0.27636732373E+02  0.00000000000E+00 0.  1.
</event>
<event>
 7    1  0.1246400E-009  0.4778727E+02  0.7816164E-02  0.1312668E+00
        -11   -1    0    0    0    0  0.00000000000E+00  0.00000000000E+00  0.45593999997E+02  0.45594000000E+02  0.51100000000E-03 0. -1.
         11   -1    0    0    0    0 -0.00000000000E+00 -0.00000000000E+00 -0.45593999997E+02  0.45594000000E+02  0.51100000000E-03 0.  1.
    9900012    2    1    2    0    0 -0.31934079622E+02  0.78052472790E+01 -0.28335772103E+02  0.47787270663E+02  0.19999998259E+02 0.  0.
         12    1    1    2    0    0  0.31934079622E+02 -0.78052472790E+01  0.28335772103E+02  0.43400729337E+02  0.00000000000E+00 0. -1.
         11    1    3    3    0    0 -0.20509043168E+01 -0.32104409829E+01 -0.27282174091E+01  0.46857561091E+01  0.51100000000E-03 0. -1.
        -11    1    3    3    0    0 -0.22107971397E+02  0.11836750990E+02 -0.24753716117E+02  0.35236593694E+02  0.51100000000E-03 0.  1.
        -12    1    3    3    0    0 -0.77752039077E+01 -0.82106272821E+00 -0.85383857652E+00  0.78649208595E+01  0.00000000000E+00 0.  1.
</event>
<event>
 7    1  0.1246400E-009  0.4778727E+02  0.7816164E-02  0.1312668E+00
        -11   -1    0    0    0    0  0.00000000000E+00  0.00000000000E+00  0.45593999997E+02  0.45594000000E+02  0.51100000000E-03 0.  1.
         11   -1    0    0    0    0 -0.00000000000E+00 -0.00000000000E+00 -0.45593999997E+02  0.45594000000E+02  0.51100000000E-03 0. -1.
    9900012    2    1    2    0    0  0.20226061549E+02 -0.38370451572E+02  0.14960572148E+01  0.47787270665E+02  0.19999998268E+02 0.  0.
         12    1    1    2    0    0 -0.20226061549E+02  0.38370451572E+02 -0.14960572148E+01  0.43400729335E+02  0.00000000000E+00 0. -1.
         11    1    3    3    0    0  0.15979018496E+02 -0.31965435400E+02 -0.16072145956E+01  0.35772911978E+02  0.51100000000E-03 0.  1.
        -11    1    3    3    0    0 -0.24431565215E+01 -0.22443716264E+01 -0.49290086912E+00  0.33539781326E+01  0.51100000000E-03 0. -1.
        -12    1    3    3    0    0  0.66901995751E+01 -0.41606445458E+01  0.35961726795E+01  0.86603805535E+01  0.00000000000E+00 0.  1.
</event>
<event>
 7    1  0.1246400E-009  0.4778727E+02  0.7816164E-02  0.1312668E+00
        -11   -1    0    0    0    0  0.00000000000E+00  0.00000000000E+00  0.45593999997E+02  0.45594000000E+02  0.51100000000E-03 0.  1.
         11   -1    0    0    0    0 -0.00000000000E+00 -0.00000000000E+00 -0.45593999997E+02  0.45594000000E+02  0.51100000000E-03 0. -1.
    9900012    2    1    2    0    0 -0.29213113250E+02 -0.12519288353E+02  0.29554772215E+02  0.47787272733E+02  0.20000007701E+02 0.  0.
         12    1    1    2    0    0  0.29213113250E+02  0.12519288353E+02 -0.29554772215E+02  0.43400727267E+02  0.00000000000E+00 0. -1.
         11    1    3    3    0    0 -0.35364401952E+00  0.19512162566E+01  0.35769487392E+01  0.40898498159E+01  0.51100000000E-03 0. -1.
        -11    1    3    3    0    0 -0.28299735321E+02 -0.92100638846E+01  0.23110623244E+02  0.37680249508E+02  0.51100000000E-03 0.  1.
         12    1    3    3    0    0 -0.55973390869E+00 -0.52604407250E+01  0.28672002319E+01  0.60171734094E+01  0.00000000000E+00 0. -1.
</event>
<event>
 7    1  0.1246400E-009  0.4778727E+02  0.7816164E-02  0.1312668E+00
        -11   -1    0    0    0    0  0.00000000000E+00  0.00000000000E+00  0.45593999997E+02  0.45594000000E+02  0.51100000000E-03 0.  1.
         11   -1    0    0    0    0 -0.00000000000E+00 -0.00000000000E+00 -0.45593999997E+02  0.45594000000E+02  0.51100000000E-03 0. -1.
    9900012    2    1    2    0    0  0.10596054080E+02 -0.38286367702E+02  0.17478584269E+02  0.47787271643E+02  0.20000002729E+02 0.  0.
         12    1    1    2    0    0 -0.10596054080E+02  0.38286367702E+02 -0.17478584269E+02  0.43400728357E+02  0.00000000000E+00 0. -1.
         11    1    3    3    0    0 -0.33741699848E+01 -0.23034785056E+01  0.27503761988E+00  0.40947139419E+01  0.51100000000E-03 0. -1.
        -11    1    3    3    0    0  0.52080230524E+01 -0.17118012431E+02  0.13842653150E+02  0.22622309789E+02  0.51100000000E-03 0.  1.
         12    1    3    3    0    0  0.87622010125E+01 -0.18864876766E+02  0.33608934989E+01  0.21070247912E+02  0.00000000000E+00 0. -1.
</event>
<event>
 7    1  0.1246400E-009  0.4778728E+02  0.7816164E-02  0.1312668E+00
        -11   -1    0    0    0    0  0.00000000000E+00  0.00000000000E+00  0.45593999997E+02  0.45594000000E+02  0.51100000000E-03 0.  1.
         11   -1    0    0    0    0 -0.00000000000E+00 -0.00000000000E+00 -0.45593999997E+02  0.45594000000E+02  0.51100000000E-03 0. -1.
    9900012    2    1    2    0    0  0.10491747091E+02 -0.33878707615E+02  0.25015566150E+02  0.47787284148E+02  0.20000059743E+02 0.  0.
         12    1    1    2    0    0 -0.10491747091E+02  0.33878707615E+02 -0.25015566150E+02  0.43400715852E+02  0.00000000000E+00 0. -1.
         11    1    3    3    0    0  0.23788003870E+01 -0.84648120561E+01  0.10636200302E+02  0.13800017810E+02  0.51100000000E-03 0. -1.
        -11    1    3    3    0    0 -0.33299672223E+01 -0.57789549643E+01  0.79338818639E+01  0.10364916009E+02  0.51100000000E-03 0.  1.
        -12    1    3    3    0    0  0.11442913927E+02 -0.19634940595E+02  0.64454839841E+01  0.23622350329E+02  0.00000000000E+00 0.  1.
</event>
<event>
 7    1  0.1246400E-009  0.4778727E+02  0.7816164E-02  0.1312668E+00
        -11   -1    0    0    0    0  0.00000000000E+00  0.00000000000E+00  0.45593999997E+02  0.45594000000E+02  0.51100000000E-03 0.  1.
         11   -1    0    0    0    0 -0.00000000000E+00 -0.00000000000E+00 -0.45593999997E+02  0.45594000000E+02  0.51100000000E-03 0. -1.
    9900012    2    1    2    0    0 -0.29717574106E+02  0.31600091177E+02  0.13867121862E+01  0.47787274847E+02  0.20000017336E+02 0.  0.
         12    1    1    2    0    0  0.29717574106E+02 -0.31600091177E+02 -0.13867121862E+01  0.43400725153E+02  0.00000000000E+00 0. -1.
         11    1    3    3    0    0  0.11982533489E+01 -0.22648975082E+00  0.13825904473E+00  0.12272833902E+01  0.51100000000E-03 0. -1.
        -11    1    3    3    0    0 -0.22483392272E+02  0.13289867959E+02 -0.48288112410E+00  0.26121958060E+02  0.51100000000E-03 0.  1.
         12    1    3    3    0    0 -0.84324351832E+01  0.18536712968E+02  0.17313342656E+01  0.20438033397E+02  0.00000000000E+00 0. -1.
</event>
<event>
 7    1  0.1246400E-009  0.4778727E+02  0.7816164E-02  0.1312668E+00
        -11   -1    0    0    0    0  0.00000000000E+00  0.00000000000E+00  0.45593999997E+02  0.45594000000E+02  0.51100000000E-03 0.  1.
         11   -1    0    0    0    0 -0.00000000000E+00 -0.00000000000E+00 -0.45593999997E+02  0.45594000000E+02  0.51100000000E-03 0. -1.
    9900012    2    1    2    0    0  0.99123434508E+01 -0.12792650700E+02  0.40270546856E+02  0.47787269491E+02  0.19999992919E+02 0.  0.
         12    1    1    2    0    0 -0.99123434508E+01  0.12792650700E+02 -0.40270546856E+02  0.43400730509E+02  0.00000000000E+00 0. -1.
         11    1    3    3    0    0 -0.61579481118E+00 -0.28578057942E+01  0.25624734296E+02  0.25790953166E+02  0.51100000000E-03 0.  1.
        -11    1    3    3    0    0  0.93693118203E+00 -0.10104472158E+01 -0.91556829169E+00  0.16544210993E+01  0.51100000000E-03 0. -1.
        -12    1    3    3    0    0  0.95912070799E+01 -0.89243976902E+01  0.15561380851E+02  0.20341895226E+02  0.00000000000E+00 0.  1.
</event>
<event>
 7    1  0.1246400E-009  0.4778727E+02  0.7816164E-02  0.1312668E+00
        -11   -1    0    0    0    0  0.00000000000E+00  0.00000000000E+00  0.45593999997E+02  0.45594000000E+02  0.51100000000E-03 0. -1.
         11   -1    0    0    0    0 -0.00000000000E+00 -0.00000000000E+00 -0.45593999997E+02  0.45594000000E+02  0.51100000000E-03 0.  1.
    9900012    2    1    2    0    0  0.75629378646E+01  0.27504932165E+02 -0.32709384735E+02  0.47787272214E+02  0.20000005334E+02 0.  0.
         12    1    1    2    0    0 -0.75629378646E+01 -0.27504932165E+02  0.32709384735E+02  0.43400727786E+02  0.00000000000E+00 0. -1.
         11    1    3    3    0    0 -0.49886211970E+01  0.76170721257E+01 -0.68030715620E+01  0.11366086053E+02  0.51100000000E-03 0. -1.
        -11    1    3    3    0    0  0.13206476546E+01 -0.97084391445E+00 -0.57152955112E+00  0.17358843345E+01  0.51100000000E-03 0.  1.
        -12    1    3    3    0    0  0.11230911407E+02  0.20858703954E+02 -0.25334783622E+02  0.34685301827E+02  0.00000000000E+00 0.  1.
</event>
<event>
 7    1  0.1246400E-009  0.4778728E+02  0.7816164E-02  0.1312668E+00
        -11   -1    0    0    0    0  0.00000000000E+00  0.00000000000E+00  0.45593999997E+02  0.45594000000E+02  0.51100000000E-03 0.  1.
         11   -1    0    0    0    0 -0.00000000000E+00 -0.00000000000E+00 -0.45593999997E+02  0.45594000000E+02  0.51100000000E-03 0. -1.
    9900012    2    1    2    0    0  0.34847340688E+02  0.22969579376E+02  0.11903085174E+02  0.47787283804E+02  0.20000058174E+02 0.  0.
         12    1    1    2    0    0 -0.34847340688E+02 -0.22969579376E+02 -0.11903085174E+02  0.43400716196E+02  0.00000000000E+00 0. -1.
         11    1    3    3    0    0  0.23280933557E+02  0.86131750861E+01 -0.15725018678E+01  0.24872905233E+02  0.51100000000E-03 0. -1.
        -11    1    3    3    0    0  0.46846405131E+01  0.43811100052E+01  0.46018969060E+01  0.78941394091E+01  0.51100000000E-03 0.  1.
         12    1    3    3    0    0  0.68817666176E+01  0.99752942842E+01  0.88736901362E+01  0.15020239162E+02  0.00000000000E+00 0. -1.
</event>
<event>
 7    1  0.1246400E-009  0.4778727E+02  0.7816164E-02  0.1312668E+00
        -11   -1    0    0    0    0  0.00000000000E+00  0.00000000000E+00  0.45593999997E+02  0.45594000000E+02  0.51100000000E-03 0. -1.
         11   -1    0    0    0    0 -0.00000000000E+00 -0.00000000000E+00 -0.45593999997E+02  0.45594000000E+02  0.51100000000E-03 0.  1.
    9900012    2    1    2    0    0  0.24157794314E+02  0.90209671875E+01 -0.34909122720E+02  0.47787265856E+02  0.19999976345E+02 0.  0.
         12    1    1    2    0    0 -0.24157794314E+02 -0.90209671875E+01  0.34909122720E+02  0.43400734144E+02  0.00000000000E+00 0. -1.
         11    1    3    3    0    0  0.58577355440E+01  0.90433429457E+01 -0.57241115138E+01  0.12200843013E+02  0.51100000000E-03 0. -1.
        -11    1    3    3    0    0  0.64189128952E+01 -0.40971410022E+01 -0.87476478080E+01  0.11597859698E+02  0.51100000000E-03 0.  1.
        -12    1    3    3    0    0  0.11881145875E+02  0.40747652439E+01 -0.20437363398E+02  0.23988563145E+02  0.00000000000E+00 0.  1.
</event>
<event>
 7    1  0.1246400E-009  0.4778727E+02  0.7816164E-02  0.1312668E+00
        -11   -1    0    0    0    0  0.00000000000E+00  0.00000000000E+00  0.45593999997E+02  0.45594000000E+02  0.51100000000E-03 0. -1.
         11   -1    0    0    0    0 -0.00000000000E+00 -0.00000000000E+00 -0.45593999997E+02  0.45594000000E+02  0.51100000000E-03 0.  1.
    9900012    2    1    2    0    0  0.28154870544E+02 -0.29220169626E+02 -0.15398313328E+02  0.47787273028E+02  0.20000009044E+02 0.  0.
         12    1    1    2    0    0 -0.28154870544E+02  0.29220169626E+02  0.15398313328E+02  0.43400726972E+02  0.00000000000E+00 0. -1.
         11    1    3    3    0    0  0.51616523254E+01 -0.79625860930E+01 -0.62346287247E+01  0.11354119412E+02  0.51100000000E-03 0. -1.
        -11    1    3    3    0    0  0.62800328076E+01  0.26146371826E+00 -0.65229306153E+01  0.90584656213E+01  0.51100000000E-03 0.  1.
         12    1    3    3    0    0  0.16713185411E+02 -0.21519047252E+02 -0.26407539876E+01  0.27374687995E+02  0.00000000000E+00 0. -1.
</event>
<event>
 7    1  0.1246400E-009  0.4778727E+02  0.7816164E-02  0.1312668E+00
        -11   -1    0    0    0    0  0.00000000000E+00  0.00000000000E+00  0.45593999997E+02  0.45594000000E+02  0.51100000000E-03 0. -1.
         11   -1    0    0    0    0 -0.00000000000E+00 -0.00000000000E+00 -0.45593999997E+02  0.45594000000E+02  0.51100000000E-03 0.  1.
    9900012    2    1    2    0    0  0.26506336836E+02  0.51811730701E+01  0.33973417226E+02  0.47787268153E+02  0.19999986816E+02 0.  0.
         12    1    1    2    0    0 -0.26506336836E+02 -0.51811730701E+01 -0.33973417226E+02  0.43400731847E+02  0.00000000000E+00 0. -1.
         11    1    3    3    0    0 -0.20093545904E+01  0.75788278612E+00  0.37880243242E+01  0.43544254189E+01  0.51100000000E-03 0. -1.
        -11    1    3    3    0    0  0.16204408805E+02  0.10024375517E+01  0.86600512265E+01  0.18400658501E+02  0.51100000000E-03 0.  1.
         12    1    3    3    0    0  0.12311282621E+02  0.34208527323E+01  0.21525341676E+02  0.25032184232E+02  0.00000000000E+00 0. -1.
</event>
<event>
 7    1  0.1246400E-009  0.4778727E+02  0.7816164E-02  0.1312668E+00
        -11   -1    0    0    0    0  0.00000000000E+00  0.00000000000E+00  0.45593999997E+02  0.45594000000E+02  0.51100000000E-03 0.  1.
         11   -1    0    0    0    0 -0.00000000000E+00 -0.00000000000E+00 -0.45593999997E+02  0.45594000000E+02  0.51100000000E-03 0. -1.
    9900012    2    1    2    0    0 -0.20986249468E+01 -0.42750338778E+02 -0.71852249299E+01  0.47787272476E+02  0.20000006528E+02 0.  0.
         12    1    1    2    0    0  0.20986249468E+01  0.42750338778E+02  0.71852249299E+01  0.43400727524E+02  0.00000000000E+00 0. -1.
         11    1    3    3    0    0 -0.25974933117E+01 -0.23849393637E+02 -0.46529922818E+01  0.24437489351E+02  0.51100000000E-03 0.  1.
        -11    1    3    3    0    0  0.25760424207E+01 -0.19999103299E+02 -0.40304157562E+01  0.20563180171E+02  0.51100000000E-03 0. -1.
         12    1    3    3    0    0 -0.20771740558E+01  0.10981581578E+01  0.14981831081E+01  0.27866029540E+01  0.00000000000E+00 0. -1.
</event>
<event>
 7    1  0.1246400E-009  0.4778727E+02  0.7816164E-02  0.1312668E+00
        -11   -1    0    0    0    0  0.00000000000E+00  0.00000000000E+00  0.45593999997E+02  0.45594000000E+02  0.51100000000E-03 0.  1.
         11   -1    0    0    0    0 -0.00000000000E+00 -0.00000000000E+00 -0.45593999997E+02  0.45594000000E+02  0.51100000000E-03 0. -1.
    9900012    2    1    2    0    0 -0.18591622866E+02  0.78722238611E+01  0.38418789066E+02  0.47787266105E+02  0.19999977480E+02 0.  0.
         12    1    1    2    0    0  0.18591622866E+02 -0.78722238611E+01 -0.38418789066E+02  0.43400733895E+02  0.00000000000E+00 0. -1.
         11    1    3    3    0    0 -0.97029821582E+01  0.10569385673E+02  0.22277143898E+02  0.26497753052E+02  0.51100000000E-03 0. -1.
        -11    1    3    3    0    0  0.22131767925E+01 -0.43628793336E+00  0.45618009395E+01  0.50890595151E+01  0.51100000000E-03 0.  1.
        -12    1    3    3    0    0 -0.11101817500E+02 -0.22608738782E+01  0.11579844228E+02  0.16200453539E+02  0.00000000000E+00 0.  1.
</event>
<event>
 7    1  0.1394000E-009  0.4778727E+02  0.7816164E-02  0.1312668E+00
        -11   -1    0    0    0    0  0.00000000000E+00  0.00000000000E+00  0.45593999997E+02  0.45594000000E+02  0.51100000000E-03 0.  1.
         11   -1    0    0    0    0 -0.00000000000E+00 -0.00000000000E+00 -0.45593999997E+02  0.45594000000E+02  0.51100000000E-03 0. -1.
    9900012    2    1    2    0    0 -0.25608754785E+00  0.38168209195E+02  0.20657816950E+02  0.47787272182E+02  0.20000005186E+02 0.  0.
         12    1    1    2    0    0  0.25608754785E+00 -0.38168209195E+02 -0.20657816950E+02  0.43400727818E+02  0.00000000000E+00 0. -1.
         11    1    3    3    0    0 -0.96356491718E+00  0.85842050763E+01 -0.45797819544E+00  0.86502473046E+01  0.51100000000E-03 0. -1.
        -11    1    3    3    0    0  0.51748895923E+01  0.27537702094E+02  0.17490187292E+02  0.33030458227E+02  0.51100000000E-03 0.  1.
        -12    1    3    3    0    0 -0.44674122230E+01  0.20463020252E+01  0.36256078532E+01  0.61065666502E+01  0.00000000000E+00 0.  1.
</event>
<event>
 7    1  0.1246400E-009  0.4778725E+02  0.7816164E-02  0.1312668E+00
        -11   -1    0    0    0    0  0.00000000000E+00  0.00000000000E+00  0.45593999997E+02  0.45594000000E+02  0.51100000000E-03 0. -1.
         11   -1    0    0    0    0 -0.00000000000E+00 -0.00000000000E+00 -0.45593999997E+02  0.45594000000E+02  0.51100000000E-03 0.  1.
    9900012    2    1    2    0    0  0.32218684103E+02 -0.66674460931E+01 -0.28304180415E+02  0.47787250333E+02  0.19999905566E+02 0.  0.
         12    1    1    2    0    0 -0.32218684103E+02  0.66674460931E+01  0.28304180415E+02  0.43400749667E+02  0.00000000000E+00 0. -1.
         11    1    3    3    0    0  0.58821092810E+01  0.21839036643E+01 -0.17500959404E+01  0.65139451080E+01  0.51100000000E-03 0. -1.
        -11    1    3    3    0    0  0.28283840590E+02 -0.80575445684E+01 -0.25481020497E+02  0.38912492452E+02  0.51100000000E-03 0.  1.
         12    1    3    3    0    0 -0.19472657678E+01 -0.79380518895E+00 -0.10730639774E+01  0.23608127727E+01  0.00000000000E+00 0. -1.
</event>
<event>
 7    1  0.1246400E-009  0.4778727E+02  0.7816164E-02  0.1312668E+00
        -11   -1    0    0    0    0  0.00000000000E+00  0.00000000000E+00  0.45593999997E+02  0.45594000000E+02  0.51100000000E-03 0.  1.
         11   -1    0    0    0    0 -0.00000000000E+00 -0.00000000000E+00 -0.45593999997E+02  0.45594000000E+02  0.51100000000E-03 0. -1.
    9900012    2    1    2    0    0 -0.26014571575E+00  0.13144638316E+02  0.41361504646E+02  0.47787271218E+02  0.20000000791E+02 0.  0.
         12    1    1    2    0    0  0.26014571575E+00 -0.13144638316E+02 -0.41361504646E+02  0.43400728782E+02  0.00000000000E+00 0. -1.
         11    1    3    3    0    0 -0.29848981377E+01  0.76491010263E-01  0.14441038504E+01  0.33167610645E+01  0.51100000000E-03 0. -1.
        -11    1    3    3    0    0 -0.23788334275E+01  0.13708172661E+02  0.33296682822E+02  0.36086589384E+02  0.51100000000E-03 0.  1.
         12    1    3    3    0    0  0.51035858495E+01 -0.64002535548E+00  0.66207179733E+01  0.83839207690E+01  0.00000000000E+00 0. -1.
</event>
<event>
 7    1  0.1246400E-009  0.4778726E+02  0.7816164E-02  0.1312668E+00
        -11   -1    0    0    0    0  0.00000000000E+00  0.00000000000E+00  0.45593999997E+02  0.45594000000E+02  0.51100000000E-03 0.  1.
         11   -1    0    0    0    0 -0.00000000000E+00 -0.00000000000E+00 -0.45593999997E+02  0.45594000000E+02  0.51100000000E-03 0. -1.
    9900012    2    1    2    0    0  0.47660938093E+01  0.25217374103E+02  0.34999900247E+02  0.47787255489E+02  0.19999929076E+02 0.  0.
         12    1    1    2    0    0 -0.47660938093E+01 -0.25217374103E+02 -0.34999900247E+02  0.43400744511E+02  0.00000000000E+00 0. -1.
         11    1    3    3    0    0  0.47173688186E-02  0.38883614444E+01 -0.10992706632E+01  0.40407639411E+01  0.51100000000E-03 0. -1.
        -11    1    3    3    0    0  0.27881155426E+01  0.19565887459E+02  0.22741698553E+02  0.30129427370E+02  0.51100000000E-03 0.  1.
        -12    1    3    3    0    0  0.19732608979E+01  0.17631251994E+01  0.13357472357E+02  0.13617064177E+02  0.00000000000E+00 0.  1.
</event>
<event>
 7    1  0.1246400E-009  0.4778727E+02  0.7816164E-02  0.1312668E+00
        -11   -1    0    0    0    0  0.00000000000E+00  0.00000000000E+00  0.45593999997E+02  0.45594000000E+02  0.51100000000E-03 0.  1.
         11   -1    0    0    0    0 -0.00000000000E+00 -0.00000000000E+00 -0.45593999997E+02  0.45594000000E+02  0.51100000000E-03 0. -1.
    9900012    2    1    2    0    0  0.25231522568E+02  0.13368325480E+02  0.32684576721E+02  0.47787269445E+02  0.19999992709E+02 0.  0.
         12    1    1    2    0    0 -0.25231522568E+02 -0.13368325480E+02 -0.32684576721E+02  0.43400730555E+02  0.00000000000E+00 0. -1.
         11    1    3    3    0    0  0.43499341718E+01 -0.14000440082E+01  0.10961031287E+01  0.46993076994E+01  0.51100000000E-03 0. -1.
        -11    1    3    3    0    0 -0.11988533002E+01  0.11371190340E+01 -0.58610299348E+00  0.17532272851E+01  0.51100000000E-03 0.  1.
        -12    1    3    3    0    0  0.22080441696E+02  0.13631250454E+02  0.32174576586E+02  0.41334734461E+02  0.00000000000E+00 0.  1.
</event>
<event>
 7    1 -0.4093431E-009  0.4778724E+02  0.7816164E-02  0.1312668E+00
        -11   -1    0    0    0    0  0.00000000000E+00  0.00000000000E+00  0.45593999997E+02  0.45594000000E+02  0.51100000000E-03 0.  1.
         11   -1    0    0    0    0 -0.00000000000E+00 -0.00000000000E+00 -0.45593999997E+02  0.45594000000E+02  0.51100000000E-03 0. -1.
    9900012    2    1    2    0    0  0.41567109087E+02  0.11613638097E+02  0.45743548921E+01  0.47787241132E+02  0.19999863615E+02 0.  0.
         12    1    1    2    0    0 -0.41567109087E+02 -0.11613638097E+02 -0.45743548921E+01  0.43400758868E+02  0.00000000000E+00 0. -1.
         11    1    3    3    0    0  0.15791606363E+02  0.25800641850E+00 -0.12646520242E+01  0.15844265329E+02  0.51100000000E-03 0. -1.
        -11    1    3    3    0    0  0.13628551968E+00  0.41315849849E+01 -0.13565509269E+01  0.43507239523E+01  0.51100000000E-03 0.  1.
        -12    1    3    3    0    0  0.25639217204E+02  0.72240466934E+01  0.71955578432E+01  0.27592251850E+02  0.00000000000E+00 0.  1.
</event>
<event>
 7    1  0.1246400E-009  0.4778728E+02  0.7816164E-02  0.1312668E+00
        -11   -1    0    0    0    0  0.00000000000E+00  0.00000000000E+00  0.45593999997E+02  0.45594000000E+02  0.51100000000E-03 0. -1.
         11   -1    0    0    0    0 -0.00000000000E+00 -0.00000000000E+00 -0.45593999997E+02  0.45594000000E+02  0.51100000000E-03 0.  1.
    9900012    2    1    2    0    0  0.35130207311E+02  0.17049608583E+02 -0.18942077098E+02  0.47787275313E+02  0.20000019463E+02 0.  0.
         12    1    1    2    0    0 -0.35130207311E+02 -0.17049608583E+02  0.18942077098E+02  0.43400724687E+02  0.00000000000E+00 0. -1.
         11    1    3    3    0    0  0.46886066283E+01 -0.18700813456E+01 -0.25682393453E+01  0.56635757212E+01  0.51100000000E-03 0. -1.
        -11    1    3    3    0    0  0.31343566579E+02  0.15442710795E+02 -0.16235288828E+02  0.38528964250E+02  0.51100000000E-03 0.  1.
        -12    1    3    3    0    0 -0.90196589639E+00  0.34769791336E+01 -0.13854892482E+00  0.35947353419E+01  0.00000000000E+00 0.  1.
</event>
<event>
 7    1  0.1246400E-009  0.4778727E+02  0.7816164E-02  0.1312668E+00
        -11   -1    0    0    0    0  0.00000000000E+00  0.00000000000E+00  0.45593999997E+02  0.45594000000E+02  0.51100000000E-03 0.  1.
         11   -1    0    0    0    0 -0.00000000000E+00 -0.00000000000E+00 -0.45593999997E+02  0.45594000000E+02  0.51100000000E-03 0. -1.
    9900012    2    1    2    0    0  0.42510256607E+02 -0.86397275518E+01 -0.13624720723E+01  0.47787272597E+02  0.20000007077E+02 0.  0.
         12    1    1    2    0    0 -0.42510256607E+02  0.86397275518E+01  0.13624720723E+01  0.43400727403E+02  0.00000000000E+00 0. -1.
         11    1    3    3    0    0  0.31160005038E+02 -0.79977043627E+01 -0.62843968845E+01  0.32778084653E+02  0.51100000000E-03 0.  1.
        -11    1    3    3    0    0  0.50350895700E+01  0.29973052559E+01 -0.56377623993E+00  0.58867486514E+01  0.51100000000E-03 0. -1.
        -12    1    3    3    0    0  0.63151619996E+01 -0.36393284450E+01  0.54857010521E+01  0.91224392925E+01  0.00000000000E+00 0.  1.
</event>
<event>
 7    1  0.1246400E-009  0.4778727E+02  0.7816164E-02  0.1312668E+00
        -11   -1    0    0    0    0  0.00000000000E+00  0.00000000000E+00  0.45593999997E+02  0.45594000000E+02  0.51100000000E-03 0. -1.
         11   -1    0    0    0    0 -0.00000000000E+00 -0.00000000000E+00 -0.45593999997E+02  0.45594000000E+02  0.51100000000E-03 0.  1.
    9900012    2    1    2    0    0 -0.26433555412E+02 -0.24324070646E+02 -0.24356313384E+02  0.47787271133E+02  0.20000000403E+02 0.  0.
         12    1    1    2    0    0  0.26433555412E+02  0.24324070646E+02  0.24356313384E+02  0.43400728867E+02  0.00000000000E+00 0. -1.
         11    1    3    3    0    0 -0.39255298120E+01 -0.14861053224E+02 -0.12747799063E+02  0.19969152923E+02  0.51100000000E-03 0. -1.
        -11    1    3    3    0    0 -0.98407059375E+01 -0.70272239678E+01 -0.35262596866E+01  0.12595867484E+02  0.51100000000E-03 0.  1.
         12    1    3    3    0    0 -0.12667319663E+02 -0.24357934545E+01 -0.80822546342E+01  0.15222250726E+02  0.00000000000E+00 0. -1.
</event>
<event>
 7    1  0.1246400E-009  0.4778727E+02  0.7816164E-02  0.1312668E+00
        -11   -1    0    0    0    0  0.00000000000E+00  0.00000000000E+00  0.45593999997E+02  0.45594000000E+02  0.51100000000E-03 0. -1.
         11   -1    0    0    0    0 -0.00000000000E+00 -0.00000000000E+00 -0.45593999997E+02  0.45594000000E+02  0.51100000000E-03 0.  1.
    9900012    2    1    2    0    0  0.22878637240E+02  0.24277288386E+02 -0.27763365031E+02  0.47787271767E+02  0.20000003294E+02 0.  0.
         12    1    1    2    0    0 -0.22878637240E+02 -0.24277288386E+02  0.27763365031E+02  0.43400728233E+02  0.00000000000E+00 0. -1.
         11    1    3    3    0    0  0.93718213727E+00  0.17284615674E+01  0.14767849053E+01  0.24590208755E+01  0.51100000000E-03 0. -1.
        -11    1    3    3    0    0  0.16609551575E+02  0.11559282806E+02 -0.25500065973E+02  0.32553764566E+02  0.51100000000E-03 0.  1.
         12    1    3    3    0    0  0.53319035279E+01  0.10989544013E+02 -0.37400839626E+01  0.12774486326E+02  0.00000000000E+00 0. -1.
</event>
<event>
 7    1  0.1246400E-009  0.4778727E+02  0.7816164E-02  0.1312668E+00
        -11   -1    0    0    0    0  0.00000000000E+00  0.00000000000E+00  0.45593999997E+02  0.45594000000E+02  0.51100000000E-03 0.  1.
         11   -1    0    0    0    0 -0.00000000000E+00 -0.00000000000E+00 -0.45593999997E+02  0.45594000000E+02  0.51100000000E-03 0. -1.
    9900012    2    1    2    0    0  0.17260038777E+01 -0.30697064752E+02  0.30632250672E+02  0.47787266654E+02  0.19999979980E+02 0.  0.
         12    1    1    2    0    0 -0.17260038777E+01  0.30697064752E+02 -0.30632250672E+02  0.43400733346E+02  0.00000000000E+00 0. -1.
         11    1    3    3    0    0  0.26573485586E+01 -0.13416513343E+02  0.18198035116E+02  0.22764727409E+02  0.51100000000E-03 0.  1.
        -11    1    3    3    0    0  0.26810212129E+01 -0.24274777177E+01  0.85013188429E+01  0.92386657664E+01  0.51100000000E-03 0. -1.
        -12    1    3    3    0    0 -0.36123658938E+01 -0.14853073691E+02  0.39328967130E+01  0.15783873478E+02  0.00000000000E+00 0.  1.
</event>
<event>
 7    1  0.1246400E-009  0.4778727E+02  0.7816164E-02  0.1312668E+00
        -11   -1    0    0    0    0  0.00000000000E+00  0.00000000000E+00  0.45593999997E+02  0.45594000000E+02  0.51100000000E-03 0. -1.
         11   -1    0    0    0    0 -0.00000000000E+00 -0.00000000000E+00 -0.45593999997E+02  0.45594000000E+02  0.51100000000E-03 0.  1.
    9900012    2    1    2    0    0  0.37301563186E+02 -0.17726800633E+02 -0.13340817095E+02  0.47787268698E+02  0.19999989301E+02 0.  0.
         12    1    1    2    0    0 -0.37301563186E+02  0.17726800633E+02  0.13340817095E+02  0.43400731302E+02  0.00000000000E+00 0. -1.
         11    1    3    3    0    0 -0.11397388051E+01 -0.32731089232E+01  0.69719119457E-01  0.34665700028E+01  0.51100000000E-03 0. -1.
        -11    1    3    3    0    0  0.15844144934E+02 -0.11081778981E+02 -0.73326398836E+01  0.20678741790E+02  0.51100000000E-03 0.  1.
        -12    1    3    3    0    0  0.22597157057E+02 -0.33719127285E+01 -0.60778963311E+01  0.23641956905E+02  0.00000000000E+00 0.  1.
</event>
<event>
 7    1  0.1246400E-009  0.4778727E+02  0.7816164E-02  0.1312668E+00
        -11   -1    0    0    0    0  0.00000000000E+00  0.00000000000E+00  0.45593999997E+02  0.45594000000E+02  0.51100000000E-03 0. -1.
         11   -1    0    0    0    0 -0.00000000000E+00 -0.00000000000E+00 -0.45593999997E+02  0.45594000000E+02  0.51100000000E-03 0.  1.
    9900012    2    1    2    0    0 -0.23866619514E+02 -0.22348499699E+02 -0.28540361606E+02  0.47787271821E+02  0.20000003542E+02 0.  0.
         12    1    1    2    0    0  0.23866619514E+02  0.22348499699E+02  0.28540361606E+02  0.43400728179E+02  0.00000000000E+00 0. -1.
         11    1    3    3    0    0  0.97722333528E-01 -0.14583840837E+00  0.22309700159E+01  0.22378663876E+01  0.51100000000E-03 0. -1.
        -11    1    3    3    0    0 -0.97066601148E+01 -0.12300848827E+02 -0.10504051720E+02  0.18864390667E+02  0.51100000000E-03 0.  1.
        -12    1    3    3    0    0 -0.14257681733E+02 -0.99018124632E+01 -0.20267279902E+02  0.26685014767E+02  0.00000000000E+00 0.  1.
</event>
<event>
 7    1  0.1246400E-009  0.4778727E+02  0.7816164E-02  0.1312668E+00
        -11   -1    0    0    0    0  0.00000000000E+00  0.00000000000E+00  0.45593999997E+02  0.45594000000E+02  0.51100000000E-03 0.  1.
         11   -1    0    0    0    0 -0.00000000000E+00 -0.00000000000E+00 -0.45593999997E+02  0.45594000000E+02  0.51100000000E-03 0. -1.
    9900012    2    1    2    0    0  0.27394078403E+02 -0.39207800192E+01  0.33433738919E+02  0.47787274826E+02  0.20000017240E+02 0.  0.
         12    1    1    2    0    0 -0.27394078403E+02  0.39207800192E+01 -0.33433738919E+02  0.43400725174E+02  0.00000000000E+00 0. -1.
         11    1    3    3    0    0  0.12604019321E+02  0.56237771410E+01  0.65066683585E+01  0.15258601042E+02  0.51100000000E-03 0. -1.
        -11    1    3    3    0    0  0.82754513157E+01 -0.32835157594E+01  0.10377741996E+02  0.13673408478E+02  0.51100000000E-03 0.  1.
         12    1    3    3    0    0  0.65146077669E+01 -0.62610414007E+01  0.16549328565E+02  0.18855265305E+02  0.00000000000E+00 0. -1.
</event>
<event>
 7    1  0.1246400E-009  0.4778727E+02  0.7816164E-02  0.1312668E+00
        -11   -1    0    0    0    0  0.00000000000E+00  0.00000000000E+00  0.45593999997E+02  0.45594000000E+02  0.51100000000E-03 0. -1.
         11   -1    0    0    0    0 -0.00000000000E+00 -0.00000000000E+00 -0.45593999997E+02  0.45594000000E+02  0.51100000000E-03 0.  1.
    9900012    2    1    2    0    0  0.34177136025E+02  0.21634561157E+02 -0.15731891865E+02  0.47787270917E+02  0.19999999418E+02 0.  0.
         12    1    1    2    0    0 -0.34177136025E+02 -0.21634561157E+02  0.15731891865E+02  0.43400729083E+02  0.00000000000E+00 0. -1.
         11    1    3    3    0    0  0.10371856725E+02  0.17183506600E+01 -0.34618428849E+01  0.11068536368E+02  0.51100000000E-03 0. -1.
        -11    1    3    3    0    0  0.16125712555E+02  0.20479985740E+02 -0.59019366158E+01  0.26726415348E+02  0.51100000000E-03 0.  1.
        -12    1    3    3    0    0  0.76795667455E+01 -0.56377524281E+00 -0.63681123640E+01  0.99923192005E+01  0.00000000000E+00 0.  1.
</event>
<event>
 7    1  0.1246400E-009  0.4778727E+02  0.7816164E-02  0.1312668E+00
        -11   -1    0    0    0    0  0.00000000000E+00  0.00000000000E+00  0.45593999997E+02  0.45594000000E+02  0.51100000000E-03 0.  1.
         11   -1    0    0    0    0 -0.00000000000E+00 -0.00000000000E+00 -0.45593999997E+02  0.45594000000E+02  0.51100000000E-03 0. -1.
    9900012    2    1    2    0    0  0.14344207617E+02 -0.29443400432E+02  0.28477242344E+02  0.47787268985E+02  0.19999990610E+02 0.  0.
         12    1    1    2    0    0 -0.14344207617E+02  0.29443400432E+02 -0.28477242344E+02  0.43400731015E+02  0.00000000000E+00 0. -1.
         11    1    3    3    0    0  0.66458493841E+01 -0.13191087767E+02  0.13226462177E+02  0.19827037411E+02  0.51100000000E-03 0. -1.
        -11    1    3    3    0    0  0.57867601448E+01 -0.18990779931E+02  0.14365606063E+02  0.24505243381E+02  0.51100000000E-03 0.  1.
         12    1    3    3    0    0  0.19115980885E+01  0.27384672661E+01  0.88517410360E+00  0.34549881929E+01  0.00000000000E+00 0. -1.
</event>
<event>
 7    1  0.1246400E-009  0.4778727E+02  0.7816164E-02  0.1312668E+00
        -11   -1    0    0    0    0  0.00000000000E+00  0.00000000000E+00  0.45593999997E+02  0.45594000000E+02  0.51100000000E-03 0.  1.
         11   -1    0    0    0    0 -0.00000000000E+00 -0.00000000000E+00 -0.45593999997E+02  0.45594000000E+02  0.51100000000E-03 0. -1.
    9900012    2    1    2    0    0 -0.42684129298E+02 -0.31216356146E+01  0.72072323234E+01  0.47787266128E+02  0.19999977584E+02 0.  0.
         12    1    1    2    0    0  0.42684129298E+02  0.31216356146E+01 -0.72072323234E+01  0.43400733872E+02  0.00000000000E+00 0. -1.
         11    1    3    3    0    0 -0.75670779390E+01 -0.52241699687E+01 -0.13084128485E+01  0.92878719221E+01  0.51100000000E-03 0. -1.
        -11    1    3    3    0    0 -0.17089549944E+02 -0.17752380392E+01  0.10202800825E+02  0.19982525674E+02  0.51100000000E-03 0.  1.
         12    1    3    3    0    0 -0.18027501415E+02  0.38777723933E+01 -0.16871556532E+01  0.18516868531E+02  0.00000000000E+00 0. -1.
</event>
<event>
 7    1  0.1246400E-009  0.4778727E+02  0.7816164E-02  0.1312668E+00
        -11   -1    0    0    0    0  0.00000000000E+00  0.00000000000E+00  0.45593999997E+02  0.45594000000E+02  0.51100000000E-03 0. -1.
         11   -1    0    0    0    0 -0.00000000000E+00 -0.00000000000E+00 -0.45593999997E+02  0.45594000000E+02  0.51100000000E-03 0.  1.
    9900012    2    1    2    0    0  0.20047857157E+01  0.68478422658E+01 -0.42810174903E+02  0.47787272072E+02  0.20000004687E+02 0.  0.
         12    1    1    2    0    0 -0.20047857157E+01 -0.68478422658E+01  0.42810174903E+02  0.43400727928E+02  0.00000000000E+00 0. -1.
         11    1    3    3    0    0 -0.68590470517E+01  0.22151569793E+01 -0.12942893415E+02  0.14814585283E+02  0.51100000000E-03 0. -1.
        -11    1    3    3    0    0  0.47838772351E+01  0.30838577833E+01 -0.45633556636E+01  0.72951953642E+01  0.51100000000E-03 0.  1.
         12    1    3    3    0    0  0.40799555323E+01  0.15488275032E+01 -0.25303925824E+02  0.25677491425E+02  0.00000000000E+00 0. -1.
</event>
<event>
 7    1  0.1246400E-009  0.4778727E+02  0.7816164E-02  0.1312668E+00
        -11   -1    0    0    0    0  0.00000000000E+00  0.00000000000E+00  0.45593999997E+02  0.45594000000E+02  0.51100000000E-03 0.  1.
         11   -1    0    0    0    0 -0.00000000000E+00 -0.00000000000E+00 -0.45593999997E+02  0.45594000000E+02  0.51100000000E-03 0. -1.
    9900012    2    1    2    0    0  0.21906331248E+02 -0.96833152926E+01  0.36193499936E+02  0.47787269805E+02  0.19999994351E+02 0.  0.
         12    1    1    2    0    0 -0.21906331248E+02  0.96833152926E+01 -0.36193499936E+02  0.43400730195E+02  0.00000000000E+00 0. -1.
         11    1    3    3    0    0  0.13100810267E+02  0.90806822289E+00  0.11341012119E+02  0.17351494855E+02  0.51100000000E-03 0. -1.
        -11    1    3    3    0    0  0.92786533298E+01 -0.54097073174E+01  0.22047841462E+02  0.24524796723E+02  0.51100000000E-03 0.  1.
         12    1    3    3    0    0 -0.47313234843E+00 -0.51816761980E+01  0.28046463543E+01  0.59109782281E+01  0.00000000000E+00 0. -1.
</event>
<event>
 7    1  0.1246400E-009  0.4778727E+02  0.7816164E-02  0.1312668E+00
        -11   -1    0    0    0    0  0.00000000000E+00  0.00000000000E+00  0.45593999997E+02  0.45594000000E+02  0.51100000000E-03 0.  1.
         11   -1    0    0    0    0 -0.00000000000E+00 -0.00000000000E+00 -0.45593999997E+02  0.45594000000E+02  0.51100000000E-03 0. -1.
    9900012    2    1    2    0    0 -0.26815074872E+02  0.20962343934E+02  0.26928705302E+02  0.47787271057E+02  0.20000000056E+02 0.  0.
         12    1    1    2    0    0  0.26815074872E+02 -0.20962343934E+02 -0.26928705302E+02  0.43400728943E+02  0.00000000000E+00 0. -1.
         11    1    3    3    0    0  0.12457371294E+00 -0.58767661505E+00  0.75932510568E+00  0.96822378151E+00  0.51100000000E-03 0. -1.
        -11    1    3    3    0    0 -0.20092229883E+02  0.57372764738E+01  0.99057032146E+01  0.23124381060E+02  0.51100000000E-03 0.  1.
         12    1    3    3    0    0 -0.68474187019E+01  0.15812744075E+02  0.16263676982E+02  0.23694666215E+02  0.00000000000E+00 0. -1.
</event>
<event>
 7    1  0.1246400E-009  0.4778727E+02  0.7816164E-02  0.1312668E+00
        -11   -1    0    0    0    0  0.00000000000E+00  0.00000000000E+00  0.45593999997E+02  0.45594000000E+02  0.51100000000E-03 0.  1.
         11   -1    0    0    0    0 -0.00000000000E+00 -0.00000000000E+00 -0.45593999997E+02  0.45594000000E+02  0.51100000000E-03 0. -1.
    9900012    2    1    2    0    0  0.12130843326E+02 -0.41643753192E+02  0.15045467804E+01  0.47787271887E+02  0.20000003842E+02 0.  0.
         12    1    1    2    0    0 -0.12130843326E+02  0.41643753192E+02 -0.15045467804E+01  0.43400728113E+02  0.00000000000E+00 0. -1.
         11    1    3    3    0    0  0.31232699437E+01  0.91365639344E+00 -0.10727856460E+01  0.34264343639E+01  0.51100000000E-03 0. -1.
        -11    1    3    3    0    0  0.60568117047E+01 -0.26908987767E+02 -0.23751535875E+01  0.27684290591E+02  0.51100000000E-03 0.  1.
        -12    1    3    3    0    0  0.29507616774E+01 -0.15648421818E+02  0.49524860139E+01  0.16676546932E+02  0.00000000000E+00 0.  1.
</event>
<event>
 7    1  0.1246400E-009  0.4778727E+02  0.7816164E-02  0.1312668E+00
        -11   -1    0    0    0    0  0.00000000000E+00  0.00000000000E+00  0.45593999997E+02  0.45594000000E+02  0.51100000000E-03 0.  1.
         11   -1    0    0    0    0 -0.00000000000E+00 -0.00000000000E+00 -0.45593999997E+02  0.45594000000E+02  0.51100000000E-03 0. -1.
    9900012    2    1    2    0    0 -0.48522565536E+01  0.41618586508E+02  0.11312464346E+02  0.47787274359E+02  0.20000015112E+02 0.  0.
         12    1    1    2    0    0  0.48522565536E+01 -0.41618586508E+02 -0.11312464346E+02  0.43400725641E+02  0.00000000000E+00 0. -1.
         11    1    3    3    0    0 -0.31243182923E+01  0.44341508713E+01 -0.46376509152E+01  0.71365863698E+01  0.51100000000E-03 0.  1.
        -11    1    3    3    0    0 -0.13849935591E+01  0.22417280656E+02  0.77718959102E+01  0.23766679311E+02  0.51100000000E-03 0. -1.
        -12    1    3    3    0    0 -0.34294470223E+00  0.14767154981E+02  0.81782193510E+01  0.16884008678E+02  0.00000000000E+00 0.  1.
</event>
<event>
 7    1  0.1246400E-009  0.4778727E+02  0.7816164E-02  0.1312668E+00
        -11   -1    0    0    0    0  0.00000000000E+00  0.00000000000E+00  0.45593999997E+02  0.45594000000E+02  0.51100000000E-03 0.  1.
         11   -1    0    0    0    0 -0.00000000000E+00 -0.00000000000E+00 -0.45593999997E+02  0.45594000000E+02  0.51100000000E-03 0. -1.
    9900012    2    1    2    0    0 -0.11616300113E+02  0.73506697930E+01  0.41166154113E+02  0.47787273978E+02  0.20000013377E+02 0.  0.
         12    1    1    2    0    0  0.11616300113E+02 -0.73506697930E+01 -0.41166154113E+02  0.43400726022E+02  0.00000000000E+00 0. -1.
         11    1    3    3    0    0  0.29850763846E+01  0.39081328090E+01  0.67140312203E+01  0.83224034127E+01  0.51100000000E-03 0. -1.
        -11    1    3    3    0    0 -0.65850719632E+01 -0.41994158316E+01  0.10596856115E+02  0.13164027722E+02  0.51100000000E-03 0.  1.
         12    1    3    3    0    0 -0.80163045343E+01  0.76419528156E+01  0.23855266778E+02  0.26300842843E+02  0.00000000000E+00 0. -1.
</event>
<event>
 7    1  0.1246400E-009  0.4778727E+02  0.7816164E-02  0.1312668E+00
        -11   -1    0    0    0    0  0.00000000000E+00  0.00000000000E+00  0.45593999997E+02  0.45594000000E+02  0.51100000000E-03 0. -1.
         11   -1    0    0    0    0 -0.00000000000E+00 -0.00000000000E+00 -0.45593999997E+02  0.45594000000E+02  0.51100000000E-03 0.  1.
    9900012    2    1    2    0    0 -0.36801287941E+02  0.91921103252E+01 -0.21090130412E+02  0.47787270891E+02  0.19999999302E+02 0.  0.
         12    1    1    2    0    0  0.36801287941E+02 -0.91921103252E+01  0.21090130412E+02  0.43400729109E+02  0.00000000000E+00 0. -1.
         11    1    3    3    0    0 -0.78635507625E+00  0.40022898607E+01 -0.34830911942E+01  0.53636371022E+01  0.51100000000E-03 0. -1.
        -11    1    3    3    0    0 -0.20750541150E+02 -0.34805064437E+01 -0.93829088074E+01  0.23037748611E+02  0.51100000000E-03 0.  1.
         12    1    3    3    0    0 -0.15264391715E+02  0.86703269081E+01 -0.82241304103E+01  0.19385885178E+02  0.00000000000E+00 0. -1.
</event>
<event>
 7    1  0.1891453E-009  0.4778727E+02  0.7816164E-02  0.1312668E+00
        -11   -1    0    0    0    0  0.00000000000E+00  0.00000000000E+00  0.45593999997E+02  0.45594000000E+02  0.51100000000E-03 0. -1.
         11   -1    0    0    0    0 -0.00000000000E+00 -0.00000000000E+00 -0.45593999997E+02  0.45594000000E+02  0.51100000000E-03 0.  1.
    9900012    2    1    2    0    0  0.53336604794E+01  0.31081463697E+02 -0.29818080575E+02  0.47787271332E+02  0.20000001313E+02 0.  0.
         12    1    1    2    0    0 -0.53336604794E+01 -0.31081463697E+02  0.29818080575E+02  0.43400728668E+02  0.00000000000E+00 0. -1.
         11    1    3    3    0    0  0.73008152496E+01  0.49573486033E+01 -0.47379445084E+01  0.10016253137E+02  0.51100000000E-03 0. -1.
        -11    1    3    3    0    0  0.10408144243E+00  0.95985905795E+01 -0.16368098321E+02  0.18975205321E+02  0.51100000000E-03 0.  1.
        -12    1    3    3    0    0 -0.20712362126E+01  0.16525524515E+02 -0.87120377460E+01  0.18795812875E+02  0.00000000000E+00 0.  1.
</event>
<event>
 7    1  0.1246400E-009  0.4778727E+02  0.7816164E-02  0.1312668E+00
        -11   -1    0    0    0    0  0.00000000000E+00  0.00000000000E+00  0.45593999997E+02  0.45594000000E+02  0.51100000000E-03 0. -1.
         11   -1    0    0    0    0 -0.00000000000E+00 -0.00000000000E+00 -0.45593999997E+02  0.45594000000E+02  0.51100000000E-03 0.  1.
    9900012    2    1    2    0    0  0.58773398072E+01  0.28764915181E+02 -0.31963420418E+02  0.47787265981E+02  0.19999976915E+02 0.  0.
         12    1    1    2    0    0 -0.58773398072E+01 -0.28764915181E+02  0.31963420418E+02  0.43400734019E+02  0.00000000000E+00 0. -1.
         11    1    3    3    0    0 -0.34800760260E+01  0.63083694508E+01 -0.83946687846E+01  0.11062410160E+02  0.51100000000E-03 0. -1.
        -11    1    3    3    0    0  0.12813988141E+02  0.20077455426E+02 -0.21308560744E+02  0.31958680662E+02  0.51100000000E-03 0.  1.
         12    1    3    3    0    0 -0.34565723077E+01  0.23790903042E+01 -0.22601908895E+01  0.47661751595E+01  0.00000000000E+00 0. -1.
</event>
<event>
 7    1  0.1246400E-009  0.4778724E+02  0.7816164E-02  0.1312668E+00
        -11   -1    0    0    0    0  0.00000000000E+00  0.00000000000E+00  0.45593999997E+02  0.45594000000E+02  0.51100000000E-03 0.  1.
         11   -1    0    0    0    0 -0.00000000000E+00 -0.00000000000E+00 -0.45593999997E+02  0.45594000000E+02  0.51100000000E-03 0. -1.
    9900012    2    1    2    0    0  0.30186133923E+02 -0.14344274139E+02  0.27688711401E+02  0.47787244006E+02  0.19999876720E+02 0.  0.
         12    1    1    2    0    0 -0.30186133923E+02  0.14344274139E+02 -0.27688711401E+02  0.43400755994E+02  0.00000000000E+00 0. -1.
         11    1    3    3    0    0  0.12763912011E+02  0.29957950899E+01  0.14123204288E+02  0.19270628886E+02  0.51100000000E-03 0.  1.
        -11    1    3    3    0    0  0.28771754649E+01 -0.49584501641E+01  0.15072333584E+01  0.59275728037E+01  0.51100000000E-03 0. -1.
        -12    1    3    3    0    0  0.14545046447E+02 -0.12381619065E+02  0.12058273755E+02  0.22589042316E+02  0.00000000000E+00 0.  1.
</event>
<event>
 7    1  0.1246400E-009  0.4778727E+02  0.7816164E-02  0.1312668E+00
        -11   -1    0    0    0    0  0.00000000000E+00  0.00000000000E+00  0.45593999997E+02  0.45594000000E+02  0.51100000000E-03 0.  1.
         11   -1    0    0    0    0 -0.00000000000E+00 -0.00000000000E+00 -0.45593999997E+02  0.45594000000E+02  0.51100000000E-03 0. -1.
    9900012    2    1    2    0    0 -0.12343003685E+02 -0.17430702971E+01  0.41572049783E+02  0.47787270085E+02  0.19999995624E+02 0.  0.
         12    1    1    2    0    0  0.12343003685E+02  0.17430702971E+01 -0.41572049783E+02  0.43400729915E+02  0.00000000000E+00 0. -1.
         11    1    3    3    0    0 -0.72983189345E+00 -0.16961857747E+01  0.51442290664E+00  0.19168547057E+01  0.51100000000E-03 0. -1.
        -11    1    3    3    0    0  0.22264325649E+01  0.45535565049E+00 -0.26594388172E+00  0.22880290959E+01  0.51100000000E-03 0.  1.
        -12    1    3    3    0    0 -0.13839604356E+02 -0.50224017293E+00  0.41323570758E+02  0.43582386283E+02  0.00000000000E+00 0.  1.
</event>
<event>
 7    1  0.1246400E-009  0.4778727E+02  0.7816164E-02  0.1312668E+00
        -11   -1    0    0    0    0  0.00000000000E+00  0.00000000000E+00  0.45593999997E+02  0.45594000000E+02  0.51100000000E-03 0.  1.
         11   -1    0    0    0    0 -0.00000000000E+00 -0.00000000000E+00 -0.45593999997E+02  0.45594000000E+02  0.51100000000E-03 0. -1.
    9900012    2    1    2    0    0 -0.27606386868E+02  0.81065925268E+01  0.32492981606E+02  0.47787270836E+02  0.19999999050E+02 0.  0.
         12    1    1    2    0    0  0.27606386868E+02 -0.81065925268E+01 -0.32492981606E+02  0.43400729164E+02  0.00000000000E+00 0. -1.
         11    1    3    3    0    0  0.10289033109E+01 -0.13024701149E+01  0.15513751698E+01  0.22719673418E+01  0.51100000000E-03 0. -1.
        -11    1    3    3    0    0 -0.18487107867E+02  0.97337824724E+01  0.12184360561E+02  0.24186325084E+02  0.51100000000E-03 0.  1.
        -12    1    3    3    0    0 -0.10148182312E+02 -0.32471983070E+00  0.18757245876E+02  0.21328978411E+02  0.00000000000E+00 0.  1.
</event>
<event>
 7    1  0.1246400E-009  0.4778727E+02  0.7816164E-02  0.1312668E+00
        -11   -1    0    0    0    0  0.00000000000E+00  0.00000000000E+00  0.45593999997E+02  0.45594000000E+02  0.51100000000E-03 0.  1.
         11   -1    0    0    0    0 -0.00000000000E+00 -0.00000000000E+00 -0.45593999997E+02  0.45594000000E+02  0.51100000000E-03 0. -1.
    9900012    2    1    2    0    0  0.31462937285E+02  0.14430710882E+02  0.26181315866E+02  0.47787272591E+02  0.20000007052E+02 0.  0.
         12    1    1    2    0    0 -0.31462937285E+02 -0.14430710882E+02 -0.26181315866E+02  0.43400727409E+02  0.00000000000E+00 0. -1.
         11    1    3    3    0    0  0.14757792178E+01  0.41624334329E+01  0.10609802650E+02  0.11492244730E+02  0.51100000000E-03 0. -1.
        -11    1    3    3    0    0  0.14668717192E+02  0.75812312959E+00  0.58465518335E+01  0.15809117096E+02  0.51100000000E-03 0.  1.
        -12    1    3    3    0    0  0.15318440875E+02  0.95101543197E+01  0.97249613823E+01  0.20485910766E+02  0.00000000000E+00 0.  1.
</event>
<event>
 7    1  0.1246400E-009  0.4778728E+02  0.7816164E-02  0.1312668E+00
        -11   -1    0    0    0    0  0.00000000000E+00  0.00000000000E+00  0.45593999997E+02  0.45594000000E+02  0.51100000000E-03 0.  1.
         11   -1    0    0    0    0 -0.00000000000E+00 -0.00000000000E+00 -0.45593999997E+02  0.45594000000E+02  0.51100000000E-03 0. -1.
    9900012    2    1    2    0    0 -0.11416185294E+02  0.10582309281E+02  0.40513063659E+02  0.47787275542E+02  0.20000020507E+02 0.  0.
         12    1    1    2    0    0  0.11416185294E+02 -0.10582309281E+02 -0.40513063659E+02  0.43400724458E+02  0.00000000000E+00 0. -1.
         11    1    3    3    0    0 -0.37860813200E+01  0.16572148192E+01  0.82273542068E+01  0.92070695785E+01  0.51100000000E-03 0. -1.
        -11    1    3    3    0    0 -0.13274849483E+02  0.69516836953E+01  0.20860992891E+02  0.25685181713E+02  0.51100000000E-03 0.  1.
         12    1    3    3    0    0  0.56447455084E+01  0.19734107669E+01  0.11424716561E+02  0.12895024250E+02  0.00000000000E+00 0. -1.
</event>
<event>
 7    1  0.1246400E-009  0.4778727E+02  0.7816164E-02  0.1312668E+00
        -11   -1    0    0    0    0  0.00000000000E+00  0.00000000000E+00  0.45593999997E+02  0.45594000000E+02  0.51100000000E-03 0. -1.
         11   -1    0    0    0    0 -0.00000000000E+00 -0.00000000000E+00 -0.45593999997E+02  0.45594000000E+02  0.51100000000E-03 0.  1.
    9900012    2    1    2    0    0 -0.21997447569E+02  0.18518059428E+02 -0.32508720698E+02  0.47787272518E+02  0.20000006718E+02 0.  0.
         12    1    1    2    0    0  0.21997447569E+02 -0.18518059428E+02  0.32508720698E+02  0.43400727482E+02  0.00000000000E+00 0. -1.
         11    1    3    3    0    0  0.10551559017E+01 -0.21089943455E+01 -0.19529810813E+01  0.30619187597E+01  0.51100000000E-03 0. -1.
        -11    1    3    3    0    0 -0.51197269796E+01 -0.26589455046E+00 -0.47501356710E+01  0.69889980263E+01  0.51100000000E-03 0.  1.
        -12    1    3    3    0    0 -0.17932876492E+02  0.20892948324E+02 -0.25805603946E+02  0.37736355732E+02  0.00000000000E+00 0.  1.
</event>
<event>
 7    1  0.1246400E-009  0.4778727E+02  0.7816164E-02  0.1312668E+00
        -11   -1    0    0    0    0  0.00000000000E+00  0.00000000000E+00  0.45593999997E+02  0.45594000000E+02  0.51100000000E-03 0.  1.
         11   -1    0    0    0    0 -0.00000000000E+00 -0.00000000000E+00 -0.45593999997E+02  0.45594000000E+02  0.51100000000E-03 0. -1.
    9900012    2    1    2    0    0  0.40135683983E+01 -0.29104791231E+02  0.31944100494E+02  0.47787272353E+02  0.20000005968E+02 0.  0.
         12    1    1    2    0    0 -0.40135683983E+01  0.29104791231E+02 -0.31944100494E+02  0.43400727647E+02  0.00000000000E+00 0. -1.
         11    1    3    3    0    0 -0.23448291402E+01 -0.26422251964E+00 -0.45531453761E+00  0.24031955447E+01  0.51100000000E-03 0. -1.
        -11    1    3    3    0    0 -0.86982939576E+00 -0.21013294467E+02  0.19817942673E+02  0.28897508536E+02  0.51100000000E-03 0.  1.
         12    1    3    3    0    0  0.72282269343E+01 -0.78272742446E+01  0.12581472358E+02  0.16486568273E+02  0.00000000000E+00 0. -1.
</event>
<event>
 7    1  0.1246400E-009  0.4778727E+02  0.7816164E-02  0.1312668E+00
        -11   -1    0    0    0    0  0.00000000000E+00  0.00000000000E+00  0.45593999997E+02  0.45594000000E+02  0.51100000000E-03 0.  1.
         11   -1    0    0    0    0 -0.00000000000E+00 -0.00000000000E+00 -0.45593999997E+02  0.45594000000E+02  0.51100000000E-03 0. -1.
    9900012    2    1    2    0    0  0.30779412412E+02 -0.14502796365E+02  0.26942906659E+02  0.47787267862E+02  0.19999985491E+02 0.  0.
         12    1    1    2    0    0 -0.30779412412E+02  0.14502796365E+02 -0.26942906659E+02  0.43400732138E+02  0.00000000000E+00 0. -1.
         11    1    3    3    0    0  0.13730040477E+01  0.18197098663E+01  0.40370024817E+01  0.46361485536E+01  0.51100000000E-03 0. -1.
        -11    1    3    3    0    0  0.22147650821E+02 -0.13318916381E+02  0.23939224637E+02  0.35227807864E+02  0.51100000000E-03 0.  1.
         12    1    3    3    0    0  0.72587575440E+01 -0.30035898501E+01 -0.10333204597E+01  0.79233114443E+01  0.00000000000E+00 0. -1.
</event>
<event>
 7    1  0.1246400E-009  0.4778726E+02  0.7816164E-02  0.1312668E+00
        -11   -1    0    0    0    0  0.00000000000E+00  0.00000000000E+00  0.45593999997E+02  0.45594000000E+02  0.51100000000E-03 0. -1.
         11   -1    0    0    0    0 -0.00000000000E+00 -0.00000000000E+00 -0.45593999997E+02  0.45594000000E+02  0.51100000000E-03 0.  1.
    9900012    2    1    2    0    0 -0.33812441917E+02  0.20224848636E+02 -0.18201608712E+02  0.47787259334E+02  0.19999946605E+02 0.  0.
         12    1    1    2    0    0  0.33812441917E+02 -0.20224848636E+02  0.18201608712E+02  0.43400740666E+02  0.00000000000E+00 0. -1.
         11    1    3    3    0    0 -0.20939126135E+02  0.14454614585E+02 -0.49206879829E+01  0.25915170394E+02  0.51100000000E-03 0. -1.
        -11    1    3    3    0    0 -0.73252978398E+01  0.81367126613E+01 -0.10709028061E+02  0.15315004527E+02  0.51100000000E-03 0.  1.
        -12    1    3    3    0    0 -0.55480179418E+01 -0.23664786104E+01 -0.25718926679E+01  0.65570844124E+01  0.00000000000E+00 0.  1.
</event>
<event>
 7    1  0.1246400E-009  0.4778727E+02  0.7816164E-02  0.1312668E+00
        -11   -1    0    0    0    0  0.00000000000E+00  0.00000000000E+00  0.45593999997E+02  0.45594000000E+02  0.51100000000E-03 0.  1.
         11   -1    0    0    0    0 -0.00000000000E+00 -0.00000000000E+00 -0.45593999997E+02  0.45594000000E+02  0.51100000000E-03 0. -1.
    9900012    2    1    2    0    0  0.68516708507E+01 -0.36283024867E+02  0.22808331559E+02  0.47787271026E+02  0.19999999918E+02 0.  0.
         12    1    1    2    0    0 -0.68516708507E+01  0.36283024867E+02 -0.22808331559E+02  0.43400728974E+02  0.00000000000E+00 0. -1.
         11    1    3    3    0    0 -0.10019702572E+01 -0.69647098200E+01  0.71006559420E+01  0.99965215120E+01  0.51100000000E-03 0. -1.
        -11    1    3    3    0    0  0.11282903278E+02 -0.25505556047E+02  0.89154079191E+01  0.29280057962E+02  0.51100000000E-03 0.  1.
        -12    1    3    3    0    0 -0.34292621697E+01 -0.38127589997E+01  0.67922676975E+01  0.85106915520E+01  0.00000000000E+00 0.  1.
</event>
<event>
 7    1  0.1246400E-009  0.4778727E+02  0.7816164E-02  0.1312668E+00
        -11   -1    0    0    0    0  0.00000000000E+00  0.00000000000E+00  0.45593999997E+02  0.45594000000E+02  0.51100000000E-03 0.  1.
         11   -1    0    0    0    0 -0.00000000000E+00 -0.00000000000E+00 -0.45593999997E+02  0.45594000000E+02  0.51100000000E-03 0. -1.
    9900012    2    1    2    0    0  0.12666841460E+02  0.60576184529E+01  0.41066767120E+02  0.47787274481E+02  0.20000015670E+02 0.  0.
         12    1    1    2    0    0 -0.12666841460E+02 -0.60576184529E+01 -0.41066767120E+02  0.43400725519E+02  0.00000000000E+00 0. -1.
         11    1    3    3    0    0  0.26589593805E+01  0.21771860011E+00  0.70781964610E+00  0.27601585622E+01  0.51100000000E-03 0. -1.
        -11    1    3    3    0    0  0.20990051405E+01  0.12790645374E+01  0.33545038723E+02  0.33634973641E+02  0.51100000000E-03 0.  1.
        -12    1    3    3    0    0  0.79088769394E+01  0.45608353154E+01  0.68139087507E+01  0.11392142278E+02  0.00000000000E+00 0.  1.
</event>
<event>
 7    1  0.1246400E-009  0.4778727E+02  0.7816164E-02  0.1312668E+00
        -11   -1    0    0    0    0  0.00000000000E+00  0.00000000000E+00  0.45593999997E+02  0.45594000000E+02  0.51100000000E-03 0. -1.
         11   -1    0    0    0    0 -0.00000000000E+00 -0.00000000000E+00 -0.45593999997E+02  0.45594000000E+02  0.51100000000E-03 0.  1.
    9900012    2    1    2    0    0  0.62845383043E+01  0.45004411893E+01 -0.42706836430E+02  0.47787271084E+02  0.20000000180E+02 0.  0.
         12    1    1    2    0    0 -0.62845383043E+01 -0.45004411893E+01  0.42706836430E+02  0.43400728916E+02  0.00000000000E+00 0. -1.
         11    1    3    3    0    0 -0.21333994532E+01 -0.13663614788E+01 -0.13291011524E+02  0.13530311324E+02  0.51100000000E-03 0. -1.
        -11    1    3    3    0    0  0.10445163988E+02 -0.89006795835E+00 -0.16784135329E+02  0.19788907769E+02  0.51100000000E-03 0.  1.
        -12    1    3    3    0    0 -0.20272262301E+01  0.67568706264E+01 -0.12631689577E+02  0.14468051991E+02  0.00000000000E+00 0.  1.
</event>
<event>
 7    1  0.1246400E-009  0.4778727E+02  0.7816164E-02  0.1312668E+00
        -11   -1    0    0    0    0  0.00000000000E+00  0.00000000000E+00  0.45593999997E+02  0.45594000000E+02  0.51100000000E-03 0. -1.
         11   -1    0    0    0    0 -0.00000000000E+00 -0.00000000000E+00 -0.45593999997E+02  0.45594000000E+02  0.51100000000E-03 0.  1.
    9900012    2    1    2    0    0 -0.22154965342E+02 -0.48145767882E+01 -0.37008113029E+02  0.47787273405E+02  0.20000010764E+02 0.  0.
         12    1    1    2    0    0  0.22154965342E+02  0.48145767882E+01  0.37008113029E+02  0.43400726595E+02  0.00000000000E+00 0. -1.
         11    1    3    3    0    0 -0.54136088021E+01 -0.63288979624E+00 -0.19055231632E+01  0.57739699119E+01  0.51100000000E-03 0. -1.
        -11    1    3    3    0    0 -0.12881302300E+02  0.34938134276E+01 -0.27385978938E+02  0.30465169027E+02  0.51100000000E-03 0.  1.
        -12    1    3    3    0    0 -0.38600542397E+01 -0.76755004196E+01 -0.77166109285E+01  0.11548134466E+02  0.00000000000E+00 0.  1.
</event>
<event>
 7    1  0.1246400E-009  0.4778727E+02  0.7816164E-02  0.1312668E+00
        -11   -1    0    0    0    0  0.00000000000E+00  0.00000000000E+00  0.45593999997E+02  0.45594000000E+02  0.51100000000E-03 0.  1.
         11   -1    0    0    0    0 -0.00000000000E+00 -0.00000000000E+00 -0.45593999997E+02  0.45594000000E+02  0.51100000000E-03 0. -1.
    9900012    2    1    2    0    0 -0.65658923785E+01 -0.40286366830E+02  0.14748590829E+02  0.47787271590E+02  0.20000002487E+02 0.  0.
         12    1    1    2    0    0  0.65658923785E+01  0.40286366830E+02 -0.14748590829E+02  0.43400728410E+02  0.00000000000E+00 0. -1.
         11    1    3    3    0    0 -0.60814245315E+00 -0.12064393487E+02 -0.13695270664E+01  0.12157098013E+02  0.51100000000E-03 0. -1.
        -11    1    3    3    0    0 -0.74267135025E+01 -0.62685388148E+01  0.39833836367E+01  0.10503237490E+02  0.51100000000E-03 0.  1.
        -12    1    3    3    0    0  0.14689635771E+01 -0.21953434528E+02  0.12134734259E+02  0.25126936087E+02  0.00000000000E+00 0.  1.
</event>
<event>
 7    1  0.1246400E-009  0.4778727E+02  0.7816164E-02  0.1312668E+00
        -11   -1    0    0    0    0  0.00000000000E+00  0.00000000000E+00  0.45593999997E+02  0.45594000000E+02  0.51100000000E-03 0.  1.
         11   -1    0    0    0    0 -0.00000000000E+00 -0.00000000000E+00 -0.45593999997E+02  0.45594000000E+02  0.51100000000E-03 0. -1.
    9900012    2    1    2    0    0  0.30908885281E+01 -0.52742856663E+01  0.42968026259E+02  0.47787274640E+02  0.20000016392E+02 0.  0.
         12    1    1    2    0    0 -0.30908885281E+01  0.52742856663E+01 -0.42968026259E+02  0.43400725360E+02  0.00000000000E+00 0. -1.
         11    1    3    3    0    0  0.43948765685E+01  0.16722359566E+01  0.13426575949E+02  0.14226182029E+02  0.51100000000E-03 0.  1.
        -11    1    3    3    0    0 -0.62822185494E+01 -0.17507303590E+01  0.57136641300E+01  0.86704835358E+01  0.51100000000E-03 0. -1.
         12    1    3    3    0    0  0.49782305090E+01 -0.51957912640E+01  0.23827786180E+02  0.24890609075E+02  0.00000000000E+00 0. -1.
</event>
<event>
 7    1  0.1246400E-009  0.4778727E+02  0.7816164E-02  0.1312668E+00
        -11   -1    0    0    0    0  0.00000000000E+00  0.00000000000E+00  0.45593999997E+02  0.45594000000E+02  0.51100000000E-03 0. -1.
         11   -1    0    0    0    0 -0.00000000000E+00 -0.00000000000E+00 -0.45593999997E+02  0.45594000000E+02  0.51100000000E-03 0.  1.
    9900012    2    1    2    0    0 -0.17572208010E+02  0.32257077335E+02 -0.23115406039E+02  0.47787268107E+02  0.19999986607E+02 0.  0.
         12    1    1    2    0    0  0.17572208010E+02 -0.32257077335E+02  0.23115406039E+02  0.43400731893E+02  0.00000000000E+00 0. -1.
         11    1    3    3    0    0 -0.57606212463E+01  0.13904400131E+02 -0.21490918952E+01  0.15203147581E+02  0.51100000000E-03 0. -1.
        -11    1    3    3    0    0 -0.12546051223E+02  0.90653268007E+01 -0.11341188111E+02  0.19188697177E+02  0.51100000000E-03 0.  1.
        -12    1    3    3    0    0  0.73446446021E+00  0.92873504032E+01 -0.96251260322E+01  0.13395423349E+02  0.00000000000E+00 0.  1.
</event>
<event>
 7    1  0.1246400E-009  0.4778727E+02  0.7816164E-02  0.1312668E+00
        -11   -1    0    0    0    0  0.00000000000E+00  0.00000000000E+00  0.45593999997E+02  0.45594000000E+02  0.51100000000E-03 0. -1.
         11   -1    0    0    0    0 -0.00000000000E+00 -0.00000000000E+00 -0.45593999997E+02  0.45594000000E+02  0.51100000000E-03 0.  1.
    9900012    2    1    2    0    0  0.26847350699E+02 -0.27530690941E+02 -0.20122225584E+02  0.47787272521E+02  0.20000006732E+02 0.  0.
         12    1    1    2    0    0 -0.26847350699E+02  0.27530690941E+02  0.20122225584E+02  0.43400727479E+02  0.00000000000E+00 0. -1.
         11    1    3    3    0    0 -0.10542995111E+01 -0.75431995969E+01 -0.31096949328E+01  0.82268833986E+01  0.51100000000E-03 0. -1.
        -11    1    3    3    0    0  0.13166771826E+02 -0.10968963689E+02 -0.31811226155E+01  0.17429904936E+02  0.51100000000E-03 0.  1.
        -12    1    3    3    0    0  0.14734878384E+02 -0.90185276546E+01 -0.13831408036E+02  0.22130484186E+02  0.00000000000E+00 0.  1.
</event>
<event>
 7    1  0.1246400E-009  0.4778727E+02  0.7816164E-02  0.1312668E+00
        -11   -1    0    0    0    0  0.00000000000E+00  0.00000000000E+00  0.45593999997E+02  0.45594000000E+02  0.51100000000E-03 0. -1.
         11   -1    0    0    0    0 -0.00000000000E+00 -0.00000000000E+00 -0.45593999997E+02  0.45594000000E+02  0.51100000000E-03 0.  1.
    9900012    2    1    2    0    0 -0.33828439857E+02 -0.85432948642E+01  0.25812252979E+02  0.47787266894E+02  0.19999981076E+02 0.  0.
         12    1    1    2    0    0  0.33828439857E+02  0.85432948642E+01 -0.25812252979E+02  0.43400733106E+02  0.00000000000E+00 0. -1.
         11    1    3    3    0    0 -0.10134527773E+02 -0.59248025928E+01  0.15832710306E+01  0.11845618868E+02  0.51100000000E-03 0.  1.
        -11    1    3    3    0    0 -0.21197444342E+02 -0.18965314517E+01  0.14207515548E+02  0.25588707988E+02  0.51100000000E-03 0. -1.
         12    1    3    3    0    0 -0.24964677412E+01 -0.72196081973E+00  0.10021466400E+02  0.10352940037E+02  0.00000000000E+00 0. -1.
</event>
<event>
 7    1  0.1246400E-009  0.4778727E+02  0.7816164E-02  0.1312668E+00
        -11   -1    0    0    0    0  0.00000000000E+00  0.00000000000E+00  0.45593999997E+02  0.45594000000E+02  0.51100000000E-03 0.  1.
         11   -1    0    0    0    0 -0.00000000000E+00 -0.00000000000E+00 -0.45593999997E+02  0.45594000000E+02  0.51100000000E-03 0. -1.
    9900012    2    1    2    0    0  0.20163791642E+02  0.34111669924E+02  0.17704204655E+02  0.47787269812E+02  0.19999994380E+02 0.  0.
         12    1    1    2    0    0 -0.20163791642E+02 -0.34111669924E+02 -0.17704204655E+02  0.43400730188E+02  0.00000000000E+00 0. -1.
         11    1    3    3    0    0  0.47480628887E+01  0.10922384804E+02  0.12399407028E+02  0.17192669540E+02  0.51100000000E-03 0. -1.
        -11    1    3    3    0    0  0.17388179406E+00  0.52324915215E+01 -0.24732765196E+01  0.57901899282E+01  0.51100000000E-03 0.  1.
         12    1    3    3    0    0  0.15241846959E+02  0.17956793598E+02  0.77780741468E+01  0.24804410344E+02  0.00000000000E+00 0. -1.
</event>
<event>
 7    1  0.1246400E-009  0.4778728E+02  0.7816164E-02  0.1312668E+00
        -11   -1    0    0    0    0  0.00000000000E+00  0.00000000000E+00  0.45593999997E+02  0.45594000000E+02  0.51100000000E-03 0. -1.
         11   -1    0    0    0    0 -0.00000000000E+00 -0.00000000000E+00 -0.45593999997E+02  0.45594000000E+02  0.51100000000E-03 0.  1.
    9900012    2    1    2    0    0  0.37782569703E+02  0.20487157231E+02 -0.60312986530E+01  0.47787277100E+02  0.20000027611E+02 0.  0.
         12    1    1    2    0    0 -0.37782569703E+02 -0.20487157231E+02  0.60312986530E+01  0.43400722900E+02  0.00000000000E+00 0. -1.
         11    1    3    3    0    0  0.18143380848E+02  0.57533205151E+01  0.32999224472E+01  0.19317672063E+02  0.51100000000E-03 0. -1.
        -11    1    3    3    0    0  0.81661355901E-01  0.50502493424E+01 -0.22134180991E+01  0.55146085029E+01  0.51100000000E-03 0.  1.
        -12    1    3    3    0    0  0.19557527499E+02  0.96835873736E+01 -0.71178030010E+01  0.22954996534E+02  0.00000000000E+00 0.  1.
</event>
<event>
 7    1  0.1246400E-009  0.4778726E+02  0.7816164E-02  0.1312668E+00
        -11   -1    0    0    0    0  0.00000000000E+00  0.00000000000E+00  0.45593999997E+02  0.45594000000E+02  0.51100000000E-03 0.  1.
         11   -1    0    0    0    0 -0.00000000000E+00 -0.00000000000E+00 -0.45593999997E+02  0.45594000000E+02  0.51100000000E-03 0. -1.
    9900012    2    1    2    0    0  0.19710908683E+02 -0.13667743337E+02  0.36170391795E+02  0.47787258397E+02  0.19999942337E+02 0.  0.
         12    1    1    2    0    0 -0.19710908683E+02  0.13667743337E+02 -0.36170391795E+02  0.43400741603E+02  0.00000000000E+00 0. -1.
         11    1    3    3    0    0  0.67820617411E+01  0.33340215752E+00  0.66105302195E+01  0.94766359275E+01  0.51100000000E-03 0. -1.
        -11    1    3    3    0    0  0.25775435143E+01 -0.10252757372E+02  0.23442691870E+02  0.25716192694E+02  0.51100000000E-03 0.  1.
         12    1    3    3    0    0  0.10351303428E+02 -0.37483881219E+01  0.61171697059E+01  0.12594429776E+02  0.00000000000E+00 0. -1.
</event>
<event>
 7    1  0.1246400E-009  0.4778727E+02  0.7816164E-02  0.1312668E+00
        -11   -1    0    0    0    0  0.00000000000E+00  0.00000000000E+00  0.45593999997E+02  0.45594000000E+02  0.51100000000E-03 0. -1.
         11   -1    0    0    0    0 -0.00000000000E+00 -0.00000000000E+00 -0.45593999997E+02  0.45594000000E+02  0.51100000000E-03 0.  1.
    9900012    2    1    2    0    0  0.30541865183E+02 -0.22302549695E+02 -0.21293522825E+02  0.47787269983E+02  0.19999995158E+02 0.  0.
         12    1    1    2    0    0 -0.30541865183E+02  0.22302549695E+02  0.21293522825E+02  0.43400730017E+02  0.00000000000E+00 0. -1.
         11    1    3    3    0    0  0.13051504975E+02 -0.13060642425E+02 -0.17261304074E+02  0.25275972410E+02  0.51100000000E-03 0. -1.
        -11    1    3    3    0    0  0.16335564964E+02 -0.56926676598E+01 -0.59771671670E+01  0.18302559258E+02  0.51100000000E-03 0.  1.
         12    1    3    3    0    0  0.11547952437E+01 -0.35492396105E+01  0.19449484155E+01  0.42087383153E+01  0.00000000000E+00 0. -1.
</event>
<event>
 7    1  0.1246400E-009  0.4778727E+02  0.7816164E-02  0.1312668E+00
        -11   -1    0    0    0    0  0.00000000000E+00  0.00000000000E+00  0.45593999997E+02  0.45594000000E+02  0.51100000000E-03 0. -1.
         11   -1    0    0    0    0 -0.00000000000E+00 -0.00000000000E+00 -0.45593999997E+02  0.45594000000E+02  0.51100000000E-03 0.  1.
    9900012    2    1    2    0    0 -0.20685865966E+02 -0.29421681660E+02 -0.24291621314E+02  0.47787271106E+02  0.20000000282E+02 0.  0.
         12    1    1    2    0    0  0.20685865966E+02  0.29421681660E+02  0.24291621314E+02  0.43400728894E+02  0.00000000000E+00 0. -1.
         11    1    3    3    0    0 -0.34739812086E+01 -0.84885483246E+01  0.35885800696E+00  0.91789311702E+01  0.51100000000E-03 0. -1.
        -11    1    3    3    0    0 -0.12808250384E+02 -0.20990728291E+02 -0.17393904159E+02  0.30119924539E+02  0.51100000000E-03 0.  1.
         12    1    3    3    0    0 -0.44036343734E+01  0.57594955596E-01 -0.72565751620E+01  0.84884153972E+01  0.00000000000E+00 0. -1.
</event>
<event>
 7    1  0.1246400E-009  0.4778727E+02  0.7816164E-02  0.1312668E+00
        -11   -1    0    0    0    0  0.00000000000E+00  0.00000000000E+00  0.45593999997E+02  0.45594000000E+02  0.51100000000E-03 0. -1.
         11   -1    0    0    0    0 -0.00000000000E+00 -0.00000000000E+00 -0.45593999997E+02  0.45594000000E+02  0.51100000000E-03 0.  1.
    9900012    2    1    2    0    0  0.49566590340E+01 -0.13596932477E+02 -0.40916725924E+02  0.47787268418E+02  0.19999988023E+02 0.  0.
         12    1    1    2    0    0 -0.49566590340E+01  0.13596932477E+02  0.40916725924E+02  0.43400731582E+02  0.00000000000E+00 0. -1.
         11    1    3    3    0    0  0.39749689948E+01 -0.23215589098E+01 -0.11769243289E+02  0.12637448403E+02  0.51100000000E-03 0. -1.
        -11    1    3    3    0    0  0.61129565472E+01 -0.11199281826E+02 -0.13036381051E+02  0.18241145313E+02  0.51100000000E-03 0.  1.
         12    1    3    3    0    0 -0.51312665080E+01 -0.76091741526E-01 -0.16111101583E+02  0.16908674701E+02  0.00000000000E+00 0. -1.
</event>
<event>
 7    1  0.1246400E-009  0.4778727E+02  0.7816164E-02  0.1312668E+00
        -11   -1    0    0    0    0  0.00000000000E+00  0.00000000000E+00  0.45593999997E+02  0.45594000000E+02  0.51100000000E-03 0.  1.
         11   -1    0    0    0    0 -0.00000000000E+00 -0.00000000000E+00 -0.45593999997E+02  0.45594000000E+02  0.51100000000E-03 0. -1.
    9900012    2    1    2    0    0 -0.41244932274E+02  0.13223718648E+02  0.27589922382E+01  0.47787271765E+02  0.20000003286E+02 0.  0.
         12    1    1    2    0    0  0.41244932274E+02 -0.13223718648E+02 -0.27589922382E+01  0.43400728235E+02  0.00000000000E+00 0. -1.
         11    1    3    3    0    0 -0.13521792895E+02  0.98406138159E+01 -0.18181190238E+01  0.16822072417E+02  0.51100000000E-03 0. -1.
        -11    1    3    3    0    0 -0.98355386240E+01 -0.45821082223E+01  0.33065539604E+01  0.11343140444E+02  0.51100000000E-03 0.  1.
        -12    1    3    3    0    0 -0.17887600755E+02  0.79652130546E+01  0.12705573015E+01  0.19622058904E+02  0.00000000000E+00 0.  1.
</event>
<event>
 7    1  0.1246400E-009  0.4778727E+02  0.7816164E-02  0.1312668E+00
        -11   -1    0    0    0    0  0.00000000000E+00  0.00000000000E+00  0.45593999997E+02  0.45594000000E+02  0.51100000000E-03 0.  1.
         11   -1    0    0    0    0 -0.00000000000E+00 -0.00000000000E+00 -0.45593999997E+02  0.45594000000E+02  0.51100000000E-03 0. -1.
    9900012    2    1    2    0    0 -0.35588710169E+02 -0.16818529732E+02 -0.18281257475E+02  0.47787267187E+02  0.19999982413E+02 0.  0.
         12    1    1    2    0    0  0.35588710169E+02  0.16818529732E+02  0.18281257475E+02  0.43400732813E+02  0.00000000000E+00 0. -1.
         11    1    3    3    0    0 -0.49464467803E+00 -0.15609646248E+01 -0.52446339406E+01  0.54943124547E+01  0.51100000000E-03 0. -1.
        -11    1    3    3    0    0 -0.25263705270E+02 -0.56008692322E+01 -0.11851983054E+02  0.28462151055E+02  0.51100000000E-03 0.  1.
         12    1    3    3    0    0 -0.98303602213E+01 -0.96566958745E+01 -0.11846404801E+01  0.13830803677E+02  0.00000000000E+00 0. -1.
</event>
<event>
 7    1  0.1246400E-009  0.4778722E+02  0.7816164E-02  0.1312668E+00
        -11   -1    0    0    0    0  0.00000000000E+00  0.00000000000E+00  0.45593999997E+02  0.45594000000E+02  0.51100000000E-03 0.  1.
         11   -1    0    0    0    0 -0.00000000000E+00 -0.00000000000E+00 -0.45593999997E+02  0.45594000000E+02  0.51100000000E-03 0. -1.
    9900012    2    1    2    0    0 -0.19500087368E+02  0.16107686434E+01  0.38739903787E+02  0.47787215117E+02  0.19999745004E+02 0.  0.
         12    1    1    2    0    0  0.19500087368E+02 -0.16107686434E+01 -0.38739903787E+02  0.43400784883E+02  0.00000000000E+00 0. -1.
         11    1    3    3    0    0 -0.98725170968E+01  0.51299929356E+01  0.20399566982E+02  0.23236302517E+02  0.51100000000E-03 0. -1.
        -11    1    3    3    0    0 -0.12652948758E+02 -0.22776968830E+01  0.16021578380E+02  0.20542054168E+02  0.51100000000E-03 0.  1.
        -12    1    3    3    0    0  0.30253784873E+01 -0.12415274091E+01  0.23187584253E+01  0.40088584328E+01  0.00000000000E+00 0.  1.
</event>
<event>
 7    1  0.1246400E-009  0.4778727E+02  0.7816164E-02  0.1312668E+00
        -11   -1    0    0    0    0  0.00000000000E+00  0.00000000000E+00  0.45593999997E+02  0.45594000000E+02  0.51100000000E-03 0.  1.
         11   -1    0    0    0    0 -0.00000000000E+00 -0.00000000000E+00 -0.45593999997E+02  0.45594000000E+02  0.51100000000E-03 0. -1.
    9900012    2    1    2    0    0 -0.38064450977E+02  0.20538197945E+02 -0.35921165705E+01  0.47787270692E+02  0.19999998393E+02 0.  0.
         12    1    1    2    0    0  0.38064450977E+02 -0.20538197945E+02  0.35921165705E+01  0.43400729308E+02  0.00000000000E+00 0. -1.
         11    1    3    3    0    0 -0.15439776489E+02  0.24096521185E+01 -0.25538744593E+01  0.15833994959E+02  0.51100000000E-03 0. -1.
        -11    1    3    3    0    0 -0.81028776570E+01  0.96688206545E+01  0.57043425205E+01  0.13844935645E+02  0.51100000000E-03 0.  1.
        -12    1    3    3    0    0 -0.14521796831E+02  0.84597251721E+01 -0.67425846317E+01  0.18108340087E+02  0.00000000000E+00 0.  1.
</event>
<event>
 7    1  0.1246400E-009  0.4778727E+02  0.7816164E-02  0.1312668E+00
        -11   -1    0    0    0    0  0.00000000000E+00  0.00000000000E+00  0.45593999997E+02  0.45594000000E+02  0.51100000000E-03 0.  1.
         11   -1    0    0    0    0 -0.00000000000E+00 -0.00000000000E+00 -0.45593999997E+02  0.45594000000E+02  0.51100000000E-03 0. -1.
    9900012    2    1    2    0    0  0.14689268111E+02  0.36376879278E+02  0.18562633451E+02  0.47787270695E+02  0.19999998405E+02 0.  0.
         12    1    1    2    0    0 -0.14689268111E+02 -0.36376879278E+02 -0.18562633451E+02  0.43400729305E+02  0.00000000000E+00 0. -1.
         11    1    3    3    0    0 -0.68338548262E+00  0.24654218641E+01  0.68380650239E+01  0.73009899478E+01  0.51100000000E-03 0. -1.
        -11    1    3    3    0    0 -0.12745749054E+01  0.51714392528E+01  0.31349043061E+01  0.61802872429E+01  0.51100000000E-03 0.  1.
        -12    1    3    3    0    0  0.16647228499E+02  0.28740018161E+02  0.85896641210E+01  0.34305993504E+02  0.00000000000E+00 0.  1.
</event>
<event>
 7    1  0.1246400E-009  0.4778726E+02  0.7816164E-02  0.1312668E+00
        -11   -1    0    0    0    0  0.00000000000E+00  0.00000000000E+00  0.45593999997E+02  0.45594000000E+02  0.51100000000E-03 0.  1.
         11   -1    0    0    0    0 -0.00000000000E+00 -0.00000000000E+00 -0.45593999997E+02  0.45594000000E+02  0.51100000000E-03 0. -1.
    9900012    2    1    2    0    0 -0.36425715315E+02 -0.23333354442E+02  0.35136936623E+01  0.47787260273E+02  0.19999950889E+02 0.  0.
         12    1    1    2    0    0  0.36425715315E+02  0.23333354442E+02 -0.35136936623E+01  0.43400739727E+02  0.00000000000E+00 0. -1.
         11    1    3    3    0    0 -0.32503095738E+01 -0.16104319054E+01 -0.39524767334E+01  0.53647065005E+01  0.51100000000E-03 0. -1.
        -11    1    3    3    0    0 -0.30888231874E+02 -0.14703965476E+02  0.46619821830E+01  0.34525694014E+02  0.51100000000E-03 0.  1.
         12    1    3    3    0    0 -0.22871738672E+01 -0.70189570605E+01  0.28041882127E+01  0.78968597586E+01  0.00000000000E+00 0. -1.
</event>
<event>
 7    1  0.1246400E-009  0.4778727E+02  0.7816164E-02  0.1312668E+00
        -11   -1    0    0    0    0  0.00000000000E+00  0.00000000000E+00  0.45593999997E+02  0.45594000000E+02  0.51100000000E-03 0.  1.
         11   -1    0    0    0    0 -0.00000000000E+00 -0.00000000000E+00 -0.45593999997E+02  0.45594000000E+02  0.51100000000E-03 0. -1.
    9900012    2    1    2    0    0  0.35230634930E+02 -0.16564983300E+01  0.25291928785E+02  0.47787270905E+02  0.19999999363E+02 0.  0.
         12    1    1    2    0    0 -0.35230634930E+02  0.16564983300E+01 -0.25291928785E+02  0.43400729095E+02  0.00000000000E+00 0. -1.
         11    1    3    3    0    0  0.77465273585E+01 -0.48278816736E+01  0.46265172847E+01  0.10233366505E+02  0.51100000000E-03 0. -1.
        -11    1    3    3    0    0  0.28773028932E+02  0.24876531023E+01  0.16774657892E+02  0.33398574214E+02  0.51100000000E-03 0.  1.
         12    1    3    3    0    0 -0.12889213599E+01  0.68373024132E+00  0.38907536085E+01  0.41553301862E+01  0.00000000000E+00 0. -1.
</event>
<event>
 7    1  0.1246400E-009  0.4778728E+02  0.7816164E-02  0.1312668E+00
        -11   -1    0    0    0    0  0.00000000000E+00  0.00000000000E+00  0.45593999997E+02  0.45594000000E+02  0.51100000000E-03 0.  1.
         11   -1    0    0    0    0 -0.00000000000E+00 -0.00000000000E+00 -0.45593999997E+02  0.45594000000E+02  0.51100000000E-03 0. -1.
    9900012    2    1    2    0    0 -0.36282738076E+02 -0.39775394022E+01  0.23481146783E+02  0.47787283920E+02  0.20000058706E+02 0.  0.
         12    1    1    2    0    0  0.36282738076E+02  0.39775394022E+01 -0.23481146783E+02  0.43400716080E+02  0.00000000000E+00 0. -1.
         11    1    3    3    0    0 -0.84604366766E+01  0.17677625387E+01  0.78326087858E+01  0.11664207380E+02  0.51100000000E-03 0. -1.
        -11    1    3    3    0    0 -0.12226424613E+02  0.54186767143E+01  0.61360922264E+01  0.14713909889E+02  0.51100000000E-03 0.  1.
        -12    1    3    3    0    0 -0.15595876787E+02 -0.11163978655E+02  0.95124457703E+01  0.21409166651E+02  0.00000000000E+00 0.  1.
</event>
<event>
 7    1  0.1246400E-009  0.4778727E+02  0.7816164E-02  0.1312668E+00
        -11   -1    0    0    0    0  0.00000000000E+00  0.00000000000E+00  0.45593999997E+02  0.45594000000E+02  0.51100000000E-03 0.  1.
         11   -1    0    0    0    0 -0.00000000000E+00 -0.00000000000E+00 -0.45593999997E+02  0.45594000000E+02  0.51100000000E-03 0. -1.
    9900012    2    1    2    0    0 -0.32523521929E+02  0.21670460718E+02  0.18874186235E+02  0.47787271292E+02  0.20000001127E+02 0.  0.
         12    1    1    2    0    0  0.32523521929E+02 -0.21670460718E+02 -0.18874186235E+02  0.43400728708E+02  0.00000000000E+00 0. -1.
         11    1    3    3    0    0 -0.24302881807E+00  0.36294155763E+00  0.69313970161E+01  0.69451461062E+01  0.51100000000E-03 0. -1.
        -11    1    3    3    0    0 -0.15134628017E+02  0.11203757792E+02  0.84379415519E+01  0.20634437520E+02  0.51100000000E-03 0.  1.
        -12    1    3    3    0    0 -0.17145865094E+02  0.10103761369E+02  0.35048476667E+01  0.20207687665E+02  0.00000000000E+00 0.  1.
</event>
<event>
 7    1  0.1246400E-009  0.4778729E+02  0.7816164E-02  0.1312668E+00
        -11   -1    0    0    0    0  0.00000000000E+00  0.00000000000E+00  0.45593999997E+02  0.45594000000E+02  0.51100000000E-03 0.  1.
         11   -1    0    0    0    0 -0.00000000000E+00 -0.00000000000E+00 -0.45593999997E+02  0.45594000000E+02  0.51100000000E-03 0. -1.
    9900012    2    1    2    0    0  0.29564098829E+02  0.24400119485E+02  0.20352400266E+02  0.47787286100E+02  0.20000068645E+02 0.  0.
         12    1    1    2    0    0 -0.29564098829E+02 -0.24400119485E+02 -0.20352400266E+02  0.43400713900E+02  0.00000000000E+00 0. -1.
         11    1    3    3    0    0 -0.11681965808E+01  0.99390810348E+00  0.44508283791E+01  0.47076968988E+01  0.51100000000E-03 0. -1.
        -11    1    3    3    0    0  0.13280624959E+02  0.14271645491E+02  0.35103961595E+01  0.19808527098E+02  0.51100000000E-03 0.  1.
         12    1    3    3    0    0  0.17451670450E+02  0.91345658900E+01  0.12391175728E+02  0.23271062103E+02  0.00000000000E+00 0. -1.
</event>
<event>
 7    1  0.1246400E-009  0.4778727E+02  0.7816164E-02  0.1312668E+00
        -11   -1    0    0    0    0  0.00000000000E+00  0.00000000000E+00  0.45593999997E+02  0.45594000000E+02  0.51100000000E-03 0. -1.
         11   -1    0    0    0    0 -0.00000000000E+00 -0.00000000000E+00 -0.45593999997E+02  0.45594000000E+02  0.51100000000E-03 0.  1.
    9900012    2    1    2    0    0  0.24136037908E+02  0.35889760793E+02 -0.36055696590E+01  0.47787269727E+02  0.19999993993E+02 0.  0.
         12    1    1    2    0    0 -0.24136037908E+02 -0.35889760793E+02  0.36055696590E+01  0.43400730273E+02  0.00000000000E+00 0. -1.
         11    1    3    3    0    0  0.50620207060E+01  0.20670098712E+02  0.57978590738E+00  0.21288804249E+02  0.51100000000E-03 0. -1.
        -11    1    3    3    0    0  0.48875276098E+01 -0.38222232025E+00  0.39871442778E+00  0.49186373616E+01  0.51100000000E-03 0.  1.
        -12    1    3    3    0    0  0.14186489592E+02  0.15601884401E+02 -0.45840699941E+01  0.21579828116E+02  0.00000000000E+00 0.  1.
</event>
<event>
 7    1  0.1246400E-009  0.4778728E+02  0.7816164E-02  0.1312668E+00
        -11   -1    0    0    0    0  0.00000000000E+00  0.00000000000E+00  0.45593999997E+02  0.45594000000E+02  0.51100000000E-03 0. -1.
         11   -1    0    0    0    0 -0.00000000000E+00 -0.00000000000E+00 -0.45593999997E+02  0.45594000000E+02  0.51100000000E-03 0.  1.
    9900012    2    1    2    0    0 -0.18255805529E+02  0.24840146740E+02 -0.30550209333E+02  0.47787278625E+02  0.20000034561E+02 0.  0.
         12    1    1    2    0    0  0.18255805529E+02 -0.24840146740E+02  0.30550209333E+02  0.43400721375E+02  0.00000000000E+00 0. -1.
         11    1    3    3    0    0 -0.31350539086E+00 -0.18571309972E+01 -0.14603388781E+01  0.23832354208E+01  0.51100000000E-03 0. -1.
        -11    1    3    3    0    0 -0.36409466405E+01  0.16419077964E+02 -0.10657257795E+02  0.19910292755E+02  0.51100000000E-03 0.  1.
         12    1    3    3    0    0 -0.14301353498E+02  0.10278199773E+02 -0.18432612661E+02  0.25493750449E+02  0.00000000000E+00 0. -1.
</event>
<event>
 7    1  0.1246400E-009  0.4778727E+02  0.7816164E-02  0.1312668E+00
        -11   -1    0    0    0    0  0.00000000000E+00  0.00000000000E+00  0.45593999997E+02  0.45594000000E+02  0.51100000000E-03 0.  1.
         11   -1    0    0    0    0 -0.00000000000E+00 -0.00000000000E+00 -0.45593999997E+02  0.45594000000E+02  0.51100000000E-03 0. -1.
    9900012    2    1    2    0    0  0.21731176159E+02  0.58092880170E+01  0.37116459204E+02  0.47787269725E+02  0.19999993985E+02 0.  0.
         12    1    1    2    0    0 -0.21731176159E+02 -0.58092880170E+01 -0.37116459204E+02  0.43400730275E+02  0.00000000000E+00 0. -1.
         11    1    3    3    0    0 -0.26741688485E+01 -0.24208638373E+01  0.43351516939E+01  0.56396188895E+01  0.51100000000E-03 0. -1.
        -11    1    3    3    0    0  0.11651265252E+02  0.30072958805E+01  0.20058063053E+02  0.23390632830E+02  0.51100000000E-03 0.  1.
         12    1    3    3    0    0  0.12754079756E+02  0.52228559738E+01  0.12723244457E+02  0.18757018005E+02  0.00000000000E+00 0. -1.
</event>
<event>
 7    1  0.1246400E-009  0.4778727E+02  0.7816164E-02  0.1312668E+00
        -11   -1    0    0    0    0  0.00000000000E+00  0.00000000000E+00  0.45593999997E+02  0.45594000000E+02  0.51100000000E-03 0.  1.
         11   -1    0    0    0    0 -0.00000000000E+00 -0.00000000000E+00 -0.45593999997E+02  0.45594000000E+02  0.51100000000E-03 0. -1.
    9900012    2    1    2    0    0  0.42870959007E+02  0.38950903060E+01  0.55256365237E+01  0.47787268282E+02  0.19999987405E+02 0.  0.
         12    1    1    2    0    0 -0.42870959007E+02 -0.38950903060E+01 -0.55256365237E+01  0.43400731718E+02  0.00000000000E+00 0. -1.
         11    1    3    3    0    0  0.44839080991E+01  0.32189085810E+01  0.30269523769E+01  0.62951763476E+01  0.51100000000E-03 0. -1.
        -11    1    3    3    0    0  0.11183012715E+02 -0.66446949646E+01 -0.12667783556E+01  0.13069677586E+02  0.51100000000E-03 0.  1.
         12    1    3    3    0    0  0.27204038193E+02  0.73208766896E+01  0.37654625024E+01  0.28422414348E+02  0.00000000000E+00 0. -1.
</event>
<event>
 7    1  0.1246400E-009  0.4778727E+02  0.7816164E-02  0.1312668E+00
        -11   -1    0    0    0    0  0.00000000000E+00  0.00000000000E+00  0.45593999997E+02  0.45594000000E+02  0.51100000000E-03 0.  1.
         11   -1    0    0    0    0 -0.00000000000E+00 -0.00000000000E+00 -0.45593999997E+02  0.45594000000E+02  0.51100000000E-03 0. -1.
    9900012    2    1    2    0    0  0.20748724489E+01 -0.41706597546E+02  0.11827000831E+02  0.47787270476E+02  0.19999997409E+02 0.  0.
         12    1    1    2    0    0 -0.20748724489E+01  0.41706597546E+02 -0.11827000831E+02  0.43400729524E+02  0.00000000000E+00 0. -1.
         11    1    3    3    0    0 -0.10298644592E+00 -0.18356187459E+02  0.81189630605E+01  0.20071815704E+02  0.51100000000E-03 0.  1.
        -11    1    3    3    0    0  0.62114102247E+01 -0.11328094387E+02  0.68895990281E+01  0.14641513393E+02  0.51100000000E-03 0. -1.
         12    1    3    3    0    0 -0.40335513299E+01 -0.12022315701E+02 -0.31815612581E+01  0.13073941379E+02  0.00000000000E+00 0. -1.
</event>
<event>
 7    1  0.1246400E-009  0.4778727E+02  0.7816164E-02  0.1312668E+00
        -11   -1    0    0    0    0  0.00000000000E+00  0.00000000000E+00  0.45593999997E+02  0.45594000000E+02  0.51100000000E-03 0.  1.
         11   -1    0    0    0    0 -0.00000000000E+00 -0.00000000000E+00 -0.45593999997E+02  0.45594000000E+02  0.51100000000E-03 0. -1.
    9900012    2    1    2    0    0 -0.35755189066E+02 -0.20481236086E+02  0.13627500362E+02  0.47787270250E+02  0.19999996377E+02 0.  0.
         12    1    1    2    0    0  0.35755189066E+02  0.20481236086E+02 -0.13627500362E+02  0.43400729750E+02  0.00000000000E+00 0. -1.
         11    1    3    3    0    0 -0.82024466220E+01 -0.24839981270E+00  0.74027780963E+01  0.11051830475E+02  0.51100000000E-03 0. -1.
        -11    1    3    3    0    0 -0.25919293178E+02 -0.13406899423E+02  0.47975412507E+01  0.29573148518E+02  0.51100000000E-03 0.  1.
         12    1    3    3    0    0 -0.16334492658E+01 -0.68259368503E+01  0.14271810155E+01  0.71622912563E+01  0.00000000000E+00 0. -1.
</event>
<event>
 7    1  0.1246400E-009  0.4778728E+02  0.7816164E-02  0.1312668E+00
        -11   -1    0    0    0    0  0.00000000000E+00  0.00000000000E+00  0.45593999997E+02  0.45594000000E+02  0.51100000000E-03 0. -1.
         11   -1    0    0    0    0 -0.00000000000E+00 -0.00000000000E+00 -0.45593999997E+02  0.45594000000E+02  0.51100000000E-03 0.  1.
    9900012    2    1    2    0    0  0.62778656760E+01 -0.24325507204E+02 -0.35390400354E+02  0.47787281857E+02  0.20000049297E+02 0.  0.
         12    1    1    2    0    0 -0.62778656760E+01  0.24325507204E+02  0.35390400354E+02  0.43400718143E+02  0.00000000000E+00 0. -1.
         11    1    3    3    0    0 -0.59214592331E+00 -0.64765461881E+01 -0.24275984247E+01  0.69418673059E+01  0.51100000000E-03 0. -1.
        -11    1    3    3    0    0 -0.42549284852E+01 -0.84692615347E+01 -0.14762037241E+02  0.17542820501E+02  0.51100000000E-03 0.  1.
         12    1    3    3    0    0  0.11124940084E+02 -0.93796994810E+01 -0.18200764688E+02  0.23302594050E+02  0.00000000000E+00 0. -1.
</event>
<event>
 7    1  0.1246400E-009  0.4778727E+02  0.7816164E-02  0.1312668E+00
        -11   -1    0    0    0    0  0.00000000000E+00  0.00000000000E+00  0.45593999997E+02  0.45594000000E+02  0.51100000000E-03 0.  1.
         11   -1    0    0    0    0 -0.00000000000E+00 -0.00000000000E+00 -0.45593999997E+02  0.45594000000E+02  0.51100000000E-03 0. -1.
    9900012    2    1    2    0    0  0.36820219406E+02 -0.20966140314E+02  0.93976427024E+01  0.47787270915E+02  0.19999999409E+02 0.  0.
         12    1    1    2    0    0 -0.36820219406E+02  0.20966140314E+02 -0.93976427024E+01  0.43400729085E+02  0.00000000000E+00 0. -1.
         11    1    3    3    0    0  0.15632400906E+02 -0.71612832557E+01  0.56661572592E+01  0.18104178366E+02  0.51100000000E-03 0. -1.
        -11    1    3    3    0    0  0.21844001729E+02 -0.15964415251E+02  0.41942486233E+01  0.27379092162E+02  0.51100000000E-03 0.  1.
         12    1    3    3    0    0 -0.65618322870E+00  0.21595581935E+01 -0.46276318011E+00  0.23040003867E+01  0.00000000000E+00 0. -1.
</event>
<event>
 7    1  0.1246400E-009  0.4778728E+02  0.7816164E-02  0.1312668E+00
        -11   -1    0    0    0    0  0.00000000000E+00  0.00000000000E+00  0.45593999997E+02  0.45594000000E+02  0.51100000000E-03 0.  1.
         11   -1    0    0    0    0 -0.00000000000E+00 -0.00000000000E+00 -0.45593999997E+02  0.45594000000E+02  0.51100000000E-03 0. -1.
    9900012    2    1    2    0    0 -0.32560817486E+02 -0.23403590346E+01  0.28599628703E+02  0.47787275609E+02  0.20000020810E+02 0.  0.
         12    1    1    2    0    0  0.32560817486E+02  0.23403590346E+01 -0.28599628703E+02  0.43400724391E+02  0.00000000000E+00 0. -1.
         11    1    3    3    0    0 -0.28753556404E+02 -0.89232937195E+00  0.20683966593E+02  0.35431479392E+02  0.51100000000E-03 0.  1.
        -11    1    3    3    0    0 -0.26568906634E+01  0.18629960124E+01 -0.45891792188E+00  0.32772592298E+01  0.51100000000E-03 0. -1.
        -12    1    3    3    0    0 -0.11503704180E+01 -0.33110256751E+01  0.83745800315E+01  0.90785369870E+01  0.00000000000E+00 0.  1.
</event>
<event>
 7    1  0.1246400E-009  0.4778727E+02  0.7816164E-02  0.1312668E+00
        -11   -1    0    0    0    0  0.00000000000E+00  0.00000000000E+00  0.45593999997E+02  0.45594000000E+02  0.51100000000E-03 0.  1.
         11   -1    0    0    0    0 -0.00000000000E+00 -0.00000000000E+00 -0.45593999997E+02  0.45594000000E+02  0.51100000000E-03 0. -1.
    9900012    2    1    2    0    0 -0.15995737639E+02  0.34192331812E+02  0.21415971147E+02  0.47787274228E+02  0.20000014513E+02 0.  0.
         12    1    1    2    0    0  0.15995737639E+02 -0.34192331812E+02 -0.21415971147E+02  0.43400725772E+02  0.00000000000E+00 0. -1.
         11    1    3    3    0    0 -0.21202021955E+01  0.88539916839E+01  0.47211076964E+00  0.91165407326E+01  0.51100000000E-03 0. -1.
        -11    1    3    3    0    0 -0.13516223097E+02  0.10705713127E+02  0.15067116897E+02  0.22898004109E+02  0.51100000000E-03 0.  1.
         12    1    3    3    0    0 -0.35931234705E+00  0.14632627002E+02  0.58767434810E+01  0.15772729386E+02  0.00000000000E+00 0. -1.
</event>
<event>
 7    1  0.1246400E-009  0.4778727E+02  0.7816164E-02  0.1312668E+00
        -11   -1    0    0    0    0  0.00000000000E+00  0.00000000000E+00  0.45593999997E+02  0.45594000000E+02  0.51100000000E-03 0.  1.
         11   -1    0    0    0    0 -0.00000000000E+00 -0.00000000000E+00 -0.45593999997E+02  0.45594000000E+02  0.51100000000E-03 0. -1.
    9900012    2    1    2    0    0  0.24664069859E+02 -0.16901046135E+02  0.31458887093E+02  0.47787270979E+02  0.19999999702E+02 0.  0.
         12    1    1    2    0    0 -0.24664069859E+02  0.16901046135E+02 -0.31458887093E+02  0.43400729021E+02  0.00000000000E+00 0. -1.
         11    1    3    3    0    0  0.78860777872E+01 -0.10833851759E+02  0.45131685997E+01  0.14139705014E+02  0.51100000000E-03 0. -1.
        -11    1    3    3    0    0  0.11988413184E+01  0.14339382535E+01  0.70246621455E+01  0.72690630718E+01  0.51100000000E-03 0.  1.
        -12    1    3    3    0    0  0.15579150753E+02 -0.75011326291E+01  0.19921056348E+02  0.26378502894E+02  0.00000000000E+00 0.  1.
</event>
<event>
 7    1  0.1246400E-009  0.4778727E+02  0.7816164E-02  0.1312668E+00
        -11   -1    0    0    0    0  0.00000000000E+00  0.00000000000E+00  0.45593999997E+02  0.45594000000E+02  0.51100000000E-03 0.  1.
         11   -1    0    0    0    0 -0.00000000000E+00 -0.00000000000E+00 -0.45593999997E+02  0.45594000000E+02  0.51100000000E-03 0. -1.
    9900012    2    1    2    0    0  0.15613249392E+02  0.38882373568E+01  0.40307955106E+02  0.47787271997E+02  0.20000004345E+02 0.  0.
         12    1    1    2    0    0 -0.15613249392E+02 -0.38882373568E+01 -0.40307955106E+02  0.43400728003E+02  0.00000000000E+00 0. -1.
         11    1    3    3    0    0  0.66573449320E+01  0.16656007069E+00  0.22857171262E+01  0.70407731708E+01  0.51100000000E-03 0. -1.
        -11    1    3    3    0    0  0.11970977721E+00  0.55682014902E+01  0.12869777903E+02  0.14023208684E+02  0.51100000000E-03 0.  1.
         12    1    3    3    0    0  0.88361946830E+01 -0.18465242041E+01  0.25152460077E+02  0.26723290143E+02  0.00000000000E+00 0. -1.
</event>
<event>
 7    1  0.1246400E-009  0.4778726E+02  0.7816164E-02  0.1312668E+00
        -11   -1    0    0    0    0  0.00000000000E+00  0.00000000000E+00  0.45593999997E+02  0.45594000000E+02  0.51100000000E-03 0. -1.
         11   -1    0    0    0    0 -0.00000000000E+00 -0.00000000000E+00 -0.45593999997E+02  0.45594000000E+02  0.51100000000E-03 0.  1.
    9900012    2    1    2    0    0  0.39511666446E+01 -0.20221992903E+02 -0.38197949618E+02  0.47787261874E+02  0.19999958191E+02 0.  0.
         12    1    1    2    0    0 -0.39511666446E+01  0.20221992903E+02  0.38197949618E+02  0.43400738126E+02  0.00000000000E+00 0. -1.
         11    1    3    3    0    0 -0.25410395752E+01 -0.54242425109E+01 -0.19143824364E+01  0.62884138949E+01  0.51100000000E-03 0. -1.
        -11    1    3    3    0    0 -0.12425393826E+01 -0.81687409528E+00  0.35423085945E+00  0.15286160956E+01  0.51100000000E-03 0.  1.
        -12    1    3    3    0    0  0.77347456025E+01 -0.13980876297E+02 -0.36637798041E+02  0.39970231884E+02  0.00000000000E+00 0.  1.
</event>
<event>
 7    1  0.1246400E-009  0.4778727E+02  0.7816164E-02  0.1312668E+00
        -11   -1    0    0    0    0  0.00000000000E+00  0.00000000000E+00  0.45593999997E+02  0.45594000000E+02  0.51100000000E-03 0. -1.
         11   -1    0    0    0    0 -0.00000000000E+00 -0.00000000000E+00 -0.45593999997E+02  0.45594000000E+02  0.51100000000E-03 0.  1.
    9900012    2    1    2    0    0  0.29600442941E+02  0.30244899109E+01 -0.31595716962E+02  0.47787273141E+02  0.20000009560E+02 0.  0.
         12    1    1    2    0    0 -0.29600442941E+02 -0.30244899109E+01  0.31595716962E+02  0.43400726859E+02  0.00000000000E+00 0. -1.
         11    1    3    3    0    0  0.64789015952E+01 -0.61715162362E+01 -0.94534802983E+01  0.13016607413E+02  0.51100000000E-03 0. -1.
        -11    1    3    3    0    0  0.12004430986E+02  0.52312853438E+01 -0.18005779776E+02  0.22263890389E+02  0.51100000000E-03 0.  1.
         12    1    3    3    0    0  0.11117110360E+02  0.39647208034E+01 -0.41364568873E+01  0.12506775339E+02  0.00000000000E+00 0. -1.
</event>
<event>
 7    1  0.1246400E-009  0.4778727E+02  0.7816164E-02  0.1312668E+00
        -11   -1    0    0    0    0  0.00000000000E+00  0.00000000000E+00  0.45593999997E+02  0.45594000000E+02  0.51100000000E-03 0.  1.
         11   -1    0    0    0    0 -0.00000000000E+00 -0.00000000000E+00 -0.45593999997E+02  0.45594000000E+02  0.51100000000E-03 0. -1.
    9900012    2    1    2    0    0  0.42121528011E+02 -0.74192573895E+01  0.73725562864E+01  0.47787273182E+02  0.20000009745E+02 0.  0.
         12    1    1    2    0    0 -0.42121528011E+02  0.74192573895E+01 -0.73725562864E+01  0.43400726818E+02  0.00000000000E+00 0. -1.
         11    1    3    3    0    0  0.22430139863E+01 -0.23907661512E+01 -0.35015638951E+01  0.47966472150E+01  0.51100000000E-03 0. -1.
        -11    1    3    3    0    0  0.24338906552E+02  0.10502599730E+01  0.98355235049E+01  0.26272094341E+02  0.51100000000E-03 0.  1.
         12    1    3    3    0    0  0.15539607472E+02 -0.60787512113E+01  0.10385966767E+01  0.16718531626E+02  0.00000000000E+00 0. -1.
</event>
<event>
 7    1  0.1246400E-009  0.4778727E+02  0.7816164E-02  0.1312668E+00
        -11   -1    0    0    0    0  0.00000000000E+00  0.00000000000E+00  0.45593999997E+02  0.45594000000E+02  0.51100000000E-03 0. -1.
         11   -1    0    0    0    0 -0.00000000000E+00 -0.00000000000E+00 -0.45593999997E+02  0.45594000000E+02  0.51100000000E-03 0.  1.
    9900012    2    1    2    0    0  0.29627224268E+02 -0.36327914651E+01 -0.31506402481E+02  0.47787274327E+02  0.20000014967E+02 0.  0.
         12    1    1    2    0    0 -0.29627224268E+02  0.36327914651E+01  0.31506402481E+02  0.43400725673E+02  0.00000000000E+00 0. -1.
         11    1    3    3    0    0 -0.55480004468E+00  0.19786133043E+01 -0.55046116370E+01  0.58756670458E+01  0.51100000000E-03 0. -1.
        -11    1    3    3    0    0  0.16896647698E+02 -0.42203082059E+00 -0.20632293439E+02  0.26671451897E+02  0.51100000000E-03 0.  1.
         12    1    3    3    0    0  0.13285376614E+02 -0.51893739488E+01 -0.53694974045E+01  0.15240155384E+02  0.00000000000E+00 0. -1.
</event>
<event>
 7    1  0.1246400E-009  0.4778727E+02  0.7816164E-02  0.1312668E+00
        -11   -1    0    0    0    0  0.00000000000E+00  0.00000000000E+00  0.45593999997E+02  0.45594000000E+02  0.51100000000E-03 0. -1.
         11   -1    0    0    0    0 -0.00000000000E+00 -0.00000000000E+00 -0.45593999997E+02  0.45594000000E+02  0.51100000000E-03 0.  1.
    9900012    2    1    2    0    0 -0.41982852229E+02  0.99181851631E+01  0.47637032957E+01  0.47787272502E+02  0.20000006647E+02 0.  0.
         12    1    1    2    0    0  0.41982852229E+02 -0.99181851631E+01 -0.47637032957E+01  0.43400727498E+02  0.00000000000E+00 0. -1.
         11    1    3    3    0    0 -0.18463761423E+02 -0.50150312947E+01  0.15588519673E+01  0.19196120558E+02  0.51100000000E-03 0. -1.
        -11    1    3    3    0    0 -0.13597656473E+02  0.92976716869E+01 -0.81722464180E+00  0.16492750430E+02  0.51100000000E-03 0.  1.
         12    1    3    3    0    0 -0.99214343334E+01  0.56355447710E+01  0.40220759702E+01  0.12098401515E+02  0.00000000000E+00 0. -1.
</event>
<event>
 7    1  0.1246400E-009  0.4778728E+02  0.7816164E-02  0.1312668E+00
        -11   -1    0    0    0    0  0.00000000000E+00  0.00000000000E+00  0.45593999997E+02  0.45594000000E+02  0.51100000000E-03 0.  1.
         11   -1    0    0    0    0 -0.00000000000E+00 -0.00000000000E+00 -0.45593999997E+02  0.45594000000E+02  0.51100000000E-03 0. -1.
    9900012    2    1    2    0    0 -0.11573921355E+02 -0.79524327793E+01  0.41066114805E+02  0.47787278487E+02  0.20000033936E+02 0.  0.
         12    1    1    2    0    0  0.11573921355E+02  0.79524327793E+01 -0.41066114805E+02  0.43400721513E+02  0.00000000000E+00 0. -1.
         11    1    3    3    0    0 -0.88643366741E+01 -0.10254948568E+02  0.15580732495E+02  0.20651868200E+02  0.51100000000E-03 0. -1.
        -11    1    3    3    0    0 -0.24085727300E+01 -0.17306470432E+01  0.20511209819E+02  0.20724528711E+02  0.51100000000E-03 0.  1.
        -12    1    3    3    0    0 -0.30101195049E+00  0.40331628318E+01  0.49741724914E+01  0.64108815772E+01  0.00000000000E+00 0.  1.
</event>
<event>
 7    1  0.1246400E-009  0.4778727E+02  0.7816164E-02  0.1312668E+00
        -11   -1    0    0    0    0  0.00000000000E+00  0.00000000000E+00  0.45593999997E+02  0.45594000000E+02  0.51100000000E-03 0. -1.
         11   -1    0    0    0    0 -0.00000000000E+00 -0.00000000000E+00 -0.45593999997E+02  0.45594000000E+02  0.51100000000E-03 0.  1.
    9900012    2    1    2    0    0 -0.11416940036E+02 -0.18679939383E+02 -0.37474484201E+02  0.47787267042E+02  0.19999981753E+02 0.  0.
         12    1    1    2    0    0  0.11416940036E+02  0.18679939383E+02  0.37474484201E+02  0.43400732958E+02  0.00000000000E+00 0. -1.
         11    1    3    3    0    0 -0.49693448995E+01 -0.10894419924E+02 -0.98195478550E+01  0.15485680307E+02  0.51100000000E-03 0.  1.
        -11    1    3    3    0    0 -0.69485061764E+00  0.29590415588E+01 -0.13810631035E+01  0.33385745289E+01  0.51100000000E-03 0. -1.
         12    1    3    3    0    0 -0.57527445183E+01 -0.10744561018E+02 -0.26273873242E+02  0.28963012207E+02  0.00000000000E+00 0. -1.
</event>
<event>
 7    1  0.1246400E-009  0.4778727E+02  0.7816164E-02  0.1312668E+00
        -11   -1    0    0    0    0  0.00000000000E+00  0.00000000000E+00  0.45593999997E+02  0.45594000000E+02  0.51100000000E-03 0. -1.
         11   -1    0    0    0    0 -0.00000000000E+00 -0.00000000000E+00 -0.45593999997E+02  0.45594000000E+02  0.51100000000E-03 0.  1.
    9900012    2    1    2    0    0  0.33320024699E+02 -0.27759313162E+02 -0.16792268325E+01  0.47787270560E+02  0.19999997792E+02 0.  0.
         12    1    1    2    0    0 -0.33320024699E+02  0.27759313162E+02  0.16792268325E+01  0.43400729440E+02  0.00000000000E+00 0. -1.
         11    1    3    3    0    0  0.84169727524E+01 -0.14514089792E+02 -0.42105054037E+01  0.17298340638E+02  0.51100000000E-03 0. -1.
        -11    1    3    3    0    0  0.22728379924E+02 -0.12022734755E+02 -0.14912862582E+01  0.25755569105E+02  0.51100000000E-03 0.  1.
         12    1    3    3    0    0  0.21746720228E+01 -0.12224886148E+01  0.40225648294E+01  0.47333608173E+01  0.00000000000E+00 0. -1.
</event>
<event>
 7    1  0.1246400E-009  0.4778727E+02  0.7816164E-02  0.1312668E+00
        -11   -1    0    0    0    0  0.00000000000E+00  0.00000000000E+00  0.45593999997E+02  0.45594000000E+02  0.51100000000E-03 0. -1.
         11   -1    0    0    0    0 -0.00000000000E+00 -0.00000000000E+00 -0.45593999997E+02  0.45594000000E+02  0.51100000000E-03 0.  1.
    9900012    2    1    2    0    0  0.18283520623E+02  0.39152903468E+02 -0.40479968465E+01  0.47787271265E+02  0.20000001004E+02 0.  0.
         12    1    1    2    0    0 -0.18283520623E+02 -0.39152903468E+02  0.40479968465E+01  0.43400728735E+02  0.00000000000E+00 0. -1.
         11    1    3    3    0    0  0.12104548801E+02  0.26229512205E+02  0.64002857174E+01  0.29588360376E+02  0.51100000000E-03 0. -1.
        -11    1    3    3    0    0  0.46973306974E+01  0.55199927610E+01 -0.40538478611E+01  0.83047527660E+01  0.51100000000E-03 0.  1.
         12    1    3    3    0    0  0.14816411239E+01  0.74033985016E+01 -0.63944347029E+01  0.98941581230E+01  0.00000000000E+00 0. -1.
</event>
<event>
 7    1  0.1246400E-009  0.4778727E+02  0.7816164E-02  0.1312668E+00
        -11   -1    0    0    0    0  0.00000000000E+00  0.00000000000E+00  0.45593999997E+02  0.45594000000E+02  0.51100000000E-03 0.  1.
         11   -1    0    0    0    0 -0.00000000000E+00 -0.00000000000E+00 -0.45593999997E+02  0.45594000000E+02  0.51100000000E-03 0. -1.
    9900012    2    1    2    0    0 -0.40895573501E+02  0.14366074271E+02  0.21888991019E+01  0.47787270729E+02  0.19999998562E+02 0.  0.
         12    1    1    2    0    0  0.40895573501E+02 -0.14366074271E+02 -0.21888991019E+01  0.43400729271E+02  0.00000000000E+00 0. -1.
         11    1    3    3    0    0 -0.10402933903E+02 -0.18222761380E+01  0.14355402457E+01  0.10658447362E+02  0.51100000000E-03 0. -1.
        -11    1    3    3    0    0 -0.23491317653E+02  0.12740260386E+02  0.64201973256E+01  0.27484089466E+02  0.51100000000E-03 0.  1.
         12    1    3    3    0    0 -0.70013219446E+01  0.34480900226E+01 -0.56668384694E+01  0.96447339007E+01  0.00000000000E+00 0. -1.
</event>
<event>
 7    1  0.1246400E-009  0.4778727E+02  0.7816164E-02  0.1312668E+00
        -11   -1    0    0    0    0  0.00000000000E+00  0.00000000000E+00  0.45593999997E+02  0.45594000000E+02  0.51100000000E-03 0. -1.
         11   -1    0    0    0    0 -0.00000000000E+00 -0.00000000000E+00 -0.45593999997E+02  0.45594000000E+02  0.51100000000E-03 0.  1.
    9900012    2    1    2    0    0  0.26247853798E+02 -0.32217225142E+02 -0.12518936518E+02  0.47787271937E+02  0.20000004069E+02 0.  0.
         12    1    1    2    0    0 -0.26247853798E+02  0.32217225142E+02  0.12518936518E+02  0.43400728063E+02  0.00000000000E+00 0. -1.
         11    1    3    3    0    0  0.40571429949E+01 -0.28598025355E+01  0.32451457861E+01  0.59304174606E+01  0.51100000000E-03 0. -1.
        -11    1    3    3    0    0  0.12464481116E+02 -0.23871867533E+02 -0.74695999672E+01  0.27946811499E+02  0.51100000000E-03 0.  1.
        -12    1    3    3    0    0  0.97262296881E+01 -0.54855550733E+01 -0.82944823365E+01  0.13910042978E+02  0.00000000000E+00 0.  1.
</event>
<event>
 7    1  0.1246400E-009  0.4778727E+02  0.7816164E-02  0.1312668E+00
        -11   -1    0    0    0    0  0.00000000000E+00  0.00000000000E+00  0.45593999997E+02  0.45594000000E+02  0.51100000000E-03 0.  1.
         11   -1    0    0    0    0 -0.00000000000E+00 -0.00000000000E+00 -0.45593999997E+02  0.45594000000E+02  0.51100000000E-03 0. -1.
    9900012    2    1    2    0    0  0.13992173306E+02  0.30653233752E+02  0.27353644071E+02  0.47787268471E+02  0.19999988269E+02 0.  0.
         12    1    1    2    0    0 -0.13992173306E+02 -0.30653233752E+02 -0.27353644071E+02  0.43400731529E+02  0.00000000000E+00 0. -1.
         11    1    3    3    0    0 -0.10843031053E+01  0.64224965742E+01  0.52061227810E+01  0.83383385720E+01  0.51100000000E-03 0. -1.
        -11    1    3    3    0    0  0.10634723601E+02  0.31756795494E+01  0.83151817815E+01  0.13868112164E+02  0.51100000000E-03 0.  1.
        -12    1    3    3    0    0  0.44417528107E+01  0.21055057628E+02  0.13832339508E+02  0.25580817736E+02  0.00000000000E+00 0.  1.
</event>
<event>
 7    1  0.1246400E-009  0.4778727E+02  0.7816164E-02  0.1312668E+00
        -11   -1    0    0    0    0  0.00000000000E+00  0.00000000000E+00  0.45593999997E+02  0.45594000000E+02  0.51100000000E-03 0. -1.
         11   -1    0    0    0    0 -0.00000000000E+00 -0.00000000000E+00 -0.45593999997E+02  0.45594000000E+02  0.51100000000E-03 0.  1.
    9900012    2    1    2    0    0 -0.40274071551E+02 -0.31610570645E+01  0.15862861548E+02  0.47787268468E+02  0.19999988252E+02 0.  0.
         12    1    1    2    0    0  0.40274071551E+02  0.31610570645E+01 -0.15862861548E+02  0.43400731532E+02  0.00000000000E+00 0. -1.
         11    1    3    3    0    0 -0.58235493030E+01  0.13764365634E+01  0.42542333509E+01  0.73421254254E+01  0.51100000000E-03 0. -1.
        -11    1    3    3    0    0 -0.12491374296E+02  0.33980877800E+01  0.11160110747E+02  0.17091796409E+02  0.51100000000E-03 0.  1.
         12    1    3    3    0    0 -0.21959147952E+02 -0.79355814079E+01  0.44851745037E+00  0.23353346633E+02  0.00000000000E+00 0. -1.
</event>
<event>
 7    1  0.1246400E-009  0.4778727E+02  0.7816164E-02  0.1312668E+00
        -11   -1    0    0    0    0  0.00000000000E+00  0.00000000000E+00  0.45593999997E+02  0.45594000000E+02  0.51100000000E-03 0.  1.
         11   -1    0    0    0    0 -0.00000000000E+00 -0.00000000000E+00 -0.45593999997E+02  0.45594000000E+02  0.51100000000E-03 0. -1.
    9900012    2    1    2    0    0 -0.87569835709E+01  0.14183900506E+02  0.40071881401E+02  0.47787268740E+02  0.19999989495E+02 0.  0.
         12    1    1    2    0    0  0.87569835709E+01 -0.14183900506E+02 -0.40071881401E+02  0.43400731260E+02  0.00000000000E+00 0. -1.
         11    1    3    3    0    0 -0.86502952921E+01  0.99090991069E+01  0.17981799138E+02  0.22279204525E+02  0.51100000000E-03 0. -1.
        -11    1    3    3    0    0  0.91140707383E+00  0.73268879457E+01  0.20746907125E+02  0.22021537306E+02  0.51100000000E-03 0.  1.
         12    1    3    3    0    0 -0.10180953526E+01 -0.30520865470E+01  0.13431751386E+01  0.34865269095E+01  0.00000000000E+00 0. -1.
</event>
<event>
 7    1  0.1246400E-009  0.4778727E+02  0.7816164E-02  0.1312668E+00
        -11   -1    0    0    0    0  0.00000000000E+00  0.00000000000E+00  0.45593999997E+02  0.45594000000E+02  0.51100000000E-03 0. -1.
         11   -1    0    0    0    0 -0.00000000000E+00 -0.00000000000E+00 -0.45593999997E+02  0.45594000000E+02  0.51100000000E-03 0.  1.
    9900012    2    1    2    0    0  0.32430052314E+02 -0.18332808554E+02 -0.22267090213E+02  0.47787268795E+02  0.19999989742E+02 0.  0.
         12    1    1    2    0    0 -0.32430052314E+02  0.18332808554E+02  0.22267090213E+02  0.43400731205E+02  0.00000000000E+00 0. -1.
         11    1    3    3    0    0  0.21657877277E+01 -0.67903421758E+01  0.62963906601E+00  0.71551260618E+01  0.51100000000E-03 0. -1.
        -11    1    3    3    0    0  0.35451027427E+01 -0.14731215159E+01  0.29003153355E+00  0.38499297407E+01  0.51100000000E-03 0.  1.
        -12    1    3    3    0    0  0.26719161844E+02 -0.10069344862E+02 -0.23186760813E+02  0.36782212992E+02  0.00000000000E+00 0.  1.
</event>
<event>
 7    1  0.1246400E-009  0.4778727E+02  0.7816164E-02  0.1312668E+00
        -11   -1    0    0    0    0  0.00000000000E+00  0.00000000000E+00  0.45593999997E+02  0.45594000000E+02  0.51100000000E-03 0. -1.
         11   -1    0    0    0    0 -0.00000000000E+00 -0.00000000000E+00 -0.45593999997E+02  0.45594000000E+02  0.51100000000E-03 0.  1.
    9900012    2    1    2    0    0  0.14972338014E+01  0.17785947858E+02 -0.39560606577E+02  0.47787271400E+02  0.20000001622E+02 0.  0.
         12    1    1    2    0    0 -0.14972338014E+01 -0.17785947858E+02  0.39560606577E+02  0.43400728600E+02  0.00000000000E+00 0. -1.
         11    1    3    3    0    0  0.35220071426E+01 -0.13432272951E+00 -0.68292180886E+01  0.76851022681E+01  0.51100000000E-03 0. -1.
        -11    1    3    3    0    0  0.16953352934E+01  0.16358442249E+02 -0.16197604851E+02  0.23083223297E+02  0.51100000000E-03 0.  1.
         12    1    3    3    0    0 -0.37201086347E+01  0.15618283387E+01 -0.16533783637E+02  0.17018945836E+02  0.00000000000E+00 0. -1.
</event>
<event>
 7    1  0.1246400E-009  0.4778726E+02  0.7816164E-02  0.1312668E+00
        -11   -1    0    0    0    0  0.00000000000E+00  0.00000000000E+00  0.45593999997E+02  0.45594000000E+02  0.51100000000E-03 0. -1.
         11   -1    0    0    0    0 -0.00000000000E+00 -0.00000000000E+00 -0.45593999997E+02  0.45594000000E+02  0.51100000000E-03 0.  1.
    9900012    2    1    2    0    0 -0.27129387130E+02  0.21859838865E+02 -0.25879868584E+02  0.47787264993E+02  0.19999972409E+02 0.  0.
         12    1    1    2    0    0  0.27129387130E+02 -0.21859838865E+02  0.25879868584E+02  0.43400735007E+02  0.00000000000E+00 0. -1.
         11    1    3    3    0    0 -0.12995660704E+01  0.10682954167E+02 -0.96327311582E+01  0.14443126100E+02  0.51100000000E-03 0.  1.
        -11    1    3    3    0    0 -0.16287444956E+02  0.10707770769E+02 -0.97864585370E+01  0.21810822749E+02  0.51100000000E-03 0. -1.
        -12    1    3    3    0    0 -0.95423761036E+01  0.46911392866E+00 -0.64606788887E+01  0.11533316144E+02  0.00000000000E+00 0.  1.
</event>
<event>
 7    1  0.1246400E-009  0.4778727E+02  0.7816164E-02  0.1312668E+00
        -11   -1    0    0    0    0  0.00000000000E+00  0.00000000000E+00  0.45593999997E+02  0.45594000000E+02  0.51100000000E-03 0.  1.
         11   -1    0    0    0    0 -0.00000000000E+00 -0.00000000000E+00 -0.45593999997E+02  0.45594000000E+02  0.51100000000E-03 0. -1.
    9900012    2    1    2    0    0 -0.10737444054E+02 -0.38233995955E+02  0.17506916023E+02  0.47787271202E+02  0.20000000721E+02 0.  0.
         12    1    1    2    0    0  0.10737444054E+02  0.38233995955E+02 -0.17506916023E+02  0.43400728798E+02  0.00000000000E+00 0. -1.
         11    1    3    3    0    0  0.36970579285E+01 -0.12033745493E+02  0.56336779747E+00  0.12601454339E+02  0.51100000000E-03 0. -1.
        -11    1    3    3    0    0 -0.44909577366E+01 -0.10643203627E+02  0.10556744498E+02  0.15649004425E+02  0.51100000000E-03 0.  1.
        -12    1    3    3    0    0 -0.99435442460E+01 -0.15557046835E+02  0.63868037271E+01  0.19536812439E+02  0.00000000000E+00 0.  1.
</event>
<event>
 7    1  0.1246400E-009  0.4778727E+02  0.7816164E-02  0.1312668E+00
        -11   -1    0    0    0    0  0.00000000000E+00  0.00000000000E+00  0.45593999997E+02  0.45594000000E+02  0.51100000000E-03 0.  1.
         11   -1    0    0    0    0 -0.00000000000E+00 -0.00000000000E+00 -0.45593999997E+02  0.45594000000E+02  0.51100000000E-03 0. -1.
    9900012    2    1    2    0    0 -0.38718733068E+02  0.18180604462E+02  0.73449783065E+01  0.47787269875E+02  0.19999994670E+02 0.  0.
         12    1    1    2    0    0  0.38718733068E+02 -0.18180604462E+02 -0.73449783065E+01  0.43400730125E+02  0.00000000000E+00 0. -1.
         11    1    3    3    0    0 -0.24142488678E+01  0.16123615927E+01 -0.40370450900E+01  0.49725286144E+01  0.51100000000E-03 0. -1.
        -11    1    3    3    0    0 -0.99291551902E+01  0.93576665745E+01  0.61928318652E+01  0.14983498032E+02  0.51100000000E-03 0.  1.
         12    1    3    3    0    0 -0.26375329010E+02  0.72105762949E+01  0.51891915313E+01  0.27831243229E+02  0.00000000000E+00 0. -1.
</event>
<event>
 7    1  0.1246400E-009  0.4778727E+02  0.7816164E-02  0.1312668E+00
        -11   -1    0    0    0    0  0.00000000000E+00  0.00000000000E+00  0.45593999997E+02  0.45594000000E+02  0.51100000000E-03 0. -1.
         11   -1    0    0    0    0 -0.00000000000E+00 -0.00000000000E+00 -0.45593999997E+02  0.45594000000E+02  0.51100000000E-03 0.  1.
    9900012    2    1    2    0    0  0.15569600595E+02 -0.30427417134E+02 -0.26746645744E+02  0.47787271496E+02  0.20000002058E+02 0.  0.
         12    1    1    2    0    0 -0.15569600595E+02  0.30427417134E+02  0.26746645744E+02  0.43400728504E+02  0.00000000000E+00 0. -1.
         11    1    3    3    0    0  0.86360767839E+00 -0.92011525702E+01 -0.14603663160E+02  0.17282187500E+02  0.51100000000E-03 0. -1.
        -11    1    3    3    0    0  0.10463245996E+02 -0.90244966312E+01 -0.10760181449E+02  0.17512925549E+02  0.51100000000E-03 0.  1.
        -12    1    3    3    0    0  0.42427469211E+01 -0.12201767933E+02 -0.13828011350E+01  0.12992158447E+02  0.00000000000E+00 0.  1.
</event>
<event>
 7    1  0.1246400E-009  0.4778727E+02  0.7816164E-02  0.1312668E+00
        -11   -1    0    0    0    0  0.00000000000E+00  0.00000000000E+00  0.45593999997E+02  0.45594000000E+02  0.51100000000E-03 0. -1.
         11   -1    0    0    0    0 -0.00000000000E+00 -0.00000000000E+00 -0.45593999997E+02  0.45594000000E+02  0.51100000000E-03 0.  1.
    9900012    2    1    2    0    0 -0.31471417022E+02 -0.21324062555E+02 -0.20939377911E+02  0.47787270968E+02  0.19999999654E+02 0.  0.
         12    1    1    2    0    0  0.31471417022E+02  0.21324062555E+02  0.20939377911E+02  0.43400729032E+02  0.00000000000E+00 0. -1.
         11    1    3    3    0    0 -0.26200798175E+02 -0.98122915840E+01 -0.16888313130E+02  0.32679932861E+02  0.51100000000E-03 0.  1.
        -11    1    3    3    0    0 -0.58334823084E+01 -0.61353190938E+01 -0.19683149094E+00  0.84681992845E+01  0.51100000000E-03 0. -1.
        -12    1    3    3    0    0  0.56286346206E+00 -0.53764518768E+01 -0.38542332894E+01  0.66391388229E+01  0.00000000000E+00 0.  1.
</event>
<event>
 7    1  0.1246400E-009  0.4778727E+02  0.7816164E-02  0.1312668E+00
        -11   -1    0    0    0    0  0.00000000000E+00  0.00000000000E+00  0.45593999997E+02  0.45594000000E+02  0.51100000000E-03 0.  1.
         11   -1    0    0    0    0 -0.00000000000E+00 -0.00000000000E+00 -0.45593999997E+02  0.45594000000E+02  0.51100000000E-03 0. -1.
    9900012    2    1    2    0    0  0.23915097606E+01  0.42355720973E+02  0.91595216071E+01  0.47787271271E+02  0.20000001034E+02 0.  0.
         12    1    1    2    0    0 -0.23915097606E+01 -0.42355720973E+02 -0.91595216071E+01  0.43400728729E+02  0.00000000000E+00 0. -1.
         11    1    3    3    0    0  0.20151067008E+01  0.21361906747E+02  0.89983145062E+01  0.23267173852E+02  0.51100000000E-03 0. -1.
        -11    1    3    3    0    0  0.38362158677E+01  0.78579740526E+01  0.50326234825E+01  0.10089182711E+02  0.51100000000E-03 0.  1.
         12    1    3    3    0    0 -0.34598128078E+01  0.13135840174E+02 -0.48714163817E+01  0.14430914708E+02  0.00000000000E+00 0. -1.
</event>
<event>
 7    1  0.1246400E-009  0.4778727E+02  0.7816164E-02  0.1312668E+00
        -11   -1    0    0    0    0  0.00000000000E+00  0.00000000000E+00  0.45593999997E+02  0.45594000000E+02  0.51100000000E-03 0.  1.
         11   -1    0    0    0    0 -0.00000000000E+00 -0.00000000000E+00 -0.45593999997E+02  0.45594000000E+02  0.51100000000E-03 0. -1.
    9900012    2    1    2    0    0  0.34685837306E+02 -0.20260031711E+02  0.16433102693E+02  0.47787273524E+02  0.20000011305E+02 0.  0.
         12    1    1    2    0    0 -0.34685837306E+02  0.20260031711E+02 -0.16433102693E+02  0.43400726476E+02  0.00000000000E+00 0. -1.
         11    1    3    3    0    0  0.26410990486E+00 -0.48872756043E+01  0.54077222589E+01  0.72937423292E+01  0.51100000000E-03 0. -1.
        -11    1    3    3    0    0  0.10468944704E+02 -0.18145550418E+01 -0.53959048525E+00  0.10638729782E+02  0.51100000000E-03 0.  1.
         12    1    3    3    0    0  0.23952782697E+02 -0.13558201064E+02  0.11564970919E+02  0.29854801413E+02  0.00000000000E+00 0. -1.
</event>
<event>
 7    1  0.1246400E-009  0.4778726E+02  0.7816164E-02  0.1312668E+00
        -11   -1    0    0    0    0  0.00000000000E+00  0.00000000000E+00  0.45593999997E+02  0.45594000000E+02  0.51100000000E-03 0. -1.
         11   -1    0    0    0    0 -0.00000000000E+00 -0.00000000000E+00 -0.45593999997E+02  0.45594000000E+02  0.51100000000E-03 0.  1.
    9900012    2    1    2    0    0 -0.81829130592E+01  0.25424755436E+02 -0.34208855931E+02  0.47787261767E+02  0.19999957698E+02 0.  0.
         12    1    1    2    0    0  0.81829130592E+01 -0.25424755436E+02  0.34208855931E+02  0.43400738233E+02  0.00000000000E+00 0. -1.
         11    1    3    3    0    0 -0.62275932157E+01  0.99277825009E+01 -0.11500393917E+02  0.16419587180E+02  0.51100000000E-03 0. -1.
        -11    1    3    3    0    0  0.36152733435E+01  0.76538890924E+01 -0.19447680032E+02  0.21210008922E+02  0.51100000000E-03 0.  1.
         12    1    3    3    0    0 -0.55705931871E+01  0.78430838425E+01 -0.32607819812E+01  0.10157665664E+02  0.00000000000E+00 0. -1.
</event>
<event>
 7    1  0.1246400E-009  0.4778727E+02  0.7816164E-02  0.1312668E+00
        -11   -1    0    0    0    0  0.00000000000E+00  0.00000000000E+00  0.45593999997E+02  0.45594000000E+02  0.51100000000E-03 0.  1.
         11   -1    0    0    0    0 -0.00000000000E+00 -0.00000000000E+00 -0.45593999997E+02  0.45594000000E+02  0.51100000000E-03 0. -1.
    9900012    2    1    2    0    0  0.37797458347E+02  0.20037868141E+02  0.73115869599E+01  0.47787270502E+02  0.19999997526E+02 0.  0.
         12    1    1    2    0    0 -0.37797458347E+02 -0.20037868141E+02 -0.73115869599E+01  0.43400729498E+02  0.00000000000E+00 0. -1.
         11    1    3    3    0    0  0.20314063220E+00  0.32438457590E+01  0.10737627758E+01  0.34229765095E+01  0.51100000000E-03 0. -1.
        -11    1    3    3    0    0  0.11342832871E+02  0.14832052077E+01 -0.42677043045E+01  0.12209547720E+02  0.51100000000E-03 0.  1.
         12    1    3    3    0    0  0.26251484843E+02  0.15310817174E+02  0.10505528489E+02  0.32154746272E+02  0.00000000000E+00 0. -1.
</event>
<event>
 7    1  0.1246400E-009  0.4778727E+02  0.7816164E-02  0.1312668E+00
        -11   -1    0    0    0    0  0.00000000000E+00  0.00000000000E+00  0.45593999997E+02  0.45594000000E+02  0.51100000000E-03 0. -1.
         11   -1    0    0    0    0 -0.00000000000E+00 -0.00000000000E+00 -0.45593999997E+02  0.45594000000E+02  0.51100000000E-03 0.  1.
    9900012    2    1    2    0    0 -0.37348249019E+02 -0.19574813110E+02  0.10274159347E+02  0.47787270014E+02  0.19999995300E+02 0.  0.
         12    1    1    2    0    0  0.37348249019E+02  0.19574813110E+02 -0.10274159347E+02  0.43400729986E+02  0.00000000000E+00 0. -1.
         11    1    3    3    0    0 -0.14095865848E+02 -0.16125845599E+01  0.41490434339E+01  0.14782030464E+02  0.51100000000E-03 0. -1.
        -11    1    3    3    0    0 -0.24919740004E+02 -0.17968061155E+02  0.61778156010E+01  0.31337039896E+02  0.51100000000E-03 0.  1.
         12    1    3    3    0    0  0.16673568333E+01  0.58326052987E-02 -0.52699687509E-01  0.16681996541E+01  0.00000000000E+00 0. -1.
</event>
<event>
 7    1  0.1246400E-009  0.4778727E+02  0.7816164E-02  0.1312668E+00
        -11   -1    0    0    0    0  0.00000000000E+00  0.00000000000E+00  0.45593999997E+02  0.45594000000E+02  0.51100000000E-03 0.  1.
         11   -1    0    0    0    0 -0.00000000000E+00 -0.00000000000E+00 -0.45593999997E+02  0.45594000000E+02  0.51100000000E-03 0. -1.
    9900012    2    1    2    0    0  0.37981111567E+02  0.99391200633E+01  0.18500608951E+02  0.47787268727E+02  0.19999989433E+02 0.  0.
         12    1    1    2    0    0 -0.37981111567E+02 -0.99391200633E+01 -0.18500608951E+02  0.43400731273E+02  0.00000000000E+00 0. -1.
         11    1    3    3    0    0  0.11981516953E+02  0.70857372425E+01  0.31271194019E+01  0.14266860088E+02  0.51100000000E-03 0.  1.
        -11    1    3    3    0    0  0.76876530499E+01  0.45433416766E+01 -0.88566945231E+00  0.89736488479E+01  0.51100000000E-03 0. -1.
        -12    1    3    3    0    0  0.18311941564E+02 -0.16899588558E+01  0.16259159002E+02  0.24546759791E+02  0.00000000000E+00 0.  1.
</event>
<event>
 7    1  0.1246400E-009  0.4778727E+02  0.7816164E-02  0.1312668E+00
        -11   -1    0    0    0    0  0.00000000000E+00  0.00000000000E+00  0.45593999997E+02  0.45594000000E+02  0.51100000000E-03 0.  1.
         11   -1    0    0    0    0 -0.00000000000E+00 -0.00000000000E+00 -0.45593999997E+02  0.45594000000E+02  0.51100000000E-03 0. -1.
    9900012    2    1    2    0    0  0.23761096046E+02 -0.16730936289E+02  0.32235220708E+02  0.47787269954E+02  0.19999995030E+02 0.  0.
         12    1    1    2    0    0 -0.23761096046E+02  0.16730936289E+02 -0.32235220708E+02  0.43400730046E+02  0.00000000000E+00 0. -1.
         11    1    3    3    0    0  0.69233832611E+01 -0.81952763743E+01  0.39675986102E+01  0.11438427760E+02  0.51100000000E-03 0.  1.
        -11    1    3    3    0    0  0.17221691758E+02 -0.41646733836E+01  0.18370471941E+02  0.25522645062E+02  0.51100000000E-03 0. -1.
        -12    1    3    3    0    0 -0.38397897287E+00 -0.43709865309E+01  0.98971501571E+01  0.10826197132E+02  0.00000000000E+00 0.  1.
</event>
<event>
 7    1  0.1246400E-009  0.4778730E+02  0.7816164E-02  0.1312668E+00
        -11   -1    0    0    0    0  0.00000000000E+00  0.00000000000E+00  0.45593999997E+02  0.45594000000E+02  0.51100000000E-03 0. -1.
         11   -1    0    0    0    0 -0.00000000000E+00 -0.00000000000E+00 -0.45593999997E+02  0.45594000000E+02  0.51100000000E-03 0.  1.
    9900012    2    1    2    0    0  0.85382557005E+01  0.38761361835E+02 -0.17557788741E+02  0.47787298080E+02  0.20000123264E+02 0.  0.
         12    1    1    2    0    0 -0.85382557005E+01 -0.38761361835E+02  0.17557788741E+02  0.43400701920E+02  0.00000000000E+00 0. -1.
         11    1    3    3    0    0  0.67195845212E+01  0.28285985887E+02 -0.11169830893E+02  0.31145062790E+02  0.51100000000E-03 0. -1.
        -11    1    3    3    0    0 -0.16747451324E+01  0.81288934386E+01 -0.85459357413E+01  0.11912879490E+02  0.51100000000E-03 0.  1.
         12    1    3    3    0    0  0.34934163117E+01  0.23464825089E+01  0.21579778930E+01  0.47293557995E+01  0.00000000000E+00 0. -1.
</event>
<event>
 7    1  0.1246400E-009  0.4778727E+02  0.7816164E-02  0.1312668E+00
        -11   -1    0    0    0    0  0.00000000000E+00  0.00000000000E+00  0.45593999997E+02  0.45594000000E+02  0.51100000000E-03 0.  1.
         11   -1    0    0    0    0 -0.00000000000E+00 -0.00000000000E+00 -0.45593999997E+02  0.45594000000E+02  0.51100000000E-03 0. -1.
    9900012    2    1    2    0    0  0.22270071544E+02  0.11822433728E+02  0.35325590813E+02  0.47787269682E+02  0.19999993788E+02 0.  0.
         12    1    1    2    0    0 -0.22270071544E+02 -0.11822433728E+02 -0.35325590813E+02  0.43400730318E+02  0.00000000000E+00 0. -1.
         11    1    3    3    0    0  0.13890760459E+02  0.36130109618E+01  0.15523268323E+02  0.21141876313E+02  0.51100000000E-03 0. -1.
        -11    1    3    3    0    0  0.21660131074E+01 -0.19723258961E+01  0.12093656447E+02  0.12443400208E+02  0.51100000000E-03 0.  1.
         12    1    3    3    0    0  0.62132979775E+01  0.10181748662E+02  0.77086660430E+01  0.14201993161E+02  0.00000000000E+00 0. -1.
</event>
<event>
 7    1  0.1246400E-009  0.4778727E+02  0.7816164E-02  0.1312668E+00
        -11   -1    0    0    0    0  0.00000000000E+00  0.00000000000E+00  0.45593999997E+02  0.45594000000E+02  0.51100000000E-03 0.  1.
         11   -1    0    0    0    0 -0.00000000000E+00 -0.00000000000E+00 -0.45593999997E+02  0.45594000000E+02  0.51100000000E-03 0. -1.
    9900012    2    1    2    0    0 -0.93080846958E+01 -0.38531804200E+02  0.17671528541E+02  0.47787270782E+02  0.19999998804E+02 0.  0.
         12    1    1    2    0    0  0.93080846958E+01  0.38531804200E+02 -0.17671528541E+02  0.43400729218E+02  0.00000000000E+00 0. -1.
         11    1    3    3    0    0 -0.11283181976E+02 -0.10324876544E+02  0.80552847665E+01  0.17285857922E+02  0.51100000000E-03 0.  1.
        -11    1    3    3    0    0 -0.13717249981E+01 -0.45881766105E+01  0.20015312968E-01  0.47888824327E+01  0.51100000000E-03 0. -1.
        -12    1    3    3    0    0  0.33468222781E+01 -0.23618751046E+02  0.95962284619E+01  0.25712530428E+02  0.00000000000E+00 0.  1.
</event>
<event>
 7    1  0.1246400E-009  0.4778728E+02  0.7816164E-02  0.1312668E+00
        -11   -1    0    0    0    0  0.00000000000E+00  0.00000000000E+00  0.45593999997E+02  0.45594000000E+02  0.51100000000E-03 0.  1.
         11   -1    0    0    0    0 -0.00000000000E+00 -0.00000000000E+00 -0.45593999997E+02  0.45594000000E+02  0.51100000000E-03 0. -1.
    9900012    2    1    2    0    0  0.36045168495E+02 -0.54321337256E+01  0.23555479380E+02  0.47787275842E+02  0.20000021872E+02 0.  0.
         12    1    1    2    0    0 -0.36045168495E+02  0.54321337256E+01 -0.23555479380E+02  0.43400724158E+02  0.00000000000E+00 0. -1.
         11    1    3    3    0    0  0.70153674424E+01  0.46319513966E+01  0.79931850774E+01  0.11600058708E+02  0.51100000000E-03 0. -1.
        -11    1    3    3    0    0  0.14510317488E+02 -0.53630297609E+01  0.13967906288E+02  0.20842596003E+02  0.51100000000E-03 0.  1.
        -12    1    3    3    0    0  0.14519483565E+02 -0.47010553613E+01  0.15943880148E+01  0.15344621130E+02  0.00000000000E+00 0.  1.
</event>
<event>
 7    1  0.1246400E-009  0.4778728E+02  0.7816164E-02  0.1312668E+00
        -11   -1    0    0    0    0  0.00000000000E+00  0.00000000000E+00  0.45593999997E+02  0.45594000000E+02  0.51100000000E-03 0. -1.
         11   -1    0    0    0    0 -0.00000000000E+00 -0.00000000000E+00 -0.45593999997E+02  0.45594000000E+02  0.51100000000E-03 0.  1.
    9900012    2    1    2    0    0  0.26721663870E+02  0.29393090975E+02 -0.17482020501E+02  0.47787283902E+02  0.20000058622E+02 0.  0.
         12    1    1    2    0    0 -0.26721663870E+02 -0.29393090975E+02  0.17482020501E+02  0.43400716098E+02  0.00000000000E+00 0. -1.
         11    1    3    3    0    0  0.51947800795E+01  0.15127277387E+02 -0.10734050943E+02  0.19262401489E+02  0.51100000000E-03 0. -1.
        -11    1    3    3    0    0  0.16780144904E+02  0.13650651881E+02 -0.87534260541E+01  0.23335295749E+02  0.51100000000E-03 0.  1.
         12    1    3    3    0    0  0.47467388863E+01  0.61516170756E+00  0.20054564962E+01  0.51895866636E+01  0.00000000000E+00 0. -1.
</event>
<event>
 7    1  0.1246400E-009  0.4778728E+02  0.7816164E-02  0.1312668E+00
        -11   -1    0    0    0    0  0.00000000000E+00  0.00000000000E+00  0.45593999997E+02  0.45594000000E+02  0.51100000000E-03 0. -1.
         11   -1    0    0    0    0 -0.00000000000E+00 -0.00000000000E+00 -0.45593999997E+02  0.45594000000E+02  0.51100000000E-03 0.  1.
    9900012    2    1    2    0    0 -0.30077511731E+02 -0.14754553070E+02 -0.27591110129E+02  0.47787275278E+02  0.20000019302E+02 0.  0.
         12    1    1    2    0    0  0.30077511731E+02  0.14754553070E+02  0.27591110129E+02  0.43400724722E+02  0.00000000000E+00 0. -1.
         11    1    3    3    0    0 -0.70665678897E+01 -0.26026156853E+01 -0.10795752362E+01  0.76075931211E+01  0.51100000000E-03 0. -1.
        -11    1    3    3    0    0 -0.11956346329E+02 -0.50191933526E+01 -0.23256066468E+02  0.26626887676E+02  0.51100000000E-03 0.  1.
        -12    1    3    3    0    0 -0.11054597512E+02 -0.71327440320E+01 -0.32554684249E+01  0.13552794481E+02  0.00000000000E+00 0.  1.
</event>
<event>
 7    1  0.1246400E-009  0.4778727E+02  0.7816164E-02  0.1312668E+00
        -11   -1    0    0    0    0  0.00000000000E+00  0.00000000000E+00  0.45593999997E+02  0.45594000000E+02  0.51100000000E-03 0. -1.
         11   -1    0    0    0    0 -0.00000000000E+00 -0.00000000000E+00 -0.45593999997E+02  0.45594000000E+02  0.51100000000E-03 0.  1.
    9900012    2    1    2    0    0 -0.33775186545E+01 -0.28632186936E+02 -0.32440927753E+02  0.47787267812E+02  0.19999985261E+02 0.  0.
         12    1    1    2    0    0  0.33775186545E+01  0.28632186936E+02  0.32440927753E+02  0.43400732188E+02  0.00000000000E+00 0. -1.
         11    1    3    3    0    0  0.10918391302E+01 -0.13305935042E+02 -0.25630274814E+01  0.13594452183E+02  0.51100000000E-03 0. -1.
        -11    1    3    3    0    0 -0.35535983752E+01 -0.85046526558E+01 -0.12741725558E+02  0.15726053181E+02  0.51100000000E-03 0.  1.
        -12    1    3    3    0    0 -0.91575940952E+00 -0.68215992383E+01 -0.17136174714E+02  0.18466762448E+02  0.00000000000E+00 0.  1.
</event>
<event>
 7    1  0.1246400E-009  0.4778727E+02  0.7816164E-02  0.1312668E+00
        -11   -1    0    0    0    0  0.00000000000E+00  0.00000000000E+00  0.45593999997E+02  0.45594000000E+02  0.51100000000E-03 0. -1.
         11   -1    0    0    0    0 -0.00000000000E+00 -0.00000000000E+00 -0.45593999997E+02  0.45594000000E+02  0.51100000000E-03 0.  1.
    9900012    2    1    2    0    0  0.42375773317E+02 -0.25445913653E+01  0.90245310644E+01  0.47787271085E+02  0.20000000185E+02 0.  0.
         12    1    1    2    0    0 -0.42375773317E+02  0.25445913653E+01 -0.90245310644E+01  0.43400728915E+02  0.00000000000E+00 0. -1.
         11    1    3    3    0    0  0.17299277821E+02 -0.36730582535E+01  0.99809378258E+01  0.20307030561E+02  0.51100000000E-03 0. -1.
        -11    1    3    3    0    0  0.23699963237E+02  0.86887425201E+00  0.24060924335E+01  0.23837627419E+02  0.51100000000E-03 0.  1.
         12    1    3    3    0    0  0.13765322581E+01  0.25959263623E+00 -0.33624991948E+01  0.36426131046E+01  0.00000000000E+00 0. -1.
</event>
<event>
 7    1  0.1246400E-009  0.4778727E+02  0.7816164E-02  0.1312668E+00
        -11   -1    0    0    0    0  0.00000000000E+00  0.00000000000E+00  0.45593999997E+02  0.45594000000E+02  0.51100000000E-03 0.  1.
         11   -1    0    0    0    0 -0.00000000000E+00 -0.00000000000E+00 -0.45593999997E+02  0.45594000000E+02  0.51100000000E-03 0. -1.
    9900012    2    1    2    0    0  0.30809145105E+02  0.13581057816E+02  0.27385672776E+02  0.47787266977E+02  0.19999981457E+02 0.  0.
         12    1    1    2    0    0 -0.30809145105E+02 -0.13581057816E+02 -0.27385672776E+02  0.43400733023E+02  0.00000000000E+00 0. -1.
         11    1    3    3    0    0 -0.83344470013E+00  0.34262564664E+01  0.11984929261E+01  0.37242783189E+01  0.51100000000E-03 0.  1.
        -11    1    3    3    0    0  0.23851457612E+01  0.48865751025E+01  0.61688008877E+01  0.82232378774E+01  0.51100000000E-03 0. -1.
        -12    1    3    3    0    0  0.29257444044E+02  0.52682262472E+01  0.20018378962E+02  0.35839750781E+02  0.00000000000E+00 0.  1.
</event>
<event>
 7    1  0.1246400E-009  0.4778728E+02  0.7816164E-02  0.1312668E+00
        -11   -1    0    0    0    0  0.00000000000E+00  0.00000000000E+00  0.45593999997E+02  0.45594000000E+02  0.51100000000E-03 0.  1.
         11   -1    0    0    0    0 -0.00000000000E+00 -0.00000000000E+00 -0.45593999997E+02  0.45594000000E+02  0.51100000000E-03 0. -1.
    9900012    2    1    2    0    0 -0.70771206637E+01 -0.12003281204E+02  0.41103020983E+02  0.47787277304E+02  0.20000028542E+02 0.  0.
         12    1    1    2    0    0  0.70771206637E+01  0.12003281204E+02 -0.41103020983E+02  0.43400722696E+02  0.00000000000E+00 0. -1.
         11    1    3    3    0    0 -0.64813530766E+01 -0.11731445791E+02  0.11832094593E+02  0.17878289089E+02  0.51100000000E-03 0. -1.
        -11    1    3    3    0    0  0.22307299694E+00  0.99528860053E+00  0.57001338948E+00  0.11684504635E+01  0.51100000000E-03 0.  1.
        -12    1    3    3    0    0 -0.81884058407E+00 -0.12671240142E+01  0.28700913001E+02  0.28740537752E+02  0.00000000000E+00 0.  1.
</event>
<event>
 7    1  0.1246400E-009  0.4778727E+02  0.7816164E-02  0.1312668E+00
        -11   -1    0    0    0    0  0.00000000000E+00  0.00000000000E+00  0.45593999997E+02  0.45594000000E+02  0.51100000000E-03 0.  1.
         11   -1    0    0    0    0 -0.00000000000E+00 -0.00000000000E+00 -0.45593999997E+02  0.45594000000E+02  0.51100000000E-03 0. -1.
    9900012    2    1    2    0    0 -0.15258138171E+02 -0.24185603680E+02  0.32647656041E+02  0.47787266703E+02  0.19999980204E+02 0.  0.
         12    1    1    2    0    0  0.15258138171E+02  0.24185603680E+02 -0.32647656041E+02  0.43400733297E+02  0.00000000000E+00 0. -1.
         11    1    3    3    0    0  0.10943186844E+01  0.17466082400E+01  0.46551706932E+01  0.50910498103E+01  0.51100000000E-03 0. -1.
        -11    1    3    3    0    0 -0.76877555707E+01 -0.13262088546E+02  0.20549709909E+02  0.25637378101E+02  0.51100000000E-03 0.  1.
         12    1    3    3    0    0 -0.86647012852E+01 -0.12670123374E+02  0.74427754387E+01  0.17058838791E+02  0.00000000000E+00 0. -1.
</event>
<event>
 7    1  0.1246400E-009  0.4778727E+02  0.7816164E-02  0.1312668E+00
        -11   -1    0    0    0    0  0.00000000000E+00  0.00000000000E+00  0.45593999997E+02  0.45594000000E+02  0.51100000000E-03 0. -1.
         11   -1    0    0    0    0 -0.00000000000E+00 -0.00000000000E+00 -0.45593999997E+02  0.45594000000E+02  0.51100000000E-03 0.  1.
    9900012    2    1    2    0    0 -0.20697615509E+02 -0.18693962141E+02  0.33253084953E+02  0.47787272274E+02  0.20000005606E+02 0.  0.
         12    1    1    2    0    0  0.20697615509E+02  0.18693962141E+02 -0.33253084953E+02  0.43400727726E+02  0.00000000000E+00 0. -1.
         11    1    3    3    0    0 -0.23028485536E+01  0.64996130992E+00 -0.32439159042E+00  0.24147031557E+01  0.51100000000E-03 0. -1.
        -11    1    3    3    0    0 -0.17405973654E+02 -0.80513286629E+01  0.20836789422E+02  0.28318961947E+02  0.51100000000E-03 0.  1.
        -12    1    3    3    0    0 -0.98879330134E+00 -0.11292594788E+02  0.12740687121E+02  0.17053607171E+02  0.00000000000E+00 0.  1.
</event>
<event>
 7    1  0.1246400E-009  0.4778728E+02  0.7816164E-02  0.1312668E+00
        -11   -1    0    0    0    0  0.00000000000E+00  0.00000000000E+00  0.45593999997E+02  0.45594000000E+02  0.51100000000E-03 0. -1.
         11   -1    0    0    0    0 -0.00000000000E+00 -0.00000000000E+00 -0.45593999997E+02  0.45594000000E+02  0.51100000000E-03 0.  1.
    9900012    2    1    2    0    0 -0.32295345814E+02 -0.26477592763E+02 -0.11813992321E+02  0.47787277721E+02  0.20000030442E+02 0.  0.
         12    1    1    2    0    0  0.32295345814E+02  0.26477592763E+02  0.11813992321E+02  0.43400722279E+02  0.00000000000E+00 0. -1.
         11    1    3    3    0    0 -0.59383815988E+01 -0.22161608209E+00 -0.39605854076E+01  0.71414092960E+01  0.51100000000E-03 0. -1.
        -11    1    3    3    0    0 -0.27471475046E+02 -0.25741389599E+02 -0.92698273870E+01  0.38771520214E+02  0.51100000000E-03 0.  1.
         12    1    3    3    0    0  0.11145108308E+01 -0.51458708217E+00  0.14164204738E+01  0.18743482109E+01  0.00000000000E+00 0. -1.
</event>
<event>
 7    1  0.1246400E-009  0.4778727E+02  0.7816164E-02  0.1312668E+00
        -11   -1    0    0    0    0  0.00000000000E+00  0.00000000000E+00  0.45593999997E+02  0.45594000000E+02  0.51100000000E-03 0.  1.
         11   -1    0    0    0    0 -0.00000000000E+00 -0.00000000000E+00 -0.45593999997E+02  0.45594000000E+02  0.51100000000E-03 0. -1.
    9900012    2    1    2    0    0  0.22730253355E+01 -0.12153305608E+02  0.41602329323E+02  0.47787270899E+02  0.19999999338E+02 0.  0.
         12    1    1    2    0    0 -0.22730253355E+01  0.12153305608E+02 -0.41602329323E+02  0.43400729101E+02  0.00000000000E+00 0. -1.
         11    1    3    3    0    0  0.21908608460E+01  0.84320446202E+00  0.10571668829E+02  0.10829175735E+02  0.51100000000E-03 0. -1.
        -11    1    3    3    0    0  0.26772157647E+01 -0.65730593494E+01  0.23861857248E+01  0.74877550732E+01  0.51100000000E-03 0.  1.
         12    1    3    3    0    0 -0.25950512752E+01 -0.64234507205E+01  0.28644474769E+02  0.29470340091E+02  0.00000000000E+00 0. -1.
</event>
<event>
 7    1  0.1246400E-009  0.4778727E+02  0.7816164E-02  0.1312668E+00
        -11   -1    0    0    0    0  0.00000000000E+00  0.00000000000E+00  0.45593999997E+02  0.45594000000E+02  0.51100000000E-03 0.  1.
         11   -1    0    0    0    0 -0.00000000000E+00 -0.00000000000E+00 -0.45593999997E+02  0.45594000000E+02  0.51100000000E-03 0. -1.
    9900012    2    1    2    0    0  0.26672654012E+02 -0.58600809997E+01  0.33732069425E+02  0.47787268104E+02  0.19999986595E+02 0.  0.
         12    1    1    2    0    0 -0.26672654012E+02  0.58600809997E+01 -0.33732069425E+02  0.43400731896E+02  0.00000000000E+00 0. -1.
         11    1    3    3    0    0  0.39783825458E+01 -0.44264442673E+01  0.71972516208E+01  0.93392380678E+01  0.51100000000E-03 0. -1.
        -11    1    3    3    0    0  0.29548896720E+01 -0.29282874507E+01  0.14935743587E+02  0.15504279317E+02  0.51100000000E-03 0.  1.
         12    1    3    3    0    0  0.19739381795E+02  0.14946507183E+01  0.11599074217E+02  0.22943750720E+02  0.00000000000E+00 0. -1.
</event>
<event>
 7    1  0.1246400E-009  0.4778729E+02  0.7816164E-02  0.1312668E+00
        -11   -1    0    0    0    0  0.00000000000E+00  0.00000000000E+00  0.45593999997E+02  0.45594000000E+02  0.51100000000E-03 0.  1.
         11   -1    0    0    0    0 -0.00000000000E+00 -0.00000000000E+00 -0.45593999997E+02  0.45594000000E+02  0.51100000000E-03 0. -1.
    9900012    2    1    2    0    0  0.11472013407E+02 -0.31381449965E+02  0.27698718600E+02  0.47787291416E+02  0.20000092883E+02 0.  0.
         12    1    1    2    0    0 -0.11472013407E+02  0.31381449965E+02 -0.27698718600E+02  0.43400708584E+02  0.00000000000E+00 0. -1.
         11    1    3    3    0    0  0.62148486046E+01 -0.39542953613E+01  0.59222220661E+01  0.94516405688E+01  0.51100000000E-03 0. -1.
        -11    1    3    3    0    0  0.36826795577E+01 -0.11761879760E+02  0.18538985855E+02  0.22262029131E+02  0.51100000000E-03 0.  1.
        -12    1    3    3    0    0  0.15744852445E+01 -0.15665274843E+02  0.32375106784E+01  0.16073621717E+02  0.00000000000E+00 0.  1.
</event>
<event>
 7    1  0.1246400E-009  0.4778727E+02  0.7816164E-02  0.1312668E+00
        -11   -1    0    0    0    0  0.00000000000E+00  0.00000000000E+00  0.45593999997E+02  0.45594000000E+02  0.51100000000E-03 0.  1.
         11   -1    0    0    0    0 -0.00000000000E+00 -0.00000000000E+00 -0.45593999997E+02  0.45594000000E+02  0.51100000000E-03 0. -1.
    9900012    2    1    2    0    0 -0.19366566500E+02  0.32149103875E+02  0.21794366690E+02  0.47787271925E+02  0.20000004017E+02 0.  0.
         12    1    1    2    0    0  0.19366566500E+02 -0.32149103875E+02 -0.21794366690E+02  0.43400728075E+02  0.00000000000E+00 0. -1.
         11    1    3    3    0    0  0.12837986879E+01 -0.57969129086E+00 -0.24400774113E-01  0.14088210400E+01  0.51100000000E-03 0. -1.
        -11    1    3    3    0    0 -0.15212793507E+02  0.14542350430E+02  0.66218016765E+01  0.22062576912E+02  0.51100000000E-03 0.  1.
         12    1    3    3    0    0 -0.54375716815E+01  0.18186444736E+02  0.15196965787E+02  0.24315873973E+02  0.00000000000E+00 0. -1.
</event>
<event>
 7    1  0.1246400E-009  0.4778726E+02  0.7816164E-02  0.1312668E+00
        -11   -1    0    0    0    0  0.00000000000E+00  0.00000000000E+00  0.45593999997E+02  0.45594000000E+02  0.51100000000E-03 0. -1.
         11   -1    0    0    0    0 -0.00000000000E+00 -0.00000000000E+00 -0.45593999997E+02  0.45594000000E+02  0.51100000000E-03 0.  1.
    9900012    2    1    2    0    0 -0.12958576521E+02 -0.33940181363E+02 -0.23743706542E+02  0.47787260182E+02  0.19999950474E+02 0.  0.
         12    1    1    2    0    0  0.12958576521E+02  0.33940181363E+02  0.23743706542E+02  0.43400739818E+02  0.00000000000E+00 0. -1.
         11    1    3    3    0    0 -0.59814672178E+01 -0.19727776959E+02 -0.69088283227E+01  0.21741551068E+02  0.51100000000E-03 0. -1.
        -11    1    3    3    0    0 -0.10125272839E+02 -0.81536594199E+01 -0.11865452032E+02  0.17600916572E+02  0.51100000000E-03 0.  1.
        -12    1    3    3    0    0  0.31481635362E+01 -0.60587449847E+01 -0.49694261872E+01  0.84447925416E+01  0.00000000000E+00 0.  1.
</event>
<event>
 7    1  0.1246400E-009  0.4778729E+02  0.7816164E-02  0.1312668E+00
        -11   -1    0    0    0    0  0.00000000000E+00  0.00000000000E+00  0.45593999997E+02  0.45594000000E+02  0.51100000000E-03 0.  1.
         11   -1    0    0    0    0 -0.00000000000E+00 -0.00000000000E+00 -0.45593999997E+02  0.45594000000E+02  0.51100000000E-03 0. -1.
    9900012    2    1    2    0    0 -0.37255525258E+01 -0.38043726124E+02 -0.20552788014E+02  0.47787286478E+02  0.20000070370E+02 0.  0.
         12    1    1    2    0    0  0.37255525258E+01  0.38043726124E+02  0.20552788014E+02  0.43400713522E+02  0.00000000000E+00 0. -1.
         11    1    3    3    0    0  0.23698566341E+01 -0.11450761448E+02  0.14852232238E+01  0.11787368090E+02  0.51100000000E-03 0. -1.
        -11    1    3    3    0    0 -0.32477458785E+01 -0.24583704319E+01 -0.42246067372E+01  0.58684530173E+01  0.51100000000E-03 0.  1.
        -12    1    3    3    0    0 -0.28476632813E+01 -0.24134594244E+02 -0.17813404500E+02  0.30131465371E+02  0.00000000000E+00 0.  1.
</event>
<event>
 7    1  0.1246400E-009  0.4778726E+02  0.7816164E-02  0.1312668E+00
        -11   -1    0    0    0    0  0.00000000000E+00  0.00000000000E+00  0.45593999997E+02  0.45594000000E+02  0.51100000000E-03 0.  1.
         11   -1    0    0    0    0 -0.00000000000E+00 -0.00000000000E+00 -0.45593999997E+02  0.45594000000E+02  0.51100000000E-03 0. -1.
    9900012    2    1    2    0    0  0.36618979105E+02 -0.64876471011E+01 -0.22373749551E+02  0.47787264239E+02  0.19999968973E+02 0.  0.
         12    1    1    2    0    0 -0.36618979105E+02  0.64876471011E+01  0.22373749551E+02  0.43400735761E+02  0.00000000000E+00 0. -1.
         11    1    3    3    0    0  0.18008806637E+02 -0.72929297853E+00 -0.13330153762E+02  0.22417448212E+02  0.51100000000E-03 0. -1.
        -11    1    3    3    0    0  0.12266399109E+02 -0.99304190041E+01 -0.80366490716E+01  0.17710604091E+02  0.51100000000E-03 0.  1.
        -12    1    3    3    0    0  0.63437733588E+01  0.41720648815E+01 -0.10069467172E+01  0.76592119369E+01  0.00000000000E+00 0.  1.
</event>
<event>
 7    1  0.1246400E-009  0.4778727E+02  0.7816164E-02  0.1312668E+00
        -11   -1    0    0    0    0  0.00000000000E+00  0.00000000000E+00  0.45593999997E+02  0.45594000000E+02  0.51100000000E-03 0. -1.
         11   -1    0    0    0    0 -0.00000000000E+00 -0.00000000000E+00 -0.45593999997E+02  0.45594000000E+02  0.51100000000E-03 0.  1.
    9900012    2    1    2    0    0  0.38286780936E+02 -0.20200244181E+02  0.31138216386E+01  0.47787270230E+02  0.19999996287E+02 0.  0.
         12    1    1    2    0    0 -0.38286780936E+02  0.20200244181E+02 -0.31138216386E+01  0.43400729770E+02  0.00000000000E+00 0. -1.
         11    1    3    3    0    0  0.25419366172E+02 -0.38733015951E+01  0.26195465020E+01  0.25845863615E+02  0.51100000000E-03 0. -1.
        -11    1    3    3    0    0  0.10719045954E-01 -0.33849154088E+01 -0.12664258726E+01  0.36140838361E+01  0.51100000000E-03 0.  1.
        -12    1    3    3    0    0  0.12856695717E+02 -0.12942027177E+02  0.17607010092E+01  0.18327322779E+02  0.00000000000E+00 0.  1.
</event>
<event>
 7    1  0.1246400E-009  0.4778727E+02  0.7816164E-02  0.1312668E+00
        -11   -1    0    0    0    0  0.00000000000E+00  0.00000000000E+00  0.45593999997E+02  0.45594000000E+02  0.51100000000E-03 0.  1.
         11   -1    0    0    0    0 -0.00000000000E+00 -0.00000000000E+00 -0.45593999997E+02  0.45594000000E+02  0.51100000000E-03 0. -1.
    9900012    2    1    2    0    0  0.52477911564E+01  0.36443773385E+02  0.22976844437E+02  0.47787270619E+02  0.19999998059E+02 0.  0.
         12    1    1    2    0    0 -0.52477911564E+01 -0.36443773385E+02 -0.22976844437E+02  0.43400729381E+02  0.00000000000E+00 0. -1.
         11    1    3    3    0    0  0.15417692390E+01  0.16731244136E+02  0.23849882964E+01  0.16970555447E+02  0.51100000000E-03 0.  1.
        -11    1    3    3    0    0 -0.38597240068E+01  0.91546869924E+01  0.86738516311E+01  0.13188687035E+02  0.51100000000E-03 0. -1.
        -12    1    3    3    0    0  0.75657459241E+01  0.10557842256E+02  0.11918004509E+02  0.17628028137E+02  0.00000000000E+00 0.  1.
</event>
<event>
 7    1  0.1246400E-009  0.4778730E+02  0.7816164E-02  0.1312668E+00
        -11   -1    0    0    0    0  0.00000000000E+00  0.00000000000E+00  0.45593999997E+02  0.45594000000E+02  0.51100000000E-03 0.  1.
         11   -1    0    0    0    0 -0.00000000000E+00 -0.00000000000E+00 -0.45593999997E+02  0.45594000000E+02  0.51100000000E-03 0. -1.
    9900012    2    1    2    0    0  0.22837076958E+02 -0.39201666051E+01  0.36697691725E+02  0.47787304521E+02  0.20000152631E+02 0.  0.
         12    1    1    2    0    0 -0.22837076958E+02  0.39201666051E+01 -0.36697691725E+02  0.43400695479E+02  0.00000000000E+00 0. -1.
         11    1    3    3    0    0 -0.55367917833E+00 -0.66234563152E+01  0.93735521723E+01  0.11490875283E+02  0.51100000000E-03 0. -1.
        -11    1    3    3    0    0  0.60529405035E+01 -0.74087401402E+00  0.86439113413E+01  0.10578477517E+02  0.51100000000E-03 0.  1.
         12    1    3    3    0    0  0.17337815632E+02  0.34441637241E+01  0.18680228211E+02  0.25717951720E+02  0.00000000000E+00 0. -1.
</event>
<event>
 7    1  0.1246400E-009  0.4778726E+02  0.7816164E-02  0.1312668E+00
        -11   -1    0    0    0    0  0.00000000000E+00  0.00000000000E+00  0.45593999997E+02  0.45594000000E+02  0.51100000000E-03 0. -1.
         11   -1    0    0    0    0 -0.00000000000E+00 -0.00000000000E+00 -0.45593999997E+02  0.45594000000E+02  0.51100000000E-03 0.  1.
    9900012    2    1    2    0    0  0.69148750188E+01  0.32672511860E+02 -0.27718504288E+02  0.47787262590E+02  0.19999961455E+02 0.  0.
         12    1    1    2    0    0 -0.69148750188E+01 -0.32672511860E+02  0.27718504288E+02  0.43400737410E+02  0.00000000000E+00 0. -1.
         11    1    3    3    0    0  0.42327429653E+01  0.38867120272E+01 -0.74898452077E+01  0.94403614809E+01  0.51100000000E-03 0. -1.
        -11    1    3    3    0    0 -0.39751853685E+01  0.22687352044E+02 -0.17462613164E+02  0.28904340509E+02  0.51100000000E-03 0.  1.
         12    1    3    3    0    0  0.66573174220E+01  0.60984477887E+01 -0.27660459158E+01  0.94425606007E+01  0.00000000000E+00 0. -1.
</event>
<event>
 7    1  0.1246400E-009  0.4778727E+02  0.7816164E-02  0.1312668E+00
        -11   -1    0    0    0    0  0.00000000000E+00  0.00000000000E+00  0.45593999997E+02  0.45594000000E+02  0.51100000000E-03 0.  1.
         11   -1    0    0    0    0 -0.00000000000E+00 -0.00000000000E+00 -0.45593999997E+02  0.45594000000E+02  0.51100000000E-03 0. -1.
    9900012    2    1    2    0    0  0.22219897526E+02 -0.41863825127E+01  0.37045563196E+02  0.47787269625E+02  0.19999993527E+02 0.  0.
         12    1    1    2    0    0 -0.22219897526E+02  0.41863825127E+01 -0.37045563196E+02  0.43400730375E+02  0.00000000000E+00 0. -1.
         11    1    3    3    0    0  0.10977187186E+02 -0.47282566754E+01  0.22442200829E+02  0.25426510339E+02  0.51100000000E-03 0. -1.
        -11    1    3    3    0    0  0.10194535105E+02 -0.29625337327E+01  0.15314612738E+02  0.18634444335E+02  0.51100000000E-03 0.  1.
         12    1    3    3    0    0  0.10481752350E+01  0.35044078954E+01 -0.71125037069E+00  0.37263149505E+01  0.00000000000E+00 0. -1.
</event>
<event>
 7    1  0.1246400E-009  0.4778727E+02  0.7816164E-02  0.1312668E+00
        -11   -1    0    0    0    0  0.00000000000E+00  0.00000000000E+00  0.45593999997E+02  0.45594000000E+02  0.51100000000E-03 0.  1.
         11   -1    0    0    0    0 -0.00000000000E+00 -0.00000000000E+00 -0.45593999997E+02  0.45594000000E+02  0.51100000000E-03 0. -1.
    9900012    2    1    2    0    0 -0.28882336686E+02 -0.25972174570E+02 -0.19361817518E+02  0.47787271873E+02  0.20000003779E+02 0.  0.
         12    1    1    2    0    0  0.28882336686E+02  0.25972174570E+02  0.19361817518E+02  0.43400728127E+02  0.00000000000E+00 0. -1.
         11    1    3    3    0    0 -0.15585969665E+02 -0.12598494013E+02 -0.12088448914E+02  0.23404595685E+02  0.51100000000E-03 0.  1.
        -11    1    3    3    0    0 -0.71153638267E+01 -0.23392475424E+01  0.30197725687E+01  0.80758595876E+01  0.51100000000E-03 0. -1.
         12    1    3    3    0    0 -0.61810031946E+01 -0.11034433014E+02 -0.10293141172E+02  0.16306816600E+02  0.00000000000E+00 0. -1.
</event>
<event>
 7    1  0.1246400E-009  0.4778727E+02  0.7816164E-02  0.1312668E+00
        -11   -1    0    0    0    0  0.00000000000E+00  0.00000000000E+00  0.45593999997E+02  0.45594000000E+02  0.51100000000E-03 0.  1.
         11   -1    0    0    0    0 -0.00000000000E+00 -0.00000000000E+00 -0.45593999997E+02  0.45594000000E+02  0.51100000000E-03 0. -1.
    9900012    2    1    2    0    0  0.22321528215E+02  0.33008752573E+02  0.17198679286E+02  0.47787274920E+02  0.20000017672E+02 0.  0.
         12    1    1    2    0    0 -0.22321528215E+02 -0.33008752573E+02 -0.17198679286E+02  0.43400725080E+02  0.00000000000E+00 0. -1.
         11    1    3    3    0    0 -0.65298953059E-01 -0.15938865002E+01 -0.11980952106E+01  0.19950364717E+01  0.51100000000E-03 0. -1.
        -11    1    3    3    0    0  0.47271018519E+01  0.98128384743E+01  0.84028942525E+01  0.13756668307E+02  0.51100000000E-03 0.  1.
        -12    1    3    3    0    0  0.17659725316E+02  0.24789800598E+02  0.99938802444E+01  0.32035570141E+02  0.00000000000E+00 0.  1.
</event>
<event>
 7    1  0.1246400E-009  0.4778727E+02  0.7816164E-02  0.1312668E+00
        -11   -1    0    0    0    0  0.00000000000E+00  0.00000000000E+00  0.45593999997E+02  0.45594000000E+02  0.51100000000E-03 0.  1.
         11   -1    0    0    0    0 -0.00000000000E+00 -0.00000000000E+00 -0.45593999997E+02  0.45594000000E+02  0.51100000000E-03 0. -1.
    9900012    2    1    2    0    0  0.16870569337E+02 -0.24925734303E+02  0.31268433852E+02  0.47787270792E+02  0.19999998847E+02 0.  0.
         12    1    1    2    0    0 -0.16870569337E+02  0.24925734303E+02 -0.31268433852E+02  0.43400729208E+02  0.00000000000E+00 0. -1.
         11    1    3    3    0    0  0.49999785394E+01 -0.24590022494E+00  0.35637448161E+01  0.61449596980E+01  0.51100000000E-03 0. -1.
        -11    1    3    3    0    0  0.13642915487E+02 -0.25130180009E+02  0.23342810912E+02  0.36912625371E+02  0.51100000000E-03 0.  1.
        -12    1    3    3    0    0 -0.17723246897E+01  0.45034593137E+00  0.43618781239E+01  0.47296857222E+01  0.00000000000E+00 0.  1.
</event>
<event>
 7    1  0.1246400E-009  0.4778727E+02  0.7816164E-02  0.1312668E+00
        -11   -1    0    0    0    0  0.00000000000E+00  0.00000000000E+00  0.45593999997E+02  0.45594000000E+02  0.51100000000E-03 0. -1.
         11   -1    0    0    0    0 -0.00000000000E+00 -0.00000000000E+00 -0.45593999997E+02  0.45594000000E+02  0.51100000000E-03 0.  1.
    9900012    2    1    2    0    0  0.21945698640E+02 -0.21380411935E+02 -0.30739022740E+02  0.47787271639E+02  0.20000002709E+02 0.  0.
         12    1    1    2    0    0 -0.21945698640E+02  0.21380411935E+02  0.30739022740E+02  0.43400728361E+02  0.00000000000E+00 0. -1.
         11    1    3    3    0    0  0.27369743121E+01 -0.96903604041E+01 -0.20263487092E+02  0.22627483787E+02  0.51100000000E-03 0. -1.
        -11    1    3    3    0    0  0.96300182928E+01 -0.68313136998E+01 -0.75981500351E+01  0.14040512220E+02  0.51100000000E-03 0.  1.
         12    1    3    3    0    0  0.95787060347E+01 -0.48587378315E+01 -0.28773856130E+01  0.11119275632E+02  0.00000000000E+00 0. -1.
</event>
<event>
 7    1  0.1246400E-009  0.4778724E+02  0.7816164E-02  0.1312668E+00
        -11   -1    0    0    0    0  0.00000000000E+00  0.00000000000E+00  0.45593999997E+02  0.45594000000E+02  0.51100000000E-03 0.  1.
         11   -1    0    0    0    0 -0.00000000000E+00 -0.00000000000E+00 -0.45593999997E+02  0.45594000000E+02  0.51100000000E-03 0. -1.
    9900012    2    1    2    0    0  0.43303242416E+02  0.19649824267E+01 -0.21433546141E+01  0.47787240460E+02  0.19999860551E+02 0.  0.
         12    1    1    2    0    0 -0.43303242416E+02 -0.19649824267E+01  0.21433546141E+01  0.43400759540E+02  0.00000000000E+00 0. -1.
         11    1    3    3    0    0  0.18502104252E+02  0.26409149661E+01  0.13508697852E+01  0.18738386885E+02  0.51100000000E-03 0. -1.
        -11    1    3    3    0    0  0.98471354221E+01  0.39595263711E+01  0.44310394022E+01  0.11501218872E+02  0.51100000000E-03 0.  1.
         12    1    3    3    0    0  0.14954002742E+02 -0.46354589104E+01 -0.79252638016E+01  0.17547634702E+02  0.00000000000E+00 0. -1.
</event>
<event>
 7    1  0.1246400E-009  0.4778726E+02  0.7816164E-02  0.1312668E+00
        -11   -1    0    0    0    0  0.00000000000E+00  0.00000000000E+00  0.45593999997E+02  0.45594000000E+02  0.51100000000E-03 0.  1.
         11   -1    0    0    0    0 -0.00000000000E+00 -0.00000000000E+00 -0.45593999997E+02  0.45594000000E+02  0.51100000000E-03 0. -1.
    9900012    2    1    2    0    0  0.41326984801E+02  0.90624745438E+00  0.13224330188E+02  0.47787264221E+02  0.19999968891E+02 0.  0.
         12    1    1    2    0    0 -0.41326984801E+02 -0.90624745438E+00 -0.13224330188E+02  0.43400735779E+02  0.00000000000E+00 0. -1.
         11    1    3    3    0    0  0.12297541332E+02  0.22334574761E+01 -0.23446906842E+01  0.12716738174E+02  0.51100000000E-03 0. -1.
        -11    1    3    3    0    0  0.12976760310E+02 -0.63191659103E+01  0.53264318875E+01  0.15385026580E+02  0.51100000000E-03 0.  1.
        -12    1    3    3    0    0  0.16052683159E+02  0.49919558886E+01  0.10242588985E+02  0.19685499468E+02  0.00000000000E+00 0.  1.
</event>
<event>
 7    1  0.1246400E-009  0.4778728E+02  0.7816164E-02  0.1312668E+00
        -11   -1    0    0    0    0  0.00000000000E+00  0.00000000000E+00  0.45593999997E+02  0.45594000000E+02  0.51100000000E-03 0.  1.
         11   -1    0    0    0    0 -0.00000000000E+00 -0.00000000000E+00 -0.45593999997E+02  0.45594000000E+02  0.51100000000E-03 0. -1.
    9900012    2    1    2    0    0 -0.22693535318E+02 -0.12672680892E+02  0.34756711845E+02  0.47787281060E+02  0.20000045663E+02 0.  0.
         12    1    1    2    0    0  0.22693535318E+02  0.12672680892E+02 -0.34756711845E+02  0.43400718940E+02  0.00000000000E+00 0. -1.
         11    1    3    3    0    0  0.73065308129E-01  0.60050775376E+00 -0.68707883684E+00  0.91543743136E+00  0.51100000000E-03 0. -1.
        -11    1    3    3    0    0 -0.17238493590E+02 -0.10792027258E+02  0.35383597600E+02  0.40812161092E+02  0.51100000000E-03 0.  1.
        -12    1    3    3    0    0 -0.55281070361E+01 -0.24811613878E+01  0.60193082133E-01  0.60596825364E+01  0.00000000000E+00 0.  1.
</event>
<event>
 7    1  0.1246400E-009  0.4778727E+02  0.7816164E-02  0.1312668E+00
        -11   -1    0    0    0    0  0.00000000000E+00  0.00000000000E+00  0.45593999997E+02  0.45594000000E+02  0.51100000000E-03 0.  1.
         11   -1    0    0    0    0 -0.00000000000E+00 -0.00000000000E+00 -0.45593999997E+02  0.45594000000E+02  0.51100000000E-03 0. -1.
    9900012    2    1    2    0    0 -0.40765266702E+01  0.19492800357E+02  0.38562101212E+02  0.47787274369E+02  0.20000015159E+02 0.  0.
         12    1    1    2    0    0  0.40765266702E+01 -0.19492800357E+02 -0.38562101212E+02  0.43400725631E+02  0.00000000000E+00 0. -1.
         11    1    3    3    0    0 -0.11947158343E+01  0.11099220995E+02  0.22486099501E+02  0.25104675335E+02  0.51100000000E-03 0.  1.
        -11    1    3    3    0    0 -0.58452877382E+01  0.10534146188E+02  0.14032508120E+02  0.18494510241E+02  0.51100000000E-03 0. -1.
         12    1    3    3    0    0  0.29634769022E+01 -0.21405668262E+01  0.20434935898E+01  0.41880887931E+01  0.00000000000E+00 0. -1.
</event>
<event>
 7    1  0.1246400E-009  0.4778727E+02  0.7816164E-02  0.1312668E+00
        -11   -1    0    0    0    0  0.00000000000E+00  0.00000000000E+00  0.45593999997E+02  0.45594000000E+02  0.51100000000E-03 0.  1.
         11   -1    0    0    0    0 -0.00000000000E+00 -0.00000000000E+00 -0.45593999997E+02  0.45594000000E+02  0.51100000000E-03 0. -1.
    9900012    2    1    2    0    0  0.31057580514E+02 -0.88821280036E+01  0.28985475228E+02  0.47787270980E+02  0.19999999706E+02 0.  0.
         12    1    1    2    0    0 -0.31057580514E+02  0.88821280036E+01 -0.28985475228E+02  0.43400729020E+02  0.00000000000E+00 0. -1.
         11    1    3    3    0    0  0.15005166467E+02 -0.17620187334E+01  0.14716670891E+02  0.21091233560E+02  0.51100000000E-03 0. -1.
        -11    1    3    3    0    0  0.10627586839E+02 -0.18678805360E+01  0.27375212676E+00  0.10793957578E+02  0.51100000000E-03 0.  1.
         12    1    3    3    0    0  0.54248272089E+01 -0.52522287342E+01  0.13995052210E+02  0.15902079842E+02  0.00000000000E+00 0. -1.
</event>
<event>
 7    1  0.1246400E-009  0.4778728E+02  0.7816164E-02  0.1312668E+00
        -11   -1    0    0    0    0  0.00000000000E+00  0.00000000000E+00  0.45593999997E+02  0.45594000000E+02  0.51100000000E-03 0. -1.
         11   -1    0    0    0    0 -0.00000000000E+00 -0.00000000000E+00 -0.45593999997E+02  0.45594000000E+02  0.51100000000E-03 0.  1.
    9900012    2    1    2    0    0 -0.14527676912E+02 -0.29498079114E+02  0.28327244781E+02  0.47787275758E+02  0.20000021490E+02 0.  0.
         12    1    1    2    0    0  0.14527676912E+02  0.29498079114E+02 -0.28327244781E+02  0.43400724242E+02  0.00000000000E+00 0. -1.
         11    1    3    3    0    0  0.28653443329E+01 -0.11337568947E+01  0.74316201805E+00  0.31698411456E+01  0.51100000000E-03 0. -1.
        -11    1    3    3    0    0 -0.73843031045E+00 -0.10819776829E+02  0.76480571066E+01  0.13270479559E+02  0.51100000000E-03 0.  1.
        -12    1    3    3    0    0 -0.16654590934E+02 -0.17544545390E+02  0.19936025656E+02  0.31346955053E+02  0.00000000000E+00 0.  1.
</event>
<event>
 7    1  0.1246400E-009  0.4778727E+02  0.7816164E-02  0.1312668E+00
        -11   -1    0    0    0    0  0.00000000000E+00  0.00000000000E+00  0.45593999997E+02  0.45594000000E+02  0.51100000000E-03 0. -1.
         11   -1    0    0    0    0 -0.00000000000E+00 -0.00000000000E+00 -0.45593999997E+02  0.45594000000E+02  0.51100000000E-03 0.  1.
    9900012    2    1    2    0    0  0.35072394999E+02 -0.16898749395E+02 -0.19182878210E+02  0.47787269148E+02  0.19999991353E+02 0.  0.
         12    1    1    2    0    0 -0.35072394999E+02  0.16898749395E+02  0.19182878210E+02  0.43400730852E+02  0.00000000000E+00 0. -1.
         11    1    3    3    0    0  0.16909532377E+02 -0.11376075393E+02 -0.54727104617E+01  0.21102083703E+02  0.51100000000E-03 0. -1.
        -11    1    3    3    0    0  0.11063768749E+02 -0.94399446791E+01 -0.10618672330E+02  0.18007657726E+02  0.51100000000E-03 0.  1.
         12    1    3    3    0    0  0.70990938732E+01  0.39172706773E+01 -0.30914954181E+01  0.86775277182E+01  0.00000000000E+00 0. -1.
</event>
<event>
 7    1  0.1246400E-009  0.4778727E+02  0.7816164E-02  0.1312668E+00
        -11   -1    0    0    0    0  0.00000000000E+00  0.00000000000E+00  0.45593999997E+02  0.45594000000E+02  0.51100000000E-03 0.  1.
         11   -1    0    0    0    0 -0.00000000000E+00 -0.00000000000E+00 -0.45593999997E+02  0.45594000000E+02  0.51100000000E-03 0. -1.
    9900012    2    1    2    0    0 -0.33415977073E+02  0.24721199504E+02 -0.12484309155E+02  0.47787271852E+02  0.20000003682E+02 0.  0.
         12    1    1    2    0    0  0.33415977073E+02 -0.24721199504E+02  0.12484309155E+02  0.43400728148E+02  0.00000000000E+00 0. -1.
         11    1    3    3    0    0 -0.21577250501E+02  0.55330491726E+01 -0.17804092778E+01  0.22346414249E+02  0.51100000000E-03 0. -1.
        -11    1    3    3    0    0 -0.74820112421E+01  0.91696041049E+01 -0.34511668441E+01  0.12327720167E+02  0.51100000000E-03 0.  1.
         12    1    3    3    0    0 -0.43567153305E+01  0.10018546227E+02 -0.72527330331E+01  0.13113137436E+02  0.00000000000E+00 0. -1.
</event>
<event>
 7    1  0.1246400E-009  0.4778727E+02  0.7816164E-02  0.1312668E+00
        -11   -1    0    0    0    0  0.00000000000E+00  0.00000000000E+00  0.45593999997E+02  0.45594000000E+02  0.51100000000E-03 0.  1.
         11   -1    0    0    0    0 -0.00000000000E+00 -0.00000000000E+00 -0.45593999997E+02  0.45594000000E+02  0.51100000000E-03 0. -1.
    9900012    2    1    2    0    0 -0.28113263942E+02  0.31787455000E+02  0.91008495737E+01  0.47787269962E+02  0.19999995066E+02 0.  0.
         12    1    1    2    0    0  0.28113263942E+02 -0.31787455000E+02 -0.91008495737E+01  0.43400730038E+02  0.00000000000E+00 0. -1.
         11    1    3    3    0    0 -0.88812533568E+01  0.18064945116E+02  0.10247902270E+01  0.20156118140E+02  0.51100000000E-03 0. -1.
        -11    1    3    3    0    0 -0.54826653602E+01  0.47169578036E+01 -0.29801699585E+01  0.78224499753E+01  0.51100000000E-03 0.  1.
        -12    1    3    3    0    0 -0.13749345225E+02  0.90055520804E+01  0.11056229305E+02  0.19808701847E+02  0.00000000000E+00 0.  1.
</event>
<event>
 7    1  0.1246400E-009  0.4778727E+02  0.7816164E-02  0.1312668E+00
        -11   -1    0    0    0    0  0.00000000000E+00  0.00000000000E+00  0.45593999997E+02  0.45594000000E+02  0.51100000000E-03 0. -1.
         11   -1    0    0    0    0 -0.00000000000E+00 -0.00000000000E+00 -0.45593999997E+02  0.45594000000E+02  0.51100000000E-03 0.  1.
    9900012    2    1    2    0    0  0.41910877020E+02 -0.81679757691E+01 -0.77708473345E+01  0.47787268335E+02  0.19999987649E+02 0.  0.
         12    1    1    2    0    0 -0.41910877020E+02  0.81679757691E+01  0.77708473345E+01  0.43400731665E+02  0.00000000000E+00 0. -1.
         11    1    3    3    0    0  0.34855492872E+01  0.19754233189E+01 -0.36407673898E+01  0.54135513824E+01  0.51100000000E-03 0. -1.
        -11    1    3    3    0    0  0.22765203812E+02 -0.51814179683E+00 -0.68794334533E+01  0.23787592993E+02  0.51100000000E-03 0.  1.
         12    1    3    3    0    0  0.15660123921E+02 -0.96252572912E+01  0.27493535086E+01  0.18586123960E+02  0.00000000000E+00 0. -1.
</event>
<event>
 7    1  0.1246400E-009  0.4778727E+02  0.7816164E-02  0.1312668E+00
        -11   -1    0    0    0    0  0.00000000000E+00  0.00000000000E+00  0.45593999997E+02  0.45594000000E+02  0.51100000000E-03 0.  1.
         11   -1    0    0    0    0 -0.00000000000E+00 -0.00000000000E+00 -0.45593999997E+02  0.45594000000E+02  0.51100000000E-03 0. -1.
    9900012    2    1    2    0    0 -0.27524616917E+02 -0.27550994505E+02  0.19156237155E+02  0.47787271244E+02  0.20000000911E+02 0.  0.
         12    1    1    2    0    0  0.27524616917E+02  0.27550994505E+02 -0.19156237155E+02  0.43400728756E+02  0.00000000000E+00 0. -1.
         11    1    3    3    0    0 -0.41011114718E+01 -0.77953554372E+01  0.95933119039E+01  0.13023759643E+02  0.51100000000E-03 0.  1.
        -11    1    3    3    0    0 -0.46795124052E+01 -0.88127613974E+01 -0.19918370047E+01  0.10174970010E+02  0.51100000000E-03 0. -1.
         12    1    3    3    0    0 -0.18743993040E+02 -0.10942877670E+02  0.11554762255E+02  0.24588541591E+02  0.00000000000E+00 0. -1.
</event>
<event>
 7    1  0.1246400E-009  0.4778726E+02  0.7816164E-02  0.1312668E+00
        -11   -1    0    0    0    0  0.00000000000E+00  0.00000000000E+00  0.45593999997E+02  0.45594000000E+02  0.51100000000E-03 0. -1.
         11   -1    0    0    0    0 -0.00000000000E+00 -0.00000000000E+00 -0.45593999997E+02  0.45594000000E+02  0.51100000000E-03 0.  1.
    9900012    2    1    2    0    0  0.34779894846E+01 -0.38835510523E+02 -0.19061244480E+02  0.47787258882E+02  0.19999944546E+02 0.  0.
         12    1    1    2    0    0 -0.34779894846E+01  0.38835510523E+02  0.19061244480E+02  0.43400741118E+02  0.00000000000E+00 0. -1.
         11    1    3    3    0    0  0.61542530877E+01 -0.29796785578E+02 -0.21046766699E+02  0.36995805851E+02  0.51100000000E-03 0. -1.
        -11    1    3    3    0    0 -0.25141117093E+01 -0.43322783111E+01 -0.11430535557E+01  0.51377003362E+01  0.51100000000E-03 0.  1.
        -12    1    3    3    0    0 -0.16215189381E+00 -0.47064466346E+01  0.31285757742E+01  0.56537526950E+01  0.00000000000E+00 0.  1.
</event>
<event>
 7    1  0.1246400E-009  0.4778727E+02  0.7816164E-02  0.1312668E+00
        -11   -1    0    0    0    0  0.00000000000E+00  0.00000000000E+00  0.45593999997E+02  0.45594000000E+02  0.51100000000E-03 0.  1.
         11   -1    0    0    0    0 -0.00000000000E+00 -0.00000000000E+00 -0.45593999997E+02  0.45594000000E+02  0.51100000000E-03 0. -1.
    9900012    2    1    2    0    0  0.30202498192E+02  0.29915600568E+02  0.87458188045E+01  0.47787269580E+02  0.19999993324E+02 0.  0.
         12    1    1    2    0    0 -0.30202498192E+02 -0.29915600568E+02 -0.87458188045E+01  0.43400730420E+02  0.00000000000E+00 0. -1.
         11    1    3    3    0    0  0.32196276568E+01 -0.46245094423E-01  0.22799414492E+01  0.39454117821E+01  0.51100000000E-03 0. -1.
        -11    1    3    3    0    0  0.19270807429E+02  0.28681574291E+02  0.88485270616E+01  0.35669218581E+02  0.51100000000E-03 0.  1.
        -12    1    3    3    0    0  0.77120631070E+01  0.12802713716E+01 -0.23826497064E+01  0.81726392172E+01  0.00000000000E+00 0.  1.
</event>
<event>
 7    1  0.1246400E-009  0.4778727E+02  0.7816164E-02  0.1312668E+00
        -11   -1    0    0    0    0  0.00000000000E+00  0.00000000000E+00  0.45593999997E+02  0.45594000000E+02  0.51100000000E-03 0.  1.
         11   -1    0    0    0    0 -0.00000000000E+00 -0.00000000000E+00 -0.45593999997E+02  0.45594000000E+02  0.51100000000E-03 0. -1.
    9900012    2    1    2    0    0 -0.39073421313E+01  0.71672931328E+01  0.42626118229E+02  0.47787269952E+02  0.19999995020E+02 0.  0.
         12    1    1    2    0    0  0.39073421313E+01 -0.71672931328E+01 -0.42626118229E+02  0.43400730048E+02  0.00000000000E+00 0. -1.
         11    1    3    3    0    0 -0.15936537554E+01  0.30222971151E+00 -0.20276496781E+00  0.16346831448E+01  0.51100000000E-03 0. -1.
        -11    1    3    3    0    0 -0.49529988411E+01  0.43059340897E+01  0.41831763106E+02  0.42343472587E+02  0.51100000000E-03 0.  1.
        -12    1    3    3    0    0  0.26393104651E+01  0.25591293315E+01  0.99712009055E+00  0.38091142201E+01  0.00000000000E+00 0.  1.
</event>
<event>
 7    1  0.1246400E-009  0.4778727E+02  0.7816164E-02  0.1312668E+00
        -11   -1    0    0    0    0  0.00000000000E+00  0.00000000000E+00  0.45593999997E+02  0.45594000000E+02  0.51100000000E-03 0.  1.
         11   -1    0    0    0    0 -0.00000000000E+00 -0.00000000000E+00 -0.45593999997E+02  0.45594000000E+02  0.51100000000E-03 0. -1.
    9900012    2    1    2    0    0 -0.22861929542E+02  0.18920268804E+01  0.36842577110E+02  0.47787273322E+02  0.20000010384E+02 0.  0.
         12    1    1    2    0    0  0.22861929542E+02 -0.18920268804E+01 -0.36842577110E+02  0.43400726678E+02  0.00000000000E+00 0. -1.
         11    1    3    3    0    0 -0.50392689878E+00  0.29452913567E+01  0.12075364304E+02  0.12439578242E+02  0.51100000000E-03 0. -1.
        -11    1    3    3    0    0 -0.17058595822E+02  0.12125800742E+01  0.24092103297E+02  0.29544804677E+02  0.51100000000E-03 0.  1.
        -12    1    3    3    0    0 -0.52994068214E+01 -0.22658445505E+01  0.67510950851E+00  0.58028904034E+01  0.00000000000E+00 0.  1.
</event>
<event>
 7    1  0.1246400E-009  0.4778727E+02  0.7816164E-02  0.1312668E+00
        -11   -1    0    0    0    0  0.00000000000E+00  0.00000000000E+00  0.45593999997E+02  0.45594000000E+02  0.51100000000E-03 0.  1.
         11   -1    0    0    0    0 -0.00000000000E+00 -0.00000000000E+00 -0.45593999997E+02  0.45594000000E+02  0.51100000000E-03 0. -1.
    9900012    2    1    2    0    0 -0.39572907683E+02 -0.37082423765E+01  0.17431497600E+02  0.47787271980E+02  0.20000004267E+02 0.  0.
         12    1    1    2    0    0  0.39572907683E+02  0.37082423765E+01 -0.17431497600E+02  0.43400728020E+02  0.00000000000E+00 0. -1.
         11    1    3    3    0    0 -0.96633880436E+01  0.31877957714E+01  0.55118518222E+01  0.11572537368E+02  0.51100000000E-03 0. -1.
        -11    1    3    3    0    0 -0.16800792915E+02  0.12377283453E+01  0.12175267383E+02  0.20785469687E+02  0.51100000000E-03 0.  1.
         12    1    3    3    0    0 -0.13108726725E+02 -0.81337664931E+01 -0.25562160470E+00  0.15429264925E+02  0.00000000000E+00 0. -1.
</event>
<event>
 7    1  0.1246400E-009  0.4778727E+02  0.7816164E-02  0.1312668E+00
        -11   -1    0    0    0    0  0.00000000000E+00  0.00000000000E+00  0.45593999997E+02  0.45594000000E+02  0.51100000000E-03 0.  1.
         11   -1    0    0    0    0 -0.00000000000E+00 -0.00000000000E+00 -0.45593999997E+02  0.45594000000E+02  0.51100000000E-03 0. -1.
    9900012    2    1    2    0    0 -0.60067972559E+00 -0.36625537982E+02  0.23277296489E+02  0.47787269817E+02  0.19999994403E+02 0.  0.
         12    1    1    2    0    0  0.60067972559E+00  0.36625537982E+02 -0.23277296489E+02  0.43400730183E+02  0.00000000000E+00 0. -1.
         11    1    3    3    0    0  0.67333324733E+00 -0.55283056679E+01  0.88013172928E+01  0.10415312169E+02  0.51100000000E-03 0. -1.
        -11    1    3    3    0    0  0.31945869985E+01 -0.29526556387E+02  0.12906459125E+02  0.32382087728E+02  0.51100000000E-03 0.  1.
         12    1    3    3    0    0 -0.44685999715E+01 -0.15706759268E+01  0.15695200706E+01  0.49898699205E+01  0.00000000000E+00 0. -1.
</event>
<event>
 7    1  0.1246400E-009  0.4778727E+02  0.7816164E-02  0.1312668E+00
        -11   -1    0    0    0    0  0.00000000000E+00  0.00000000000E+00  0.45593999997E+02  0.45594000000E+02  0.51100000000E-03 0.  1.
         11   -1    0    0    0    0 -0.00000000000E+00 -0.00000000000E+00 -0.45593999997E+02  0.45594000000E+02  0.51100000000E-03 0. -1.
    9900012    2    1    2    0    0 -0.18002493331E+02  0.38425447352E+02  0.91114738006E+01  0.47787265845E+02  0.19999976295E+02 0.  0.
         12    1    1    2    0    0  0.18002493331E+02 -0.38425447352E+02 -0.91114738006E+01  0.43400734155E+02  0.00000000000E+00 0. -1.
         11    1    3    3    0    0 -0.26420329880E+01 -0.13171617863E+01 -0.21426564214E+01  0.36477705907E+01  0.51100000000E-03 0. -1.
        -11    1    3    3    0    0 -0.64200268681E+01  0.15764486005E+02  0.32757115686E+01  0.17333956575E+02  0.51100000000E-03 0.  1.
        -12    1    3    3    0    0 -0.89404334747E+01  0.23978123134E+02  0.79784186534E+01  0.26805538680E+02  0.00000000000E+00 0.  1.
</event>
<event>
 7    1  0.1246400E-009  0.4778726E+02  0.7816164E-02  0.1312668E+00
        -11   -1    0    0    0    0  0.00000000000E+00  0.00000000000E+00  0.45593999997E+02  0.45594000000E+02  0.51100000000E-03 0.  1.
         11   -1    0    0    0    0 -0.00000000000E+00 -0.00000000000E+00 -0.45593999997E+02  0.45594000000E+02  0.51100000000E-03 0. -1.
    9900012    2    1    2    0    0  0.11821837970E+01  0.28748158663E+02  0.32492613009E+02  0.47787261697E+02  0.19999957382E+02 0.  0.
         12    1    1    2    0    0 -0.11821837970E+01 -0.28748158663E+02 -0.32492613009E+02  0.43400738303E+02  0.00000000000E+00 0. -1.
         11    1    3    3    0    0  0.17761495173E+01  0.11958827093E+02  0.10835062374E+02  0.16234741435E+02  0.51100000000E-03 0. -1.
        -11    1    3    3    0    0  0.62947169701E+01  0.12457770704E+02  0.17590539348E+02  0.22455435589E+02  0.51100000000E-03 0.  1.
        -12    1    3    3    0    0 -0.68886826904E+01  0.43315608659E+01  0.40670112866E+01  0.90970846731E+01  0.00000000000E+00 0.  1.
</event>
<event>
 7    1  0.1246400E-009  0.4778727E+02  0.7816164E-02  0.1312668E+00
        -11   -1    0    0    0    0  0.00000000000E+00  0.00000000000E+00  0.45593999997E+02  0.45594000000E+02  0.51100000000E-03 0. -1.
         11   -1    0    0    0    0 -0.00000000000E+00 -0.00000000000E+00 -0.45593999997E+02  0.45594000000E+02  0.51100000000E-03 0.  1.
    9900012    2    1    2    0    0 -0.43925387219E+01  0.42236047968E+02 -0.89691268452E+01  0.47787269813E+02  0.19999994387E+02 0.  0.
         12    1    1    2    0    0  0.43925387219E+01 -0.42236047968E+02  0.89691268452E+01  0.43400730187E+02  0.00000000000E+00 0. -1.
         11    1    3    3    0    0  0.21627197519E+01  0.35556950377E+01 -0.27751368347E+01  0.50021703928E+01  0.51100000000E-03 0. -1.
        -11    1    3    3    0    0 -0.84987758730E+01  0.12428470277E+02  0.20622037431E+01  0.15196998036E+02  0.51100000000E-03 0.  1.
        -12    1    3    3    0    0  0.19435173993E+01  0.26251882653E+02 -0.82561937536E+01  0.27588101385E+02  0.00000000000E+00 0.  1.
</event>
<event>
 7    1  0.1246400E-009  0.4778727E+02  0.7816164E-02  0.1312668E+00
        -11   -1    0    0    0    0  0.00000000000E+00  0.00000000000E+00  0.45593999997E+02  0.45594000000E+02  0.51100000000E-03 0.  1.
         11   -1    0    0    0    0 -0.00000000000E+00 -0.00000000000E+00 -0.45593999997E+02  0.45594000000E+02  0.51100000000E-03 0. -1.
    9900012    2    1    2    0    0  0.10150619586E+02 -0.24704042060E+02  0.34209625857E+02  0.47787271051E+02  0.20000000028E+02 0.  0.
         12    1    1    2    0    0 -0.10150619586E+02  0.24704042060E+02 -0.34209625857E+02  0.43400728949E+02  0.00000000000E+00 0. -1.
         11    1    3    3    0    0 -0.27101535474E+01 -0.11729246632E+01  0.12612288901E+00  0.29557726164E+01  0.51100000000E-03 0. -1.
        -11    1    3    3    0    0  0.88704371581E+01 -0.50565093078E+01  0.12583845955E+02  0.16205126381E+02  0.51100000000E-03 0.  1.
         12    1    3    3    0    0  0.39903359752E+01 -0.18474608089E+02  0.21499657013E+02  0.28626372053E+02  0.00000000000E+00 0. -1.
</event>
<event>
 7    1  0.1246400E-009  0.4778727E+02  0.7816164E-02  0.1312668E+00
        -11   -1    0    0    0    0  0.00000000000E+00  0.00000000000E+00  0.45593999997E+02  0.45594000000E+02  0.51100000000E-03 0. -1.
         11   -1    0    0    0    0 -0.00000000000E+00 -0.00000000000E+00 -0.45593999997E+02  0.45594000000E+02  0.51100000000E-03 0.  1.
    9900012    2    1    2    0    0 -0.24153770834E+01  0.36542050835E+02 -0.23290934349E+02  0.47787272488E+02  0.20000006584E+02 0.  0.
         12    1    1    2    0    0  0.24153770834E+01 -0.36542050835E+02  0.23290934349E+02  0.43400727512E+02  0.00000000000E+00 0. -1.
         11    1    3    3    0    0 -0.39322237797E+01  0.26458593967E+01 -0.21295031617E+01  0.51959349281E+01  0.51100000000E-03 0. -1.
        -11    1    3    3    0    0 -0.39477737995E+01  0.42158192125E+01 -0.76568406332E-01  0.57761503258E+01  0.51100000000E-03 0.  1.
        -12    1    3    3    0    0  0.54646204957E+01  0.29680372226E+02 -0.21084862781E+02  0.36815187235E+02  0.00000000000E+00 0.  1.
</event>
<event>
 7    1  0.1246400E-009  0.4778727E+02  0.7816164E-02  0.1312668E+00
        -11   -1    0    0    0    0  0.00000000000E+00  0.00000000000E+00  0.45593999997E+02  0.45594000000E+02  0.51100000000E-03 0.  1.
         11   -1    0    0    0    0 -0.00000000000E+00 -0.00000000000E+00 -0.45593999997E+02  0.45594000000E+02  0.51100000000E-03 0. -1.
    9900012    2    1    2    0    0 -0.30325598842E+02  0.26151672315E+02  0.16735337662E+02  0.47787269169E+02  0.19999991450E+02 0.  0.
         12    1    1    2    0    0  0.30325598842E+02 -0.26151672315E+02 -0.16735337662E+02  0.43400730831E+02  0.00000000000E+00 0. -1.
         11    1    3    3    0    0 -0.26754440477E+02  0.18280916009E+02  0.62220995649E+01  0.32995552709E+02  0.51100000000E-03 0. -1.
        -11    1    3    3    0    0 -0.26340344457E+00 -0.79959416568E+00  0.21129466718E+01  0.22744837004E+01  0.51100000000E-03 0.  1.
        -12    1    3    3    0    0 -0.33077549208E+01  0.86703504717E+01  0.84002914254E+01  0.12517232759E+02  0.00000000000E+00 0.  1.
</event>
<event>
 7    1  0.1246400E-009  0.4778727E+02  0.7816164E-02  0.1312668E+00
        -11   -1    0    0    0    0  0.00000000000E+00  0.00000000000E+00  0.45593999997E+02  0.45594000000E+02  0.51100000000E-03 0.  1.
         11   -1    0    0    0    0 -0.00000000000E+00 -0.00000000000E+00 -0.45593999997E+02  0.45594000000E+02  0.51100000000E-03 0. -1.
    9900012    2    1    2    0    0  0.18153743173E+02 -0.32981422054E+02  0.21593764485E+02  0.47787271244E+02  0.20000000910E+02 0.  0.
         12    1    1    2    0    0 -0.18153743173E+02  0.32981422054E+02 -0.21593764485E+02  0.43400728756E+02  0.00000000000E+00 0. -1.
         11    1    3    3    0    0  0.15027327555E+01  0.11180868703E+01  0.21383048725E+01  0.28426522779E+01  0.51100000000E-03 0. -1.
        -11    1    3    3    0    0  0.11215797975E+02 -0.25019929560E+02  0.20608143433E+02  0.34299950079E+02  0.51100000000E-03 0.  1.
         12    1    3    3    0    0  0.54352124432E+01 -0.90795793639E+01 -0.11526838201E+01  0.10644668887E+02  0.00000000000E+00 0. -1.
</event>
<event>
 7    1  0.1246400E-009  0.4778725E+02  0.7816164E-02  0.1312668E+00
        -11   -1    0    0    0    0  0.00000000000E+00  0.00000000000E+00  0.45593999997E+02  0.45594000000E+02  0.51100000000E-03 0.  1.
         11   -1    0    0    0    0 -0.00000000000E+00 -0.00000000000E+00 -0.45593999997E+02  0.45594000000E+02  0.51100000000E-03 0. -1.
    9900012    2    1    2    0    0  0.32608420667E+02  0.28481067752E+02  0.30239841190E+01  0.47787253478E+02  0.19999919909E+02 0.  0.
         12    1    1    2    0    0 -0.32608420667E+02 -0.28481067752E+02 -0.30239841190E+01  0.43400746522E+02  0.00000000000E+00 0. -1.
         11    1    3    3    0    0  0.13140551235E+02  0.11365700803E+02 -0.40545860629E+01  0.17840765395E+02  0.51100000000E-03 0.  1.
        -11    1    3    3    0    0  0.89898855548E+01  0.32952975164E-01  0.31450641799E+01  0.95242090036E+01  0.51100000000E-03 0. -1.
         12    1    3    3    0    0  0.10477983877E+02  0.17082413975E+02  0.39335060021E+01  0.20422279080E+02  0.00000000000E+00 0. -1.
</event>
<event>
 7    1  0.1246400E-009  0.4778727E+02  0.7816164E-02  0.1312668E+00
        -11   -1    0    0    0    0  0.00000000000E+00  0.00000000000E+00  0.45593999997E+02  0.45594000000E+02  0.51100000000E-03 0. -1.
         11   -1    0    0    0    0 -0.00000000000E+00 -0.00000000000E+00 -0.45593999997E+02  0.45594000000E+02  0.51100000000E-03 0.  1.
    9900012    2    1    2    0    0 -0.28706803266E+02  0.21761163265E+02 -0.24207332165E+02  0.47787266009E+02  0.19999977041E+02 0.  0.
         12    1    1    2    0    0  0.28706803266E+02 -0.21761163265E+02  0.24207332165E+02  0.43400733991E+02  0.00000000000E+00 0. -1.
         11    1    3    3    0    0 -0.17164709011E+01  0.33926327757E+01  0.14351918965E+01  0.40639888713E+01  0.51100000000E-03 0. -1.
        -11    1    3    3    0    0 -0.22162105128E+02  0.17362991875E+02 -0.14788756601E+02  0.31801567770E+02  0.51100000000E-03 0.  1.
         12    1    3    3    0    0 -0.48282272364E+01  0.10055386141E+01 -0.10853767460E+02  0.11921709367E+02  0.00000000000E+00 0. -1.
</event>
<event>
 7    1  0.1246400E-009  0.4778727E+02  0.7816164E-02  0.1312668E+00
        -11   -1    0    0    0    0  0.00000000000E+00  0.00000000000E+00  0.45593999997E+02  0.45594000000E+02  0.51100000000E-03 0.  1.
         11   -1    0    0    0    0 -0.00000000000E+00 -0.00000000000E+00 -0.45593999997E+02  0.45594000000E+02  0.51100000000E-03 0. -1.
    9900012    2    1    2    0    0  0.23064602900E+02  0.53756986189E+01  0.36369618361E+02  0.47787272100E+02  0.20000004812E+02 0.  0.
         12    1    1    2    0    0 -0.23064602900E+02 -0.53756986189E+01 -0.36369618361E+02  0.43400727900E+02  0.00000000000E+00 0. -1.
         11    1    3    3    0    0 -0.67135397454E+00 -0.61590197220E+00  0.51736008738E+01  0.52532083208E+01  0.51100000000E-03 0. -1.
        -11    1    3    3    0    0  0.21003190845E+02  0.10256809262E+02  0.28279909071E+02  0.36689091284E+02  0.51100000000E-03 0.  1.
        -12    1    3    3    0    0  0.27327660296E+01 -0.42652086709E+01  0.29161084159E+01  0.58449724954E+01  0.00000000000E+00 0.  1.
</event>
<event>
 7    1  0.1246400E-009  0.4778727E+02  0.7816164E-02  0.1312668E+00
        -11   -1    0    0    0    0  0.00000000000E+00  0.00000000000E+00  0.45593999997E+02  0.45594000000E+02  0.51100000000E-03 0.  1.
         11   -1    0    0    0    0 -0.00000000000E+00 -0.00000000000E+00 -0.45593999997E+02  0.45594000000E+02  0.51100000000E-03 0. -1.
    9900012    2    1    2    0    0  0.21565615335E+02  0.12245327160E+02  0.35617404292E+02  0.47787270853E+02  0.19999999126E+02 0.  0.
         12    1    1    2    0    0 -0.21565615335E+02 -0.12245327160E+02 -0.35617404292E+02  0.43400729147E+02  0.00000000000E+00 0. -1.
         11    1    3    3    0    0  0.16126670898E+01  0.58037699694E+01  0.12655318987E+02  0.14015760412E+02  0.51100000000E-03 0.  1.
        -11    1    3    3    0    0  0.20368404802E+02  0.85575285222E+01  0.18500614417E+02  0.28816244423E+02  0.51100000000E-03 0. -1.
         12    1    3    3    0    0 -0.41545655666E+00 -0.21159713316E+01  0.44614708871E+01  0.49552660174E+01  0.00000000000E+00 0. -1.
</event>
<event>
 7    1  0.1246400E-009  0.4778727E+02  0.7816164E-02  0.1312668E+00
        -11   -1    0    0    0    0  0.00000000000E+00  0.00000000000E+00  0.45593999997E+02  0.45594000000E+02  0.51100000000E-03 0.  1.
         11   -1    0    0    0    0 -0.00000000000E+00 -0.00000000000E+00 -0.45593999997E+02  0.45594000000E+02  0.51100000000E-03 0. -1.
    9900012    2    1    2    0    0 -0.36723368257E+02 -0.10187187975E+02  0.20766287638E+02  0.47787271005E+02  0.19999999822E+02 0.  0.
         12    1    1    2    0    0  0.36723368257E+02  0.10187187975E+02 -0.20766287638E+02  0.43400728995E+02  0.00000000000E+00 0. -1.
         11    1    3    3    0    0  0.14908845478E+00 -0.46323668351E+01  0.38805440083E+01  0.60448053669E+01  0.51100000000E-03 0. -1.
        -11    1    3    3    0    0 -0.17330452574E+02 -0.67430214909E+01  0.81161331242E+01  0.20290010902E+02  0.51100000000E-03 0.  1.
        -12    1    3    3    0    0 -0.19542004138E+02  0.11882003513E+01  0.87696105058E+01  0.21452454737E+02  0.00000000000E+00 0.  1.
</event>
<event>
 7    1  0.1246400E-009  0.4778727E+02  0.7816164E-02  0.1312668E+00
        -11   -1    0    0    0    0  0.00000000000E+00  0.00000000000E+00  0.45593999997E+02  0.45594000000E+02  0.51100000000E-03 0.  1.
         11   -1    0    0    0    0 -0.00000000000E+00 -0.00000000000E+00 -0.45593999997E+02  0.45594000000E+02  0.51100000000E-03 0. -1.
    9900012    2    1    2    0    0  0.13504411990E+02 -0.31328455571E+02 -0.26828750228E+02  0.47787272927E+02  0.20000008586E+02 0.  0.
         12    1    1    2    0    0 -0.13504411990E+02  0.31328455571E+02  0.26828750228E+02  0.43400727073E+02  0.00000000000E+00 0. -1.
         11    1    3    3    0    0  0.18186767320E+01 -0.52636586152E+01 -0.83677394902E+01  0.10051504938E+02  0.51100000000E-03 0. -1.
        -11    1    3    3    0    0  0.39174818600E+01 -0.12560188314E+02 -0.17809931826E+02  0.22142688783E+02  0.51100000000E-03 0.  1.
        -12    1    3    3    0    0  0.77682533976E+01 -0.13504608642E+02 -0.65107891113E+00  0.15593079207E+02  0.00000000000E+00 0.  1.
</event>
<event>
 7    1  0.1246400E-009  0.4778727E+02  0.7816164E-02  0.1312668E+00
        -11   -1    0    0    0    0  0.00000000000E+00  0.00000000000E+00  0.45593999997E+02  0.45594000000E+02  0.51100000000E-03 0. -1.
         11   -1    0    0    0    0 -0.00000000000E+00 -0.00000000000E+00 -0.45593999997E+02  0.45594000000E+02  0.51100000000E-03 0.  1.
    9900012    2    1    2    0    0 -0.10961897511E+02  0.41807765692E+02 -0.39459661552E+01  0.47787272839E+02  0.20000008184E+02 0.  0.
         12    1    1    2    0    0  0.10961897511E+02 -0.41807765692E+02  0.39459661552E+01  0.43400727161E+02  0.00000000000E+00 0. -1.
         11    1    3    3    0    0 -0.45226044381E+01  0.22921042807E+02 -0.47736837583E+01  0.23845674894E+02  0.51100000000E-03 0. -1.
        -11    1    3    3    0    0 -0.10342843904E+02  0.11142318359E+02 -0.23150828829E+00  0.15204580717E+02  0.51100000000E-03 0.  1.
         12    1    3    3    0    0  0.39035508318E+01  0.77444045254E+01  0.10592258913E+01  0.87370172278E+01  0.00000000000E+00 0. -1.
</event>
<event>
 7    1  0.1246400E-009  0.4778726E+02  0.7816164E-02  0.1312668E+00
        -11   -1    0    0    0    0  0.00000000000E+00  0.00000000000E+00  0.45593999997E+02  0.45594000000E+02  0.51100000000E-03 0.  1.
         11   -1    0    0    0    0 -0.00000000000E+00 -0.00000000000E+00 -0.45593999997E+02  0.45594000000E+02  0.51100000000E-03 0. -1.
    9900012    2    1    2    0    0 -0.19855603720E+02 -0.28221344016E+02 -0.26323650072E+02  0.47787264865E+02  0.19999971826E+02 0.  0.
         12    1    1    2    0    0  0.19855603720E+02  0.28221344016E+02  0.26323650072E+02  0.43400735135E+02  0.00000000000E+00 0. -1.
         11    1    3    3    0    0 -0.66303475242E+01 -0.17353593452E+02 -0.89850876379E+01  0.20635903520E+02  0.51100000000E-03 0. -1.
        -11    1    3    3    0    0 -0.31037527922E+01  0.87768174225E+00  0.76576172903E+00  0.33151165775E+01  0.51100000000E-03 0.  1.
         12    1    3    3    0    0 -0.10121503403E+02 -0.11745432306E+02 -0.18104324163E+02  0.23836244767E+02  0.00000000000E+00 0. -1.
</event>
<event>
 7    1  0.1246400E-009  0.4778726E+02  0.7816164E-02  0.1312668E+00
        -11   -1    0    0    0    0  0.00000000000E+00  0.00000000000E+00  0.45593999997E+02  0.45594000000E+02  0.51100000000E-03 0. -1.
         11   -1    0    0    0    0 -0.00000000000E+00 -0.00000000000E+00 -0.45593999997E+02  0.45594000000E+02  0.51100000000E-03 0.  1.
    9900012    2    1    2    0    0 -0.12899344144E+01  0.42879310272E+02 -0.65821946798E+01  0.47787257299E+02  0.19999937330E+02 0.  0.
         12    1    1    2    0    0  0.12899344144E+01 -0.42879310272E+02  0.65821946798E+01  0.43400742701E+02  0.00000000000E+00 0. -1.
         11    1    3    3    0    0  0.25240638530E+01 -0.67236060803E+00  0.17190095548E+00  0.26177313310E+01  0.51100000000E-03 0. -1.
        -11    1    3    3    0    0  0.27019049799E+01  0.20871565581E+02 -0.38320156187E+01  0.21391748042E+02  0.51100000000E-03 0.  1.
         12    1    3    3    0    0 -0.65159032473E+01  0.22680105299E+02 -0.29220800165E+01  0.23777777927E+02  0.00000000000E+00 0. -1.
</event>
<event>
 7    1  0.1246400E-009  0.4778727E+02  0.7816164E-02  0.1312668E+00
        -11   -1    0    0    0    0  0.00000000000E+00  0.00000000000E+00  0.45593999997E+02  0.45594000000E+02  0.51100000000E-03 0. -1.
         11   -1    0    0    0    0 -0.00000000000E+00 -0.00000000000E+00 -0.45593999997E+02  0.45594000000E+02  0.51100000000E-03 0.  1.
    9900012    2    1    2    0    0  0.30442115163E+02  0.26724926096E+02 -0.15578164433E+02  0.47787271232E+02  0.20000000857E+02 0.  0.
         12    1    1    2    0    0 -0.30442115163E+02 -0.26724926096E+02  0.15578164433E+02  0.43400728768E+02  0.00000000000E+00 0. -1.
         11    1    3    3    0    0  0.78709821164E+00 -0.16497231063E+00 -0.16170936432E+01  0.18060264589E+01  0.51100000000E-03 0. -1.
        -11    1    3    3    0    0  0.21058310402E+02  0.75015374132E+01 -0.47238959687E+01  0.22848209862E+02  0.51100000000E-03 0.  1.
         12    1    3    3    0    0  0.85967065498E+01  0.19388360994E+02 -0.92371748208E+01  0.23133034911E+02  0.00000000000E+00 0. -1.
</event>
<event>
 7    1  0.1511097E-009  0.4778727E+02  0.7816164E-02  0.1312668E+00
        -11   -1    0    0    0    0  0.00000000000E+00  0.00000000000E+00  0.45593999997E+02  0.45594000000E+02  0.51100000000E-03 0.  1.
         11   -1    0    0    0    0 -0.00000000000E+00 -0.00000000000E+00 -0.45593999997E+02  0.45594000000E+02  0.51100000000E-03 0. -1.
    9900012    2    1    2    0    0  0.24669406272E+02 -0.33148578373E+02  0.13274612745E+02  0.47787271925E+02  0.20000004014E+02 0.  0.
         12    1    1    2    0    0 -0.24669406272E+02  0.33148578373E+02 -0.13274612745E+02  0.43400728075E+02  0.00000000000E+00 0. -1.
         11    1    3    3    0    0  0.17316137558E+00  0.99645006928E+00  0.51384998096E+00  0.11344336325E+01  0.51100000000E-03 0. -1.
        -11    1    3    3    0    0  0.12295471046E+02 -0.29218777437E+02  0.84568976997E+01  0.32809064024E+02  0.51100000000E-03 0.  1.
        -12    1    3    3    0    0  0.12200773850E+02 -0.49262510053E+01  0.43038650646E+01  0.13843774269E+02  0.00000000000E+00 0.  1.
</event>
<event>
 7    1  0.1246400E-009  0.4778727E+02  0.7816164E-02  0.1312668E+00
        -11   -1    0    0    0    0  0.00000000000E+00  0.00000000000E+00  0.45593999997E+02  0.45594000000E+02  0.51100000000E-03 0.  1.
         11   -1    0    0    0    0 -0.00000000000E+00 -0.00000000000E+00 -0.45593999997E+02  0.45594000000E+02  0.51100000000E-03 0. -1.
    9900012    2    1    2    0    0 -0.25823040582E+02 -0.22803437487E+02  0.26396909129E+02  0.47787274226E+02  0.20000014506E+02 0.  0.
         12    1    1    2    0    0  0.25823040582E+02  0.22803437487E+02 -0.26396909129E+02  0.43400725774E+02  0.00000000000E+00 0. -1.
         11    1    3    3    0    0 -0.16111710500E+01  0.17519826021E+01 -0.11605726269E+01  0.26480642504E+01  0.51100000000E-03 0. -1.
        -11    1    3    3    0    0 -0.69562295173E+01 -0.13651591814E+02  0.12511782537E+02  0.19781299013E+02  0.51100000000E-03 0.  1.
        -12    1    3    3    0    0 -0.17255640015E+02 -0.10903828276E+02  0.15045699219E+02  0.25357910962E+02  0.00000000000E+00 0.  1.
</event>
<event>
 7    1  0.1246400E-009  0.4778728E+02  0.7816164E-02  0.1312668E+00
        -11   -1    0    0    0    0  0.00000000000E+00  0.00000000000E+00  0.45593999997E+02  0.45594000000E+02  0.51100000000E-03 0.  1.
         11   -1    0    0    0    0 -0.00000000000E+00 -0.00000000000E+00 -0.45593999997E+02  0.45594000000E+02  0.51100000000E-03 0. -1.
    9900012    2    1    2    0    0  0.23532877545E+02  0.11741933994E+02  0.34524679068E+02  0.47787276456E+02  0.20000024672E+02 0.  0.
         12    1    1    2    0    0 -0.23532877545E+02 -0.11741933994E+02 -0.34524679068E+02  0.43400723544E+02  0.00000000000E+00 0. -1.
         11    1    3    3    0    0  0.10724997373E+02  0.10971548353E+02  0.63899121704E+01  0.16620211182E+02  0.51100000000E-03 0. -1.
        -11    1    3    3    0    0  0.44171458409E+01  0.18092288230E+01  0.12715540957E+02  0.13581953777E+02  0.51100000000E-03 0.  1.
         12    1    3    3    0    0  0.83907343304E+01 -0.10388431820E+01  0.15419225940E+02  0.17585111497E+02  0.00000000000E+00 0. -1.
</event>
<event>
 7    1  0.1246400E-009  0.4778727E+02  0.7816164E-02  0.1312668E+00
        -11   -1    0    0    0    0  0.00000000000E+00  0.00000000000E+00  0.45593999997E+02  0.45594000000E+02  0.51100000000E-03 0.  1.
         11   -1    0    0    0    0 -0.00000000000E+00 -0.00000000000E+00 -0.45593999997E+02  0.45594000000E+02  0.51100000000E-03 0. -1.
    9900012    2    1    2    0    0  0.88238132518E+01 -0.37394909286E+02  0.20183768483E+02  0.47787269234E+02  0.19999991746E+02 0.  0.
         12    1    1    2    0    0 -0.88238132518E+01  0.37394909286E+02 -0.20183768483E+02  0.43400730766E+02  0.00000000000E+00 0. -1.
         11    1    3    3    0    0  0.63508288973E+01 -0.17219453974E+02  0.33551946046E+01  0.18657436961E+02  0.51100000000E-03 0.  1.
        -11    1    3    3    0    0 -0.40733403020E+01 -0.10947839596E+02  0.48355396611E+01  0.12642378617E+02  0.51100000000E-03 0. -1.
        -12    1    3    3    0    0  0.65463246565E+01 -0.92276157169E+01  0.11993034218E+02  0.16487453656E+02  0.00000000000E+00 0.  1.
</event>
<event>
 7    1  0.1246400E-009  0.4778728E+02  0.7816164E-02  0.1312668E+00
        -11   -1    0    0    0    0  0.00000000000E+00  0.00000000000E+00  0.45593999997E+02  0.45594000000E+02  0.51100000000E-03 0.  1.
         11   -1    0    0    0    0 -0.00000000000E+00 -0.00000000000E+00 -0.45593999997E+02  0.45594000000E+02  0.51100000000E-03 0. -1.
    9900012    2    1    2    0    0  0.13811065259E+02  0.27275273878E+02  0.30804818105E+02  0.47787275269E+02  0.20000019262E+02 0.  0.
         12    1    1    2    0    0 -0.13811065259E+02 -0.27275273878E+02 -0.30804818105E+02  0.43400724731E+02  0.00000000000E+00 0. -1.
         11    1    3    3    0    0  0.15478561349E+01  0.49392802067E+01  0.12185276962E+02  0.13239083143E+02  0.51100000000E-03 0. -1.
        -11    1    3    3    0    0  0.10395130532E+02  0.16977272821E+02  0.20494813273E+02  0.28571382580E+02  0.51100000000E-03 0.  1.
         12    1    3    3    0    0  0.18680785920E+01  0.53587208508E+01 -0.18752721302E+01  0.59768095456E+01  0.00000000000E+00 0. -1.
</event>
<event>
 7    1  0.1301522E-009  0.4778727E+02  0.7816164E-02  0.1312668E+00
        -11   -1    0    0    0    0  0.00000000000E+00  0.00000000000E+00  0.45593999997E+02  0.45594000000E+02  0.51100000000E-03 0.  1.
         11   -1    0    0    0    0 -0.00000000000E+00 -0.00000000000E+00 -0.45593999997E+02  0.45594000000E+02  0.51100000000E-03 0. -1.
    9900012    2    1    2    0    0  0.38518341134E+02  0.19706113059E+02 -0.34102277038E+01  0.47787272488E+02  0.20000006582E+02 0.  0.
         12    1    1    2    0    0 -0.38518341134E+02 -0.19706113059E+02  0.34102277038E+01  0.43400727512E+02  0.00000000000E+00 0. -1.
         11    1    3    3    0    0 -0.83767903024E+00  0.14241242925E+01  0.17397432219E+00  0.16613559174E+01  0.51100000000E-03 0.  1.
        -11    1    3    3    0    0  0.34807934105E+02  0.14494021565E+02 -0.82404732025E+01  0.38595004037E+02  0.51100000000E-03 0. -1.
        -12    1    3    3    0    0  0.45480860593E+01  0.37879672007E+01  0.46562711765E+01  0.75309125334E+01  0.00000000000E+00 0.  1.
</event>
<event>
 7    1  0.1246400E-009  0.4778728E+02  0.7816164E-02  0.1312668E+00
        -11   -1    0    0    0    0  0.00000000000E+00  0.00000000000E+00  0.45593999997E+02  0.45594000000E+02  0.51100000000E-03 0. -1.
         11   -1    0    0    0    0 -0.00000000000E+00 -0.00000000000E+00 -0.45593999997E+02  0.45594000000E+02  0.51100000000E-03 0.  1.
    9900012    2    1    2    0    0  0.15289733815E+01  0.11625687892E+02 -0.41786701861E+02  0.47787276146E+02  0.20000023261E+02 0.  0.
         12    1    1    2    0    0 -0.15289733815E+01 -0.11625687892E+02  0.41786701861E+02  0.43400723854E+02  0.00000000000E+00 0. -1.
         11    1    3    3    0    0 -0.54492927720E+01 -0.34512116165E+00 -0.98604218913E+01  0.11271283000E+02  0.51100000000E-03 0. -1.
        -11    1    3    3    0    0 -0.82645951609E+00  0.63975042322E+01 -0.21045767202E+02  0.22012165117E+02  0.51100000000E-03 0.  1.
        -12    1    3    3    0    0  0.78047256696E+01  0.55733048219E+01 -0.10880512768E+02  0.14503828029E+02  0.00000000000E+00 0.  1.
</event>
<event>
 7    1  0.1246400E-009  0.4778727E+02  0.7816164E-02  0.1312668E+00
        -11   -1    0    0    0    0  0.00000000000E+00  0.00000000000E+00  0.45593999997E+02  0.45594000000E+02  0.51100000000E-03 0.  1.
         11   -1    0    0    0    0 -0.00000000000E+00 -0.00000000000E+00 -0.45593999997E+02  0.45594000000E+02  0.51100000000E-03 0. -1.
    9900012    2    1    2    0    0 -0.38496924312E+02 -0.19453207654E+02 -0.48148771667E+01  0.47787268305E+02  0.19999987511E+02 0.  0.
         12    1    1    2    0    0  0.38496924312E+02  0.19453207654E+02  0.48148771667E+01  0.43400731695E+02  0.00000000000E+00 0. -1.
         11    1    3    3    0    0 -0.98229616151E+01  0.20482116642E+01  0.70478795599E+00  0.10058949858E+02  0.51100000000E-03 0. -1.
        -11    1    3    3    0    0 -0.10900140932E+02 -0.14339673748E+02 -0.99917418828E+00  0.18039890933E+02  0.51100000000E-03 0.  1.
         12    1    3    3    0    0 -0.17773821764E+02 -0.71617455705E+01 -0.45204909344E+01  0.19688427515E+02  0.00000000000E+00 0. -1.
</event>
<event>
 7    1  0.1246400E-009  0.4778727E+02  0.7816164E-02  0.1312668E+00
        -11   -1    0    0    0    0  0.00000000000E+00  0.00000000000E+00  0.45593999997E+02  0.45594000000E+02  0.51100000000E-03 0.  1.
         11   -1    0    0    0    0 -0.00000000000E+00 -0.00000000000E+00 -0.45593999997E+02  0.45594000000E+02  0.51100000000E-03 0. -1.
    9900012    2    1    2    0    0  0.22504252204E+02  0.18660657056E+02  0.32077438196E+02  0.47787268091E+02  0.19999986533E+02 0.  0.
         12    1    1    2    0    0 -0.22504252204E+02 -0.18660657056E+02 -0.32077438196E+02  0.43400731909E+02  0.00000000000E+00 0. -1.
         11    1    3    3    0    0  0.13090218175E+02  0.41622491823E+01  0.84478588660E+01  0.16125893768E+02  0.51100000000E-03 0. -1.
        -11    1    3    3    0    0  0.50774222871E+01  0.13941730452E+02  0.11513780202E+02  0.18780820000E+02  0.51100000000E-03 0.  1.
         12    1    3    3    0    0  0.43366117419E+01  0.55667742170E+00  0.12115799128E+02  0.12880554323E+02  0.00000000000E+00 0. -1.
</event>
<event>
 7    1  0.1246400E-009  0.4778727E+02  0.7816164E-02  0.1312668E+00
        -11   -1    0    0    0    0  0.00000000000E+00  0.00000000000E+00  0.45593999997E+02  0.45594000000E+02  0.51100000000E-03 0. -1.
         11   -1    0    0    0    0 -0.00000000000E+00 -0.00000000000E+00 -0.45593999997E+02  0.45594000000E+02  0.51100000000E-03 0.  1.
    9900012    2    1    2    0    0  0.27183657494E+02 -0.96484257404E+01 -0.32428074181E+02  0.47787270178E+02  0.19999996048E+02 0.  0.
         12    1    1    2    0    0 -0.27183657494E+02  0.96484257404E+01  0.32428074181E+02  0.43400729822E+02  0.00000000000E+00 0. -1.
         11    1    3    3    0    0  0.17306075384E+02 -0.97654260123E+01 -0.12720512770E+02  0.23593966089E+02  0.51100000000E-03 0. -1.
        -11    1    3    3    0    0  0.82453210101E+01  0.32174808572E+01 -0.78553862204E+01  0.11834043880E+02  0.51100000000E-03 0.  1.
         12    1    3    3    0    0  0.16322610994E+01 -0.31004805852E+01 -0.11852175190E+02  0.12359260208E+02  0.00000000000E+00 0. -1.
</event>
<event>
 7    1  0.1246400E-009  0.4778727E+02  0.7816164E-02  0.1312668E+00
        -11   -1    0    0    0    0  0.00000000000E+00  0.00000000000E+00  0.45593999997E+02  0.45594000000E+02  0.51100000000E-03 0.  1.
         11   -1    0    0    0    0 -0.00000000000E+00 -0.00000000000E+00 -0.45593999997E+02  0.45594000000E+02  0.51100000000E-03 0. -1.
    9900012    2    1    2    0    0  0.23158682396E+02  0.59288764946E+01  0.36223568196E+02  0.47787273743E+02  0.20000012302E+02 0.  0.
         12    1    1    2    0    0 -0.23158682396E+02 -0.59288764946E+01 -0.36223568196E+02  0.43400726257E+02  0.00000000000E+00 0. -1.
         11    1    3    3    0    0  0.17477860155E+02  0.55209722331E+01  0.24281108164E+02  0.30422507193E+02  0.51100000000E-03 0. -1.
        -11    1    3    3    0    0  0.44561797200E+01 -0.36543440678E+01  0.11785467568E+02  0.13119032523E+02  0.51100000000E-03 0.  1.
         12    1    3    3    0    0  0.12246425208E+01  0.40622483293E+01  0.15699246402E+00  0.42457340268E+01  0.00000000000E+00 0. -1.
</event>
<event>
 7    1  0.1246400E-009  0.4778726E+02  0.7816164E-02  0.1312668E+00
        -11   -1    0    0    0    0  0.00000000000E+00  0.00000000000E+00  0.45593999997E+02  0.45594000000E+02  0.51100000000E-03 0.  1.
         11   -1    0    0    0    0 -0.00000000000E+00 -0.00000000000E+00 -0.45593999997E+02  0.45594000000E+02  0.51100000000E-03 0. -1.
    9900012    2    1    2    0    0  0.87114705111E+01 -0.16271425220E+02  0.39280723116E+02  0.47787260310E+02  0.19999951056E+02 0.  0.
         12    1    1    2    0    0 -0.87114705111E+01  0.16271425220E+02 -0.39280723116E+02  0.43400739690E+02  0.00000000000E+00 0. -1.
         11    1    3    3    0    0  0.37391267339E+01  0.18429919976E+01  0.99801485140E+01  0.10815777959E+02  0.51100000000E-03 0. -1.
        -11    1    3    3    0    0  0.32427922840E+01  0.19085697794E+00  0.90680621679E+01  0.96323351232E+01  0.51100000000E-03 0.  1.
        -12    1    3    3    0    0  0.17295514932E+01 -0.18305274195E+02  0.20232512434E+02  0.27339147227E+02  0.00000000000E+00 0.  1.
</event>
<event>
 7    1  0.1246400E-009  0.4778727E+02  0.7816164E-02  0.1312668E+00
        -11   -1    0    0    0    0  0.00000000000E+00  0.00000000000E+00  0.45593999997E+02  0.45594000000E+02  0.51100000000E-03 0. -1.
         11   -1    0    0    0    0 -0.00000000000E+00 -0.00000000000E+00 -0.45593999997E+02  0.45594000000E+02  0.51100000000E-03 0.  1.
    9900012    2    1    2    0    0  0.39770716505E+02  0.68584250654E+01 -0.15964816944E+02  0.47787271138E+02  0.20000000427E+02 0.  0.
         12    1    1    2    0    0 -0.39770716505E+02 -0.68584250654E+01  0.15964816944E+02  0.43400728862E+02  0.00000000000E+00 0. -1.
         11    1    3    3    0    0  0.17396470500E+02 -0.61395749738E+01 -0.75843406682E+01  0.19946272593E+02  0.51100000000E-03 0. -1.
        -11    1    3    3    0    0  0.11051361371E+02  0.58050097662E+01 -0.71112810112E+01  0.14366664346E+02  0.51100000000E-03 0.  1.
        -12    1    3    3    0    0  0.11322884634E+02  0.71929902730E+01 -0.12691952642E+01  0.13474334199E+02  0.00000000000E+00 0.  1.
</event>
<event>
 7    1  0.1246400E-009  0.4778728E+02  0.7816164E-02  0.1312668E+00
        -11   -1    0    0    0    0  0.00000000000E+00  0.00000000000E+00  0.45593999997E+02  0.45594000000E+02  0.51100000000E-03 0.  1.
         11   -1    0    0    0    0 -0.00000000000E+00 -0.00000000000E+00 -0.45593999997E+02  0.45594000000E+02  0.51100000000E-03 0. -1.
    9900012    2    1    2    0    0 -0.14779938661E+02  0.40401707793E+02 -0.57338973983E+01  0.47787283891E+02  0.20000058572E+02 0.  0.
         12    1    1    2    0    0  0.14779938661E+02 -0.40401707793E+02  0.57338973983E+01  0.43400716109E+02  0.00000000000E+00 0. -1.
         11    1    3    3    0    0 -0.10815697918E+02  0.22427509733E+02 -0.82700012129E+01  0.26236719204E+02  0.51100000000E-03 0. -1.
        -11    1    3    3    0    0 -0.55460296522E+01  0.71748010020E+01  0.50082426053E+01  0.10359474339E+02  0.51100000000E-03 0.  1.
         12    1    3    3    0    0  0.15817889099E+01  0.10799397058E+02 -0.24721387908E+01  0.11191090348E+02  0.00000000000E+00 0. -1.
</event>
<event>
 7    1  0.1246400E-009  0.4778727E+02  0.7816164E-02  0.1312668E+00
        -11   -1    0    0    0    0  0.00000000000E+00  0.00000000000E+00  0.45593999997E+02  0.45594000000E+02  0.51100000000E-03 0.  1.
         11   -1    0    0    0    0 -0.00000000000E+00 -0.00000000000E+00 -0.45593999997E+02  0.45594000000E+02  0.51100000000E-03 0. -1.
    9900012    2    1    2    0    0  0.82865468743E+01  0.42301013613E+02 -0.50577563456E+01  0.47787268312E+02  0.19999987541E+02 0.  0.
         12    1    1    2    0    0 -0.82865468743E+01 -0.42301013613E+02  0.50577563456E+01  0.43400731688E+02  0.00000000000E+00 0. -1.
         11    1    3    3    0    0 -0.16392128992E+01  0.22159974749E+00 -0.13202718574E+01  0.21164223150E+01  0.51100000000E-03 0. -1.
        -11    1    3    3    0    0  0.37797316333E+01  0.36732756406E+02 -0.57170346313E+00  0.36931133336E+02  0.51100000000E-03 0.  1.
        -12    1    3    3    0    0  0.61460281402E+01  0.53466574602E+01 -0.31657810251E+01  0.87397126609E+01  0.00000000000E+00 0.  1.
</event>
<event>
 7    1  0.1246400E-009  0.4778727E+02  0.7816164E-02  0.1312668E+00
        -11   -1    0    0    0    0  0.00000000000E+00  0.00000000000E+00  0.45593999997E+02  0.45594000000E+02  0.51100000000E-03 0.  1.
         11   -1    0    0    0    0 -0.00000000000E+00 -0.00000000000E+00 -0.45593999997E+02  0.45594000000E+02  0.51100000000E-03 0. -1.
    9900012    2    1    2    0    0  0.26374237440E+02  0.18620198178E+02  0.29005359882E+02  0.47787273248E+02  0.20000010046E+02 0.  0.
         12    1    1    2    0    0 -0.26374237440E+02 -0.18620198178E+02 -0.29005359882E+02  0.43400726752E+02  0.00000000000E+00 0. -1.
         11    1    3    3    0    0  0.97192172351E+00  0.11400036119E+01 -0.27783547300E+01  0.31565004892E+01  0.51100000000E-03 0. -1.
        -11    1    3    3    0    0  0.11336500088E+02  0.74005221619E+01  0.10111390881E+02  0.16897461002E+02  0.51100000000E-03 0.  1.
         12    1    3    3    0    0  0.14065815629E+02  0.10079672405E+02  0.21672323730E+02  0.27733311756E+02  0.00000000000E+00 0. -1.
</event>
<event>
 7    1  0.1246400E-009  0.4778727E+02  0.7816164E-02  0.1312668E+00
        -11   -1    0    0    0    0  0.00000000000E+00  0.00000000000E+00  0.45593999997E+02  0.45594000000E+02  0.51100000000E-03 0.  1.
         11   -1    0    0    0    0 -0.00000000000E+00 -0.00000000000E+00 -0.45593999997E+02  0.45594000000E+02  0.51100000000E-03 0. -1.
    9900012    2    1    2    0    0  0.88824134745E+01  0.16969890684E+02  0.38945459451E+02  0.47787271080E+02  0.20000000163E+02 0.  0.
         12    1    1    2    0    0 -0.88824134745E+01 -0.16969890684E+02 -0.38945459451E+02  0.43400728920E+02  0.00000000000E+00 0. -1.
         11    1    3    3    0    0  0.86857418952E+01  0.11159321908E+01  0.53332389080E+01  0.10253333821E+02  0.51100000000E-03 0. -1.
        -11    1    3    3    0    0 -0.16975470046E+01  0.22766587184E+01  0.79094536203E+01  0.84038263657E+01  0.51100000000E-03 0.  1.
         12    1    3    3    0    0  0.18942185839E+01  0.13577299775E+02  0.25702766922E+02  0.29130110894E+02  0.00000000000E+00 0. -1.
</event>
<event>
 7    1  0.1246400E-009  0.4778728E+02  0.7816164E-02  0.1312668E+00
        -11   -1    0    0    0    0  0.00000000000E+00  0.00000000000E+00  0.45593999997E+02  0.45594000000E+02  0.51100000000E-03 0.  1.
         11   -1    0    0    0    0 -0.00000000000E+00 -0.00000000000E+00 -0.45593999997E+02  0.45594000000E+02  0.51100000000E-03 0. -1.
    9900012    2    1    2    0    0 -0.28547804831E+02 -0.74712926074E+01  0.31824911085E+02  0.47787281810E+02  0.20000049083E+02 0.  0.
         12    1    1    2    0    0  0.28547804831E+02  0.74712926074E+01 -0.31824911085E+02  0.43400718190E+02  0.00000000000E+00 0. -1.
         11    1    3    3    0    0  0.14547647888E+01  0.33539124772E+00  0.15714111734E+01  0.21675242137E+01  0.51100000000E-03 0. -1.
        -11    1    3    3    0    0 -0.21299216675E+02 -0.75386594500E+01  0.29091918284E+02  0.36835142554E+02  0.51100000000E-03 0.  1.
         12    1    3    3    0    0 -0.87033529441E+01 -0.26802440518E+00  0.11615816272E+01  0.87846150415E+01  0.00000000000E+00 0. -1.
</event>
<event>
 7    1  0.1246400E-009  0.4778727E+02  0.7816164E-02  0.1312668E+00
        -11   -1    0    0    0    0  0.00000000000E+00  0.00000000000E+00  0.45593999997E+02  0.45594000000E+02  0.51100000000E-03 0.  1.
         11   -1    0    0    0    0 -0.00000000000E+00 -0.00000000000E+00 -0.45593999997E+02  0.45594000000E+02  0.51100000000E-03 0. -1.
    9900012    2    1    2    0    0  0.10193087007E+02 -0.41747410519E+02  0.60727139414E+01  0.47787272329E+02  0.20000005855E+02 0.  0.
         12    1    1    2    0    0 -0.10193087007E+02  0.41747410519E+02 -0.60727139414E+01  0.43400727671E+02  0.00000000000E+00 0. -1.
         11    1    3    3    0    0 -0.23776200482E+01 -0.12631563756E+01 -0.98767636255E+00  0.28677771847E+01  0.51100000000E-03 0. -1.
        -11    1    3    3    0    0 -0.19253073984E+01 -0.69504899655E+01  0.40285516763E+01  0.82610742769E+01  0.51100000000E-03 0.  1.
        -12    1    3    3    0    0  0.14496014454E+02 -0.33533764178E+02  0.30318386277E+01  0.36658420867E+02  0.00000000000E+00 0.  1.
</event>
<event>
 7    1  0.1246400E-009  0.4778727E+02  0.7816164E-02  0.1312668E+00
        -11   -1    0    0    0    0  0.00000000000E+00  0.00000000000E+00  0.45593999997E+02  0.45594000000E+02  0.51100000000E-03 0.  1.
         11   -1    0    0    0    0 -0.00000000000E+00 -0.00000000000E+00 -0.45593999997E+02  0.45594000000E+02  0.51100000000E-03 0. -1.
    9900012    2    1    2    0    0  0.20465302306E+02 -0.86970758834E+01  0.37271382077E+02  0.47787266719E+02  0.19999980279E+02 0.  0.
         12    1    1    2    0    0 -0.20465302306E+02  0.86970758834E+01 -0.37271382077E+02  0.43400733281E+02  0.00000000000E+00 0. -1.
         11    1    3    3    0    0  0.12864581971E+02 -0.15317474645E+01  0.22366150092E+02  0.25847405862E+02  0.51100000000E-03 0. -1.
        -11    1    3    3    0    0  0.71512337921E+01 -0.97787701659E+01  0.15006330677E+02  0.19286120692E+02  0.51100000000E-03 0.  1.
         12    1    3    3    0    0  0.44948654327E+00  0.26134417470E+01 -0.10109869228E+00  0.26537401650E+01  0.00000000000E+00 0. -1.
</event>
<event>
 7    1  0.1246400E-009  0.4778727E+02  0.7816164E-02  0.1312668E+00
        -11   -1    0    0    0    0  0.00000000000E+00  0.00000000000E+00  0.45593999997E+02  0.45594000000E+02  0.51100000000E-03 0.  1.
         11   -1    0    0    0    0 -0.00000000000E+00 -0.00000000000E+00 -0.45593999997E+02  0.45594000000E+02  0.51100000000E-03 0. -1.
    9900012    2    1    2    0    0 -0.37270890125E+02  0.18717375073E+02  0.12006835579E+02  0.47787268659E+02  0.19999989123E+02 0.  0.
         12    1    1    2    0    0  0.37270890125E+02 -0.18717375073E+02 -0.12006835579E+02  0.43400731341E+02  0.00000000000E+00 0. -1.
         11    1    3    3    0    0 -0.26617841038E+01  0.37976919162E+01  0.52054553016E+01  0.69716801177E+01  0.51100000000E-03 0. -1.
        -11    1    3    3    0    0 -0.14742299699E+02 -0.10139211930E+01  0.23764217478E+01  0.14966990919E+02  0.51100000000E-03 0.  1.
         12    1    3    3    0    0 -0.19866806322E+02  0.15933604350E+02  0.44249585300E+01  0.25848597622E+02  0.00000000000E+00 0. -1.
</event>
<event>
 7    1  0.1246400E-009  0.4778727E+02  0.7816164E-02  0.1312668E+00
        -11   -1    0    0    0    0  0.00000000000E+00  0.00000000000E+00  0.45593999997E+02  0.45594000000E+02  0.51100000000E-03 0.  1.
         11   -1    0    0    0    0 -0.00000000000E+00 -0.00000000000E+00 -0.45593999997E+02  0.45594000000E+02  0.51100000000E-03 0. -1.
    9900012    2    1    2    0    0 -0.27714402023E+01 -0.41961829106E+02  0.10730686837E+02  0.47787267026E+02  0.19999981678E+02 0.  0.
         12    1    1    2    0    0  0.27714402023E+01  0.41961829106E+02 -0.10730686837E+02  0.43400732974E+02  0.00000000000E+00 0. -1.
         11    1    3    3    0    0  0.30186397201E+01 -0.67894540296E+00 -0.92129685281E+00  0.32283030794E+01  0.51100000000E-03 0. -1.
        -11    1    3    3    0    0 -0.48729958778E+01 -0.11368794796E+02  0.71701843594E+01  0.14297102082E+02  0.51100000000E-03 0.  1.
         12    1    3    3    0    0 -0.91708404461E+00 -0.29914088907E+02  0.44817993303E+01  0.30261861865E+02  0.00000000000E+00 0. -1.
</event>
<event>
 7    1  0.1246400E-009  0.4778727E+02  0.7816164E-02  0.1312668E+00
        -11   -1    0    0    0    0  0.00000000000E+00  0.00000000000E+00  0.45593999997E+02  0.45594000000E+02  0.51100000000E-03 0.  1.
         11   -1    0    0    0    0 -0.00000000000E+00 -0.00000000000E+00 -0.45593999997E+02  0.45594000000E+02  0.51100000000E-03 0. -1.
    9900012    2    1    2    0    0  0.42461759132E+02  0.11187157926E+01  0.89090312963E+01  0.47787270142E+02  0.19999995884E+02 0.  0.
         12    1    1    2    0    0 -0.42461759132E+02 -0.11187157926E+01 -0.89090312963E+01  0.43400729858E+02  0.00000000000E+00 0. -1.
         11    1    3    3    0    0  0.17785471273E+02  0.40475295167E+01  0.67612432579E+00  0.18252743025E+02  0.51100000000E-03 0.  1.
        -11    1    3    3    0    0 -0.82436521593E+00 -0.19246874563E+01  0.27077726132E+01  0.34228690597E+01  0.51100000000E-03 0. -1.
         12    1    3    3    0    0  0.25500653075E+02 -0.10041262679E+01  0.55251343573E+01  0.26111658057E+02  0.00000000000E+00 0. -1.
</event>
<event>
 7    1  0.1246400E-009  0.4778727E+02  0.7816164E-02  0.1312668E+00
        -11   -1    0    0    0    0  0.00000000000E+00  0.00000000000E+00  0.45593999997E+02  0.45594000000E+02  0.51100000000E-03 0. -1.
         11   -1    0    0    0    0 -0.00000000000E+00 -0.00000000000E+00 -0.45593999997E+02  0.45594000000E+02  0.51100000000E-03 0.  1.
    9900012    2    1    2    0    0  0.13511833515E+02  0.38040227258E+02 -0.15937207048E+02  0.47787273010E+02  0.20000008962E+02 0.  0.
         12    1    1    2    0    0 -0.13511833515E+02 -0.38040227258E+02  0.15937207048E+02  0.43400726990E+02  0.00000000000E+00 0. -1.
         11    1    3    3    0    0  0.26991752222E+01  0.18487462524E+02 -0.45131319556E+01  0.19220826667E+02  0.51100000000E-03 0. -1.
        -11    1    3    3    0    0  0.28365711838E+01  0.16101320556E+02 -0.11300747659E+02  0.19874746731E+02  0.51100000000E-03 0.  1.
        -12    1    3    3    0    0  0.79760871087E+01  0.34514441785E+01 -0.12332743296E+00  0.86916996116E+01  0.00000000000E+00 0.  1.
</event>
<event>
 7    1  0.1246400E-009  0.4778728E+02  0.7816164E-02  0.1312668E+00
        -11   -1    0    0    0    0  0.00000000000E+00  0.00000000000E+00  0.45593999997E+02  0.45594000000E+02  0.51100000000E-03 0.  1.
         11   -1    0    0    0    0 -0.00000000000E+00 -0.00000000000E+00 -0.45593999997E+02  0.45594000000E+02  0.51100000000E-03 0. -1.
    9900012    2    1    2    0    0  0.24731184390E+01  0.69893553621E+01  0.42762781108E+02  0.47787275913E+02  0.20000022196E+02 0.  0.
         12    1    1    2    0    0 -0.24731184390E+01 -0.69893553621E+01 -0.42762781108E+02  0.43400724087E+02  0.00000000000E+00 0. -1.
         11    1    3    3    0    0  0.77614765432E+01  0.13656524393E+00  0.13387187826E+02  0.15475011029E+02  0.51100000000E-03 0. -1.
        -11    1    3    3    0    0 -0.39715762546E+01 -0.19949248381E+01  0.82527151094E+01  0.93733905282E+01  0.51100000000E-03 0.  1.
        -12    1    3    3    0    0 -0.13167818496E+01  0.88477149563E+01  0.21122878173E+02  0.22938874355E+02  0.00000000000E+00 0.  1.
</event>
<event>
 7    1  0.1246400E-009  0.4778727E+02  0.7816164E-02  0.1312668E+00
        -11   -1    0    0    0    0  0.00000000000E+00  0.00000000000E+00  0.45593999997E+02  0.45594000000E+02  0.51100000000E-03 0. -1.
         11   -1    0    0    0    0 -0.00000000000E+00 -0.00000000000E+00 -0.45593999997E+02  0.45594000000E+02  0.51100000000E-03 0.  1.
    9900012    2    1    2    0    0 -0.22612855659E+02  0.55080914081E-01 -0.37044287224E+02  0.47787268544E+02  0.19999988601E+02 0.  0.
         12    1    1    2    0    0  0.22612855659E+02 -0.55080914081E-01  0.37044287224E+02  0.43400731456E+02  0.00000000000E+00 0. -1.
         11    1    3    3    0    0 -0.13757555144E+01  0.21599818024E+01 -0.71926771376E+01  0.76349740857E+01  0.51100000000E-03 0. -1.
        -11    1    3    3    0    0 -0.16738491732E+02 -0.86977291367E+01 -0.21428348436E+02  0.28548234876E+02  0.51100000000E-03 0.  1.
        -12    1    3    3    0    0 -0.44986084122E+01  0.65928282484E+01 -0.84232616508E+01  0.11604059583E+02  0.00000000000E+00 0.  1.
</event>
<event>
 7    1  0.1246400E-009  0.4778728E+02  0.7816164E-02  0.1312668E+00
        -11   -1    0    0    0    0  0.00000000000E+00  0.00000000000E+00  0.45593999997E+02  0.45594000000E+02  0.51100000000E-03 0.  1.
         11   -1    0    0    0    0 -0.00000000000E+00 -0.00000000000E+00 -0.45593999997E+02  0.45594000000E+02  0.51100000000E-03 0. -1.
    9900012    2    1    2    0    0 -0.20941043729E+02  0.24219072326E+01  0.37937179510E+02  0.47787279542E+02  0.20000038745E+02 0.  0.
         12    1    1    2    0    0  0.20941043729E+02 -0.24219072326E+01 -0.37937179510E+02  0.43400720458E+02  0.00000000000E+00 0. -1.
         11    1    3    3    0    0 -0.10868508032E+02 -0.67239215567E+01  0.12770210145E+02  0.18066927114E+02  0.51100000000E-03 0. -1.
        -11    1    3    3    0    0 -0.98795732757E+01  0.40434281822E+01  0.16182157354E+02  0.19386012908E+02  0.51100000000E-03 0.  1.
        -12    1    3    3    0    0 -0.19296242172E+00  0.51024006072E+01  0.89848120110E+01  0.10334339520E+02  0.00000000000E+00 0.  1.
</event>
<event>
 7    1  0.1246400E-009  0.4778727E+02  0.7816164E-02  0.1312668E+00
        -11   -1    0    0    0    0  0.00000000000E+00  0.00000000000E+00  0.45593999997E+02  0.45594000000E+02  0.51100000000E-03 0.  1.
         11   -1    0    0    0    0 -0.00000000000E+00 -0.00000000000E+00 -0.45593999997E+02  0.45594000000E+02  0.51100000000E-03 0. -1.
    9900012    2    1    2    0    0  0.27566948935E+02  0.31895567975E+02  0.10313065671E+02  0.47787271278E+02  0.20000001065E+02 0.  0.
         12    1    1    2    0    0 -0.27566948935E+02 -0.31895567975E+02 -0.10313065671E+02  0.43400728722E+02  0.00000000000E+00 0. -1.
         11    1    3    3    0    0  0.15441853428E+02  0.19681124691E+02  0.37941028819E+01  0.25302030024E+02  0.51100000000E-03 0. -1.
        -11    1    3    3    0    0  0.40358191727E+01  0.63845290577E+01 -0.35224413536E+01  0.83341250911E+01  0.51100000000E-03 0.  1.
         12    1    3    3    0    0  0.80892763339E+01  0.58299142266E+01  0.10041404143E+02  0.14151116163E+02  0.00000000000E+00 0. -1.
</event>
<event>
 7    1  0.1246400E-009  0.4778727E+02  0.7816164E-02  0.1312668E+00
        -11   -1    0    0    0    0  0.00000000000E+00  0.00000000000E+00  0.45593999997E+02  0.45594000000E+02  0.51100000000E-03 0.  1.
         11   -1    0    0    0    0 -0.00000000000E+00 -0.00000000000E+00 -0.45593999997E+02  0.45594000000E+02  0.51100000000E-03 0. -1.
    9900012    2    1    2    0    0  0.31181367137E+02 -0.33119632181E+01  0.30006270132E+02  0.47787274152E+02  0.20000014169E+02 0.  0.
         12    1    1    2    0    0 -0.31181367137E+02  0.33119632181E+01 -0.30006270132E+02  0.43400725848E+02  0.00000000000E+00 0. -1.
         11    1    3    3    0    0  0.22177962142E+02  0.10512325496E+00  0.22680291704E+02  0.31721738410E+02  0.51100000000E-03 0.  1.
        -11    1    3    3    0    0  0.10224964644E+02 -0.57016865120E+01  0.60151463811E+01  0.13162109151E+02  0.51100000000E-03 0. -1.
         12    1    3    3    0    0 -0.12215596499E+01  0.22846000389E+01  0.13108320464E+01  0.29034265911E+01  0.00000000000E+00 0. -1.
</event>
<event>
 7    1  0.1246400E-009  0.4778727E+02  0.7816164E-02  0.1312668E+00
        -11   -1    0    0    0    0  0.00000000000E+00  0.00000000000E+00  0.45593999997E+02  0.45594000000E+02  0.51100000000E-03 0. -1.
         11   -1    0    0    0    0 -0.00000000000E+00 -0.00000000000E+00 -0.45593999997E+02  0.45594000000E+02  0.51100000000E-03 0.  1.
    9900012    2    1    2    0    0  0.15571267488E+02 -0.27720973236E+02 -0.29541608771E+02  0.47787269855E+02  0.19999994575E+02 0.  0.
         12    1    1    2    0    0 -0.15571267488E+02  0.27720973236E+02  0.29541608771E+02  0.43400730145E+02  0.00000000000E+00 0. -1.
         11    1    3    3    0    0 -0.23498333768E+01 -0.62030496596E+00 -0.62928796005E+00  0.25104777926E+01  0.51100000000E-03 0. -1.
        -11    1    3    3    0    0  0.24024097196E+01  0.10095664582E+00  0.33323734030E+00  0.24275115017E+01  0.51100000000E-03 0.  1.
        -12    1    3    3    0    0  0.15518691145E+02 -0.27201624916E+02 -0.29245558152E+02  0.42849280560E+02  0.00000000000E+00 0.  1.
</event>
<event>
 7    1  0.1246400E-009  0.4778727E+02  0.7816164E-02  0.1312668E+00
        -11   -1    0    0    0    0  0.00000000000E+00  0.00000000000E+00  0.45593999997E+02  0.45594000000E+02  0.51100000000E-03 0.  1.
         11   -1    0    0    0    0 -0.00000000000E+00 -0.00000000000E+00 -0.45593999997E+02  0.45594000000E+02  0.51100000000E-03 0. -1.
    9900012    2    1    2    0    0  0.96204209037E+01  0.38684715431E+02  0.17162858832E+02  0.47787269250E+02  0.19999991820E+02 0.  0.
         12    1    1    2    0    0 -0.96204209037E+01 -0.38684715431E+02 -0.17162858832E+02  0.43400730750E+02  0.00000000000E+00 0. -1.
         11    1    3    3    0    0  0.24087037248E+01  0.17189400730E+01  0.44034604705E+01  0.53053815117E+01  0.51100000000E-03 0. -1.
        -11    1    3    3    0    0  0.83042983516E+01  0.36212109548E+02  0.14846312478E+02  0.40008639610E+02  0.51100000000E-03 0.  1.
         12    1    3    3    0    0 -0.10925811727E+01  0.75366580994E+00 -0.20869141169E+01  0.24732481281E+01  0.00000000000E+00 0. -1.
</event>
<event>
 7    1  0.1246400E-009  0.4778727E+02  0.7816164E-02  0.1312668E+00
        -11   -1    0    0    0    0  0.00000000000E+00  0.00000000000E+00  0.45593999997E+02  0.45594000000E+02  0.51100000000E-03 0.  1.
         11   -1    0    0    0    0 -0.00000000000E+00 -0.00000000000E+00 -0.45593999997E+02  0.45594000000E+02  0.51100000000E-03 0. -1.
    9900012    2    1    2    0    0 -0.42087107394E+02 -0.83012435298E+01 -0.65869533310E+01  0.47787271813E+02  0.20000003506E+02 0.  0.
         12    1    1    2    0    0  0.42087107394E+02  0.83012435298E+01  0.65869533310E+01  0.43400728187E+02  0.00000000000E+00 0. -1.
         11    1    3    3    0    0 -0.91237622491E+01 -0.76226718135E+01  0.40120656371E+01  0.12547702343E+02  0.51100000000E-03 0. -1.
        -11    1    3    3    0    0 -0.95547466948E+01 -0.17330610893E+01 -0.58316840203E+01  0.11327189586E+02  0.51100000000E-03 0.  1.
         12    1    3    3    0    0 -0.23408598450E+02  0.10544893729E+01 -0.47673349478E+01  0.23912379885E+02  0.00000000000E+00 0. -1.
</event>
<event>
 7    1  0.1246400E-009  0.4778727E+02  0.7816164E-02  0.1312668E+00
        -11   -1    0    0    0    0  0.00000000000E+00  0.00000000000E+00  0.45593999997E+02  0.45594000000E+02  0.51100000000E-03 0. -1.
         11   -1    0    0    0    0 -0.00000000000E+00 -0.00000000000E+00 -0.45593999997E+02  0.45594000000E+02  0.51100000000E-03 0.  1.
    9900012    2    1    2    0    0  0.30890487455E+02  0.24359048641E+02 -0.18331339970E+02  0.47787268544E+02  0.19999988597E+02 0.  0.
         12    1    1    2    0    0 -0.30890487455E+02 -0.24359048641E+02  0.18331339970E+02  0.43400731456E+02  0.00000000000E+00 0. -1.
         11    1    3    3    0    0  0.68645677433E+01  0.92797114056E+01  0.10197812642E+01  0.11587721440E+02  0.51100000000E-03 0. -1.
        -11    1    3    3    0    0  0.63214510004E+01  0.97340326004E+01 -0.10685017728E+02  0.15775986103E+02  0.51100000000E-03 0.  1.
         12    1    3    3    0    0  0.17704468711E+02  0.53453046349E+01 -0.86661035055E+01  0.20423561001E+02  0.00000000000E+00 0. -1.
</event>
<event>
 7    1  0.1246400E-009  0.4778727E+02  0.7816164E-02  0.1312668E+00
        -11   -1    0    0    0    0  0.00000000000E+00  0.00000000000E+00  0.45593999997E+02  0.45594000000E+02  0.51100000000E-03 0.  1.
         11   -1    0    0    0    0 -0.00000000000E+00 -0.00000000000E+00 -0.45593999997E+02  0.45594000000E+02  0.51100000000E-03 0. -1.
    9900012    2    1    2    0    0 -0.14187620524E+02  0.24126455123E+01  0.40945253992E+02  0.47787271216E+02  0.20000000784E+02 0.  0.
         12    1    1    2    0    0  0.14187620524E+02 -0.24126455123E+01 -0.40945253992E+02  0.43400728784E+02  0.00000000000E+00 0. -1.
         11    1    3    3    0    0 -0.13377582265E+01  0.44372045743E+01  0.17164971961E+01  0.49421396573E+01  0.51100000000E-03 0. -1.
        -11    1    3    3    0    0 -0.10795202843E+02 -0.17769146711E+01  0.15202551053E+02  0.18729959663E+02  0.51100000000E-03 0.  1.
         12    1    3    3    0    0 -0.20546594544E+01 -0.24764439086E+00  0.24026205742E+02  0.24115171896E+02  0.00000000000E+00 0. -1.
</event>
<event>
 7    1  0.1246400E-009  0.4778727E+02  0.7816164E-02  0.1312668E+00
        -11   -1    0    0    0    0  0.00000000000E+00  0.00000000000E+00  0.45593999997E+02  0.45594000000E+02  0.51100000000E-03 0.  1.
         11   -1    0    0    0    0 -0.00000000000E+00 -0.00000000000E+00 -0.45593999997E+02  0.45594000000E+02  0.51100000000E-03 0. -1.
    9900012    2    1    2    0    0  0.19283161492E+02  0.49237619865E+01  0.38568634364E+02  0.47787270675E+02  0.19999998315E+02 0.  0.
         12    1    1    2    0    0 -0.19283161492E+02 -0.49237619865E+01 -0.38568634364E+02  0.43400729325E+02  0.00000000000E+00 0. -1.
         11    1    3    3    0    0  0.89954861738E+01 -0.88174695876E+00  0.30189363298E+02  0.31513392483E+02  0.51100000000E-03 0. -1.
        -11    1    3    3    0    0  0.64821221125E+00  0.40695367269E+01  0.30200995927E+01  0.51090419898E+01  0.51100000000E-03 0.  1.
        -12    1    3    3    0    0  0.96394631071E+01  0.17359722184E+01  0.53591714740E+01  0.11164836202E+02  0.00000000000E+00 0.  1.
</event>
<event>
 7    1  0.1246400E-009  0.4778727E+02  0.7816164E-02  0.1312668E+00
        -11   -1    0    0    0    0  0.00000000000E+00  0.00000000000E+00  0.45593999997E+02  0.45594000000E+02  0.51100000000E-03 0.  1.
         11   -1    0    0    0    0 -0.00000000000E+00 -0.00000000000E+00 -0.45593999997E+02  0.45594000000E+02  0.51100000000E-03 0. -1.
    9900012    2    1    2    0    0 -0.32835357321E+02  0.26546719891E+02  0.10036655356E+02  0.47787268692E+02  0.19999989272E+02 0.  0.
         12    1    1    2    0    0  0.32835357321E+02 -0.26546719891E+02 -0.10036655356E+02  0.43400731308E+02  0.00000000000E+00 0. -1.
         11    1    3    3    0    0 -0.17055583465E+02  0.58168557527E+01  0.71484962630E+01  0.19386328617E+02  0.51100000000E-03 0. -1.
        -11    1    3    3    0    0 -0.11795173274E+02  0.96627457858E+01 -0.25200638861E+01  0.15454626846E+02  0.51100000000E-03 0.  1.
         12    1    3    3    0    0 -0.39846005823E+01  0.11067118352E+02  0.54082229792E+01  0.12946313229E+02  0.00000000000E+00 0. -1.
</event>
<event>
 7    1  0.1246400E-009  0.4778728E+02  0.7816164E-02  0.1312668E+00
        -11   -1    0    0    0    0  0.00000000000E+00  0.00000000000E+00  0.45593999997E+02  0.45594000000E+02  0.51100000000E-03 0.  1.
         11   -1    0    0    0    0 -0.00000000000E+00 -0.00000000000E+00 -0.45593999997E+02  0.45594000000E+02  0.51100000000E-03 0. -1.
    9900012    2    1    2    0    0  0.17689604226E+02  0.34125094044E+02  0.20153870137E+02  0.47787278547E+02  0.20000034205E+02 0.  0.
         12    1    1    2    0    0 -0.17689604226E+02 -0.34125094044E+02 -0.20153870137E+02  0.43400721453E+02  0.00000000000E+00 0. -1.
         11    1    3    3    0    0  0.77827233018E+01  0.10508653958E+02  0.12415229812E+02  0.18031653323E+02  0.51100000000E-03 0. -1.
        -11    1    3    3    0    0  0.11630893964E+02  0.20977435166E+02  0.31549581811E+01  0.24192648510E+02  0.51100000000E-03 0.  1.
         12    1    3    3    0    0 -0.17240130391E+01  0.26390049199E+01  0.45836821432E+01  0.55629767137E+01  0.00000000000E+00 0. -1.
</event>
<event>
 7    1  0.1246400E-009  0.4778728E+02  0.7816164E-02  0.1312668E+00
        -11   -1    0    0    0    0  0.00000000000E+00  0.00000000000E+00  0.45593999997E+02  0.45594000000E+02  0.51100000000E-03 0.  1.
         11   -1    0    0    0    0 -0.00000000000E+00 -0.00000000000E+00 -0.45593999997E+02  0.45594000000E+02  0.51100000000E-03 0. -1.
    9900012    2    1    2    0    0 -0.12067994669E+02  0.33668206177E+02  0.24585324930E+02  0.47787276453E+02  0.20000024658E+02 0.  0.
         12    1    1    2    0    0  0.12067994669E+02 -0.33668206177E+02 -0.24585324930E+02  0.43400723547E+02  0.00000000000E+00 0. -1.
         11    1    3    3    0    0 -0.93480353509E+00  0.11710136898E+01 -0.13637953942E+01  0.20260969496E+01  0.51100000000E-03 0. -1.
        -11    1    3    3    0    0 -0.96218804261E+00  0.14025554682E+02  0.18842336115E+02  0.23509054011E+02  0.51100000000E-03 0.  1.
        -12    1    3    3    0    0 -0.10171003092E+02  0.18471637806E+02  0.71067842090E+01  0.22252125492E+02  0.00000000000E+00 0.  1.
</event>
<event>
 7    1  0.1246400E-009  0.4778727E+02  0.7816164E-02  0.1312668E+00
        -11   -1    0    0    0    0  0.00000000000E+00  0.00000000000E+00  0.45593999997E+02  0.45594000000E+02  0.51100000000E-03 0.  1.
         11   -1    0    0    0    0 -0.00000000000E+00 -0.00000000000E+00 -0.45593999997E+02  0.45594000000E+02  0.51100000000E-03 0. -1.
    9900012    2    1    2    0    0  0.39427716474E+02  0.17753204104E+02  0.37286096917E+01  0.47787267143E+02  0.19999982211E+02 0.  0.
         12    1    1    2    0    0 -0.39427716474E+02 -0.17753204104E+02 -0.37286096917E+01  0.43400732857E+02  0.00000000000E+00 0. -1.
         11    1    3    3    0    0  0.14426381907E+02  0.13496838620E+02 -0.52854009548E+00  0.19762704839E+02  0.51100000000E-03 0. -1.
        -11    1    3    3    0    0  0.24840568959E+02  0.59794603915E+01  0.26925878762E+01  0.25691590891E+02  0.51100000000E-03 0.  1.
        -12    1    3    3    0    0  0.16076560775E+00 -0.17230949072E+01  0.15645619110E+01  0.23329714129E+01  0.00000000000E+00 0.  1.
</event>
<event>
 7    1  0.1246400E-009  0.4778729E+02  0.7816164E-02  0.1312668E+00
        -11   -1    0    0    0    0  0.00000000000E+00  0.00000000000E+00  0.45593999997E+02  0.45594000000E+02  0.51100000000E-03 0.  1.
         11   -1    0    0    0    0 -0.00000000000E+00 -0.00000000000E+00 -0.45593999997E+02  0.45594000000E+02  0.51100000000E-03 0. -1.
    9900012    2    1    2    0    0  0.35696949903E+02  0.15113917257E+02  0.19517144145E+02  0.47787289836E+02  0.20000085678E+02 0.  0.
         12    1    1    2    0    0 -0.35696949903E+02 -0.15113917257E+02 -0.19517144145E+02  0.43400710164E+02  0.00000000000E+00 0. -1.
         11    1    3    3    0    0  0.13853561636E+02 -0.35417510009E+01  0.82094304764E+01  0.16488175132E+02  0.51100000000E-03 0. -1.
        -11    1    3    3    0    0  0.91851999291E+01  0.62061210416E+01  0.67139917666E+01  0.12959996984E+02  0.51100000000E-03 0.  1.
         12    1    3    3    0    0  0.12658188337E+02  0.12449547216E+02  0.45937219015E+01  0.18339117720E+02  0.00000000000E+00 0. -1.
</event>
<event>
 7    1  0.1246400E-009  0.4778727E+02  0.7816164E-02  0.1312668E+00
        -11   -1    0    0    0    0  0.00000000000E+00  0.00000000000E+00  0.45593999997E+02  0.45594000000E+02  0.51100000000E-03 0. -1.
         11   -1    0    0    0    0 -0.00000000000E+00 -0.00000000000E+00 -0.45593999997E+02  0.45594000000E+02  0.51100000000E-03 0.  1.
    9900012    2    1    2    0    0  0.11454372240E+02 -0.38069113060E+02 -0.17411577158E+02  0.47787273835E+02  0.20000012721E+02 0.  0.
         12    1    1    2    0    0 -0.11454372240E+02  0.38069113060E+02  0.17411577158E+02  0.43400726165E+02  0.00000000000E+00 0. -1.
         11    1    3    3    0    0  0.20604364760E+01  0.11178545299E+01  0.32079480490E+00  0.23659896005E+01  0.51100000000E-03 0. -1.
        -11    1    3    3    0    0  0.88722168650E+01 -0.26190352713E+02 -0.69149474116E+01  0.28503812118E+02  0.51100000000E-03 0.  1.
         12    1    3    3    0    0  0.52171889942E+00 -0.12996614877E+02 -0.10817424551E+02  0.16917472116E+02  0.00000000000E+00 0. -1.
</event>
<event>
 7    1  0.1246400E-009  0.4778727E+02  0.7816164E-02  0.1312668E+00
        -11   -1    0    0    0    0  0.00000000000E+00  0.00000000000E+00  0.45593999997E+02  0.45594000000E+02  0.51100000000E-03 0.  1.
         11   -1    0    0    0    0 -0.00000000000E+00 -0.00000000000E+00 -0.45593999997E+02  0.45594000000E+02  0.51100000000E-03 0. -1.
    9900012    2    1    2    0    0 -0.25166390346E+02  0.34846287689E+02 -0.60010163317E+01  0.47787272290E+02  0.20000005679E+02 0.  0.
         12    1    1    2    0    0  0.25166390346E+02 -0.34846287689E+02  0.60010163317E+01  0.43400727710E+02  0.00000000000E+00 0. -1.
         11    1    3    3    0    0 -0.14505393832E+01 -0.86481398489E+00  0.48534148172E+00  0.17571352668E+01  0.51100000000E-03 0. -1.
        -11    1    3    3    0    0 -0.67755626407E+01  0.23907297659E+02 -0.22289000776E+01  0.24948649788E+02  0.51100000000E-03 0.  1.
        -12    1    3    3    0    0 -0.16940288322E+02  0.11803804015E+02 -0.42574577359E+01  0.21081487235E+02  0.00000000000E+00 0.  1.
</event>
<event>
 7    1  0.1246400E-009  0.4778728E+02  0.7816164E-02  0.1312668E+00
        -11   -1    0    0    0    0  0.00000000000E+00  0.00000000000E+00  0.45593999997E+02  0.45594000000E+02  0.51100000000E-03 0.  1.
         11   -1    0    0    0    0 -0.00000000000E+00 -0.00000000000E+00 -0.45593999997E+02  0.45594000000E+02  0.51100000000E-03 0. -1.
    9900012    2    1    2    0    0  0.36674086408E+02 -0.59183445679E+01  0.22441195407E+02  0.47787278029E+02  0.20000031846E+02 0.  0.
         12    1    1    2    0    0 -0.36674086408E+02  0.59183445679E+01 -0.22441195407E+02  0.43400721971E+02  0.00000000000E+00 0. -1.
         11    1    3    3    0    0 -0.11866100851E+01 -0.16258459925E+01  0.43626863994E+01  0.48046281403E+01  0.51100000000E-03 0. -1.
        -11    1    3    3    0    0  0.23570339444E+02 -0.20948158211E+01  0.15522426890E+02  0.28300086425E+02  0.51100000000E-03 0.  1.
        -12    1    3    3    0    0  0.14290357049E+02 -0.21976827543E+01  0.25560821170E+01  0.14682563464E+02  0.00000000000E+00 0.  1.
</event>
<event>
 7    1  0.1246400E-009  0.4778727E+02  0.7816164E-02  0.1312668E+00
        -11   -1    0    0    0    0  0.00000000000E+00  0.00000000000E+00  0.45593999997E+02  0.45594000000E+02  0.51100000000E-03 0.  1.
         11   -1    0    0    0    0 -0.00000000000E+00 -0.00000000000E+00 -0.45593999997E+02  0.45594000000E+02  0.51100000000E-03 0. -1.
    9900012    2    1    2    0    0  0.21975052125E+02 -0.18419506336E+02  0.32579777674E+02  0.47787273707E+02  0.20000012138E+02 0.  0.
         12    1    1    2    0    0 -0.21975052125E+02  0.18419506336E+02 -0.32579777674E+02  0.43400726293E+02  0.00000000000E+00 0. -1.
         11    1    3    3    0    0  0.13193098502E+02 -0.95696021089E+01  0.22720322218E+02  0.27961548143E+02  0.51100000000E-03 0. -1.
        -11    1    3    3    0    0  0.74284558077E+01  0.62389647426E+00  0.29271155263E+01  0.80086957779E+01  0.51100000000E-03 0.  1.
         12    1    3    3    0    0  0.13534978149E+01 -0.94738007008E+01  0.69323399292E+01  0.11817029785E+02  0.00000000000E+00 0. -1.
</event>
<event>
 7    1  0.1246400E-009  0.4778731E+02  0.7816164E-02  0.1312668E+00
        -11   -1    0    0    0    0  0.00000000000E+00  0.00000000000E+00  0.45593999997E+02  0.45594000000E+02  0.51100000000E-03 0. -1.
         11   -1    0    0    0    0 -0.00000000000E+00 -0.00000000000E+00 -0.45593999997E+02  0.45594000000E+02  0.51100000000E-03 0.  1.
    9900012    2    1    2    0    0 -0.30855844752E+02 -0.21306757944E+02 -0.21853112870E+02  0.47787313006E+02  0.20000191319E+02 0.  0.
         12    1    1    2    0    0  0.30855844752E+02  0.21306757944E+02  0.21853112870E+02  0.43400686994E+02  0.00000000000E+00 0. -1.
         11    1    3    3    0    0 -0.60299899836E+01 -0.80538278826E+01 -0.11792444674E+01  0.10129932899E+02  0.51100000000E-03 0. -1.
        -11    1    3    3    0    0 -0.42248075957E+01 -0.44397409430E+01 -0.12289823295E+02  0.13733173549E+02  0.51100000000E-03 0.  1.
        -12    1    3    3    0    0 -0.20601047172E+02 -0.88131891185E+01 -0.83840451084E+01  0.23924206558E+02  0.00000000000E+00 0.  1.
</event>
<event>
 7    1  0.1246400E-009  0.4778727E+02  0.7816164E-02  0.1312668E+00
        -11   -1    0    0    0    0  0.00000000000E+00  0.00000000000E+00  0.45593999997E+02  0.45594000000E+02  0.51100000000E-03 0.  1.
         11   -1    0    0    0    0 -0.00000000000E+00 -0.00000000000E+00 -0.45593999997E+02  0.45594000000E+02  0.51100000000E-03 0. -1.
    9900012    2    1    2    0    0  0.37793577204E+02  0.20673997811E+02  0.52777578335E+01  0.47787269694E+02  0.19999993843E+02 0.  0.
         12    1    1    2    0    0 -0.37793577204E+02 -0.20673997811E+02 -0.52777578335E+01  0.43400730306E+02  0.00000000000E+00 0. -1.
         11    1    3    3    0    0  0.51890169912E+01  0.43366870091E+01 -0.29737255235E+01  0.73875432520E+01  0.51100000000E-03 0. -1.
        -11    1    3    3    0    0  0.33051497735E+02  0.18125057099E+02  0.80589312357E+01  0.38546926860E+02  0.51100000000E-03 0.  1.
        -12    1    3    3    0    0 -0.44693752296E+00 -0.17877462972E+01  0.19255212134E+00  0.18527995822E+01  0.00000000000E+00 0.  1.
</event>
<event>
 7    1  0.1246400E-009  0.4778727E+02  0.7816164E-02  0.1312668E+00
        -11   -1    0    0    0    0  0.00000000000E+00  0.00000000000E+00  0.45593999997E+02  0.45594000000E+02  0.51100000000E-03 0. -1.
         11   -1    0    0    0    0 -0.00000000000E+00 -0.00000000000E+00 -0.45593999997E+02  0.45594000000E+02  0.51100000000E-03 0.  1.
    9900012    2    1    2    0    0  0.28678830778E+02  0.30560584939E+02 -0.11278234706E+02  0.47787271151E+02  0.20000000485E+02 0.  0.
         12    1    1    2    0    0 -0.28678830778E+02 -0.30560584939E+02  0.11278234706E+02  0.43400728849E+02  0.00000000000E+00 0. -1.
         11    1    3    3    0    0  0.12405620745E+02  0.13225901557E+02 -0.81540044662E+01  0.19882446709E+02  0.51100000000E-03 0.  1.
        -11    1    3    3    0    0  0.13092419065E+02  0.16715265770E+02 -0.74486384893E+01  0.22500972476E+02  0.51100000000E-03 0. -1.
         12    1    3    3    0    0  0.31807909678E+01  0.61941761170E+00  0.43244082499E+01  0.54038519660E+01  0.00000000000E+00 0. -1.
</event>
<event>
 7    1  0.1246400E-009  0.4778729E+02  0.7816164E-02  0.1312668E+00
        -11   -1    0    0    0    0  0.00000000000E+00  0.00000000000E+00  0.45593999997E+02  0.45594000000E+02  0.51100000000E-03 0.  1.
         11   -1    0    0    0    0 -0.00000000000E+00 -0.00000000000E+00 -0.45593999997E+02  0.45594000000E+02  0.51100000000E-03 0. -1.
    9900012    2    1    2    0    0 -0.43280953034E+02 -0.56733732058E+00  0.31716360729E+01  0.47787285230E+02  0.20000064677E+02 0.  0.
         12    1    1    2    0    0  0.43280953034E+02  0.56733732058E+00 -0.31716360729E+01  0.43400714770E+02  0.00000000000E+00 0. -1.
         11    1    3    3    0    0 -0.40180161709E+02  0.43094836322E+01  0.52441394117E+00  0.40414008145E+02  0.51100000000E-03 0.  1.
        -11    1    3    3    0    0  0.79969390093E+00 -0.33884131471E+00  0.57106382798E+00  0.10394411616E+01  0.51100000000E-03 0. -1.
        -12    1    3    3    0    0 -0.39004852264E+01 -0.45379796380E+01  0.20761583038E+01  0.63338359230E+01  0.00000000000E+00 0.  1.
</event>
<event>
 7    1  0.1246400E-009  0.4778727E+02  0.7816164E-02  0.1312668E+00
        -11   -1    0    0    0    0  0.00000000000E+00  0.00000000000E+00  0.45593999997E+02  0.45594000000E+02  0.51100000000E-03 0. -1.
         11   -1    0    0    0    0 -0.00000000000E+00 -0.00000000000E+00 -0.45593999997E+02  0.45594000000E+02  0.51100000000E-03 0.  1.
    9900012    2    1    2    0    0  0.39235240973E+00  0.74619844551E+01 -0.42752637932E+02  0.47787271866E+02  0.20000003746E+02 0.  0.
         12    1    1    2    0    0 -0.39235240973E+00 -0.74619844551E+01  0.42752637932E+02  0.43400728134E+02  0.00000000000E+00 0. -1.
         11    1    3    3    0    0 -0.36010107623E+01 -0.99571441249E+00 -0.13827568952E+01  0.39838100600E+01  0.51100000000E-03 0. -1.
        -11    1    3    3    0    0  0.14408229246E+00  0.98843048325E+01 -0.24021607870E+02  0.25976102222E+02  0.51100000000E-03 0.  1.
         12    1    3    3    0    0  0.38492808796E+01 -0.14266059649E+01 -0.17348273167E+02  0.17827359584E+02  0.00000000000E+00 0. -1.
</event>
<event>
 7    1  0.1246400E-009  0.4778727E+02  0.7816164E-02  0.1312668E+00
        -11   -1    0    0    0    0  0.00000000000E+00  0.00000000000E+00  0.45593999997E+02  0.45594000000E+02  0.51100000000E-03 0.  1.
         11   -1    0    0    0    0 -0.00000000000E+00 -0.00000000000E+00 -0.45593999997E+02  0.45594000000E+02  0.51100000000E-03 0. -1.
    9900012    2    1    2    0    0  0.38997018627E+02 -0.11716121984E+02  0.15019590849E+02  0.47787273216E+02  0.20000009899E+02 0.  0.
         12    1    1    2    0    0 -0.38997018627E+02  0.11716121984E+02 -0.15019590849E+02  0.43400726784E+02  0.00000000000E+00 0. -1.
         11    1    3    3    0    0  0.20995879330E+02 -0.89489218474E+01  0.15260805935E+02  0.27455461189E+02  0.51100000000E-03 0.  1.
        -11    1    3    3    0    0  0.63981234734E+01  0.29185643633E+01  0.17783322799E+01  0.72537209681E+01  0.51100000000E-03 0. -1.
        -12    1    3    3    0    0  0.11603015824E+02 -0.56857644999E+01 -0.20195473668E+01  0.13078091058E+02  0.00000000000E+00 0.  1.
</event>
<event>
 7    1  0.1246400E-009  0.4778728E+02  0.7816164E-02  0.1312668E+00
        -11   -1    0    0    0    0  0.00000000000E+00  0.00000000000E+00  0.45593999997E+02  0.45594000000E+02  0.51100000000E-03 0.  1.
         11   -1    0    0    0    0 -0.00000000000E+00 -0.00000000000E+00 -0.45593999997E+02  0.45594000000E+02  0.51100000000E-03 0. -1.
    9900012    2    1    2    0    0 -0.10957691042E+02  0.24683741765E+02  0.33974471310E+02  0.47787276489E+02  0.20000024822E+02 0.  0.
         12    1    1    2    0    0  0.10957691042E+02 -0.24683741765E+02 -0.33974471310E+02  0.43400723511E+02  0.00000000000E+00 0. -1.
         11    1    3    3    0    0 -0.32776533719E+01  0.16000590293E+01  0.15283059871E+01  0.39546074363E+01  0.51100000000E-03 0.  1.
        -11    1    3    3    0    0 -0.19381599833E+01  0.23466283698E+02  0.27836187386E+02  0.36459241122E+02  0.51100000000E-03 0. -1.
         12    1    3    3    0    0 -0.57418776868E+01 -0.38260096217E+00  0.46099779370E+01  0.73734279305E+01  0.00000000000E+00 0. -1.
</event>
<event>
 7    1  0.1246400E-009  0.4778728E+02  0.7816164E-02  0.1312668E+00
        -11   -1    0    0    0    0  0.00000000000E+00  0.00000000000E+00  0.45593999997E+02  0.45594000000E+02  0.51100000000E-03 0.  1.
         11   -1    0    0    0    0 -0.00000000000E+00 -0.00000000000E+00 -0.45593999997E+02  0.45594000000E+02  0.51100000000E-03 0. -1.
    9900012    2    1    2    0    0  0.31294175820E+02 -0.18232206840E+02  0.23914098183E+02  0.47787275370E+02  0.20000019720E+02 0.  0.
         12    1    1    2    0    0 -0.31294175820E+02  0.18232206840E+02 -0.23914098183E+02  0.43400724630E+02  0.00000000000E+00 0. -1.
         11    1    3    3    0    0 -0.66197153602E+00 -0.73319650619E+01  0.43831999891E+01  0.85678679021E+01  0.51100000000E-03 0. -1.
        -11    1    3    3    0    0  0.16881955391E+02 -0.72632244953E+01  0.12264097825E+02  0.22094409782E+02  0.51100000000E-03 0.  1.
         12    1    3    3    0    0  0.15074191965E+02 -0.36370172828E+01  0.72668003692E+01  0.17124997685E+02  0.00000000000E+00 0. -1.
</event>
<event>
 7    1  0.1246400E-009  0.4778727E+02  0.7816164E-02  0.1312668E+00
        -11   -1    0    0    0    0  0.00000000000E+00  0.00000000000E+00  0.45593999997E+02  0.45594000000E+02  0.51100000000E-03 0. -1.
         11   -1    0    0    0    0 -0.00000000000E+00 -0.00000000000E+00 -0.45593999997E+02  0.45594000000E+02  0.51100000000E-03 0.  1.
    9900012    2    1    2    0    0 -0.33001406694E+02  0.27257303526E+02 -0.71812315840E+01  0.47787268136E+02  0.19999986738E+02 0.  0.
         12    1    1    2    0    0  0.33001406694E+02 -0.27257303526E+02  0.71812315840E+01  0.43400731864E+02  0.00000000000E+00 0. -1.
         11    1    3    3    0    0 -0.45809730227E+01 -0.21454785573E+01 -0.25286613020E+01  0.56553090381E+01  0.51100000000E-03 0. -1.
        -11    1    3    3    0    0 -0.53281456135E+01  0.10724977149E+02 -0.32015128692E+01  0.12396126630E+02  0.51100000000E-03 0.  1.
         12    1    3    3    0    0 -0.23092288058E+02  0.18677804935E+02 -0.14510574128E+01  0.29735832467E+02  0.00000000000E+00 0. -1.
</event>
<event>
 7    1  0.1246400E-009  0.4778727E+02  0.7816164E-02  0.1312668E+00
        -11   -1    0    0    0    0  0.00000000000E+00  0.00000000000E+00  0.45593999997E+02  0.45594000000E+02  0.51100000000E-03 0.  1.
         11   -1    0    0    0    0 -0.00000000000E+00 -0.00000000000E+00 -0.45593999997E+02  0.45594000000E+02  0.51100000000E-03 0. -1.
    9900012    2    1    2    0    0  0.29942366740E+02 -0.18635696764E+02  0.25294044133E+02  0.47787272028E+02  0.20000004483E+02 0.  0.
         12    1    1    2    0    0 -0.29942366740E+02  0.18635696764E+02 -0.25294044133E+02  0.43400727972E+02  0.00000000000E+00 0. -1.
         11    1    3    3    0    0  0.11921933907E+02 -0.34882435627E+01  0.27039916842E+01  0.12712667797E+02  0.51100000000E-03 0. -1.
        -11    1    3    3    0    0  0.14454014057E+02 -0.79403668114E+01  0.21288135820E+02  0.26928658980E+02  0.51100000000E-03 0.  1.
         12    1    3    3    0    0  0.35664187762E+01 -0.72070863902E+01  0.13019166286E+01  0.81459452509E+01  0.00000000000E+00 0. -1.
</event>
<event>
 7    1  0.1246400E-009  0.4778727E+02  0.7816164E-02  0.1312668E+00
        -11   -1    0    0    0    0  0.00000000000E+00  0.00000000000E+00  0.45593999997E+02  0.45594000000E+02  0.51100000000E-03 0.  1.
         11   -1    0    0    0    0 -0.00000000000E+00 -0.00000000000E+00 -0.45593999997E+02  0.45594000000E+02  0.51100000000E-03 0. -1.
    9900012    2    1    2    0    0 -0.17127444334E+02 -0.24269834647E+02  0.31642520442E+02  0.47787270476E+02  0.19999997410E+02 0.  0.
         12    1    1    2    0    0  0.17127444334E+02  0.24269834647E+02 -0.31642520442E+02  0.43400729524E+02  0.00000000000E+00 0. -1.
         11    1    3    3    0    0 -0.10938108505E+02 -0.23013736373E+01  0.11951823232E+02  0.16364125919E+02  0.51100000000E-03 0. -1.
        -11    1    3    3    0    0  0.22563070845E+01 -0.37496248163E+01  0.29307340324E+01  0.52668596101E+01  0.51100000000E-03 0.  1.
        -12    1    3    3    0    0 -0.84456429144E+01 -0.18218836194E+02  0.16759963178E+02  0.26156284947E+02  0.00000000000E+00 0.  1.
</event>
<event>
 7    1  0.1246400E-009  0.4778726E+02  0.7816164E-02  0.1312668E+00
        -11   -1    0    0    0    0  0.00000000000E+00  0.00000000000E+00  0.45593999997E+02  0.45594000000E+02  0.51100000000E-03 0.  1.
         11   -1    0    0    0    0 -0.00000000000E+00 -0.00000000000E+00 -0.45593999997E+02  0.45594000000E+02  0.51100000000E-03 0. -1.
    9900012    2    1    2    0    0  0.11765088337E+02 -0.26954242375E+02  0.31916706346E+02  0.47787255426E+02  0.19999928790E+02 0.  0.
         12    1    1    2    0    0 -0.11765088337E+02  0.26954242375E+02 -0.31916706346E+02  0.43400744574E+02  0.00000000000E+00 0. -1.
         11    1    3    3    0    0  0.53462396320E+01 -0.11995434108E+02  0.47828936477E+01  0.13976723134E+02  0.51100000000E-03 0. -1.
        -11    1    3    3    0    0  0.97053341239E+01 -0.84558857438E+01  0.16727781732E+02  0.21107207208E+02  0.51100000000E-03 0.  1.
         12    1    3    3    0    0 -0.32864854189E+01 -0.65029225226E+01  0.10406030966E+02  0.12703325085E+02  0.00000000000E+00 0. -1.
</event>
<event>
 7    1  0.1246400E-009  0.4778727E+02  0.7816164E-02  0.1312668E+00
        -11   -1    0    0    0    0  0.00000000000E+00  0.00000000000E+00  0.45593999997E+02  0.45594000000E+02  0.51100000000E-03 0.  1.
         11   -1    0    0    0    0 -0.00000000000E+00 -0.00000000000E+00 -0.45593999997E+02  0.45594000000E+02  0.51100000000E-03 0. -1.
    9900012    2    1    2    0    0  0.18614276414E+02 -0.10925408797E+01  0.39191049018E+02  0.47787271261E+02  0.20000000985E+02 0.  0.
         12    1    1    2    0    0 -0.18614276414E+02  0.10925408797E+01 -0.39191049018E+02  0.43400728739E+02  0.00000000000E+00 0. -1.
         11    1    3    3    0    0 -0.15403864892E+01 -0.43856464062E+01  0.77166426106E+01  0.90085103306E+01  0.51100000000E-03 0. -1.
        -11    1    3    3    0    0  0.11914675221E+02  0.77726644885E+00  0.25892965097E+02  0.28513317424E+02  0.51100000000E-03 0.  1.
        -12    1    3    3    0    0  0.82399876829E+01  0.25158390777E+01  0.55814413106E+01  0.10265443506E+02  0.00000000000E+00 0.  1.
</event>
<event>
 7    1  0.1455636E-009  0.4778726E+02  0.7816164E-02  0.1312668E+00
        -11   -1    0    0    0    0  0.00000000000E+00  0.00000000000E+00  0.45593999997E+02  0.45594000000E+02  0.51100000000E-03 0.  1.
         11   -1    0    0    0    0 -0.00000000000E+00 -0.00000000000E+00 -0.45593999997E+02  0.45594000000E+02  0.51100000000E-03 0. -1.
    9900012    2    1    2    0    0 -0.15937246679E+02  0.40257945984E+02 -0.29876658229E+01  0.47787260448E+02  0.19999951687E+02 0.  0.
         12    1    1    2    0    0  0.15937246679E+02 -0.40257945984E+02  0.29876658229E+01  0.43400739552E+02  0.00000000000E+00 0. -1.
         11    1    3    3    0    0 -0.31418830468E+01  0.79031961654E+01 -0.65752704557E+01  0.10750168396E+02  0.51100000000E-03 0. -1.
        -11    1    3    3    0    0 -0.27395383290E+01  0.22645497209E+02  0.10829179677E+01  0.22836294044E+02  0.51100000000E-03 0.  1.
        -12    1    3    3    0    0 -0.10055825304E+02  0.97092526098E+01  0.25046866651E+01  0.14200798008E+02  0.00000000000E+00 0.  1.
</event>
<event>
 7    1  0.1246400E-009  0.4778727E+02  0.7816164E-02  0.1312668E+00
        -11   -1    0    0    0    0  0.00000000000E+00  0.00000000000E+00  0.45593999997E+02  0.45594000000E+02  0.51100000000E-03 0.  1.
         11   -1    0    0    0    0 -0.00000000000E+00 -0.00000000000E+00 -0.45593999997E+02  0.45594000000E+02  0.51100000000E-03 0. -1.
    9900012    2    1    2    0    0 -0.36048060318E+02 -0.22891450386E+02  0.77551198457E+01  0.47787273770E+02  0.20000012428E+02 0.  0.
         12    1    1    2    0    0  0.36048060318E+02  0.22891450386E+02 -0.77551198457E+01  0.43400726230E+02  0.00000000000E+00 0. -1.
         11    1    3    3    0    0 -0.22231816704E+02 -0.19941386878E+02  0.63495689968E+01  0.30532435398E+02  0.51100000000E-03 0. -1.
        -11    1    3    3    0    0 -0.10587358511E+02 -0.63080059220E+01  0.22292769922E+01  0.12524087796E+02  0.51100000000E-03 0.  1.
        -12    1    3    3    0    0 -0.32288851027E+01  0.33579424140E+01 -0.82372614332E+00  0.47307505770E+01  0.00000000000E+00 0.  1.
</event>
<event>
 7    1  0.1246400E-009  0.4778728E+02  0.7816164E-02  0.1312668E+00
        -11   -1    0    0    0    0  0.00000000000E+00  0.00000000000E+00  0.45593999997E+02  0.45594000000E+02  0.51100000000E-03 0.  1.
         11   -1    0    0    0    0 -0.00000000000E+00 -0.00000000000E+00 -0.45593999997E+02  0.45594000000E+02  0.51100000000E-03 0. -1.
    9900012    2    1    2    0    0 -0.22450042807E+02 -0.27990349399E+02  0.24416360799E+02  0.47787277009E+02  0.20000027193E+02 0.  0.
         12    1    1    2    0    0  0.22450042807E+02  0.27990349399E+02 -0.24416360799E+02  0.43400722991E+02  0.00000000000E+00 0. -1.
         11    1    3    3    0    0  0.19125551601E+01 -0.21367393839E+01 -0.15795576021E+00  0.28720154454E+01  0.51100000000E-03 0. -1.
        -11    1    3    3    0    0 -0.84979400303E+00 -0.66553310078E+01  0.75954090755E+01  0.10134387991E+02  0.51100000000E-03 0.  1.
         12    1    3    3    0    0 -0.23512803964E+02 -0.19198279007E+02  0.16978907484E+02  0.34780873572E+02  0.00000000000E+00 0. -1.
</event>
<event>
 7    1  0.1246400E-009  0.4778727E+02  0.7816164E-02  0.1312668E+00
        -11   -1    0    0    0    0  0.00000000000E+00  0.00000000000E+00  0.45593999997E+02  0.45594000000E+02  0.51100000000E-03 0.  1.
         11   -1    0    0    0    0 -0.00000000000E+00 -0.00000000000E+00 -0.45593999997E+02  0.45594000000E+02  0.51100000000E-03 0. -1.
    9900012    2    1    2    0    0 -0.28341328399E+02 -0.26576715752E+02  0.19340908868E+02  0.47787268769E+02  0.19999989624E+02 0.  0.
         12    1    1    2    0    0  0.28341328399E+02  0.26576715752E+02 -0.19340908868E+02  0.43400731231E+02  0.00000000000E+00 0. -1.
         11    1    3    3    0    0  0.67975983803E+00  0.88894007404E-01 -0.61274519659E+00  0.91947404477E+00  0.51100000000E-03 0. -1.
        -11    1    3    3    0    0 -0.26290089993E+02 -0.18536827840E+02  0.20711686966E+02  0.38259074681E+02  0.51100000000E-03 0.  1.
        -12    1    3    3    0    0 -0.27309982439E+01 -0.81287819197E+01 -0.75803290097E+00  0.86087200433E+01  0.00000000000E+00 0.  1.
</event>
<event>
 7    1  0.1246400E-009  0.4778727E+02  0.7816164E-02  0.1312668E+00
        -11   -1    0    0    0    0  0.00000000000E+00  0.00000000000E+00  0.45593999997E+02  0.45594000000E+02  0.51100000000E-03 0.  1.
         11   -1    0    0    0    0 -0.00000000000E+00 -0.00000000000E+00 -0.45593999997E+02  0.45594000000E+02  0.51100000000E-03 0. -1.
    9900012    2    1    2    0    0 -0.34707158859E+02  0.82406144453E+01  0.24721021048E+02  0.47787268622E+02  0.19999988955E+02 0.  0.
         12    1    1    2    0    0  0.34707158859E+02 -0.82406144453E+01 -0.24721021048E+02  0.43400731378E+02  0.00000000000E+00 0. -1.
         11    1    3    3    0    0 -0.67248535946E+01  0.56716334635E+01  0.61480280782E+01  0.10732629292E+02  0.51100000000E-03 0. -1.
        -11    1    3    3    0    0 -0.23743290835E+02 -0.31864320364E+01  0.10177602899E+02  0.26028461534E+02  0.51100000000E-03 0.  1.
        -12    1    3    3    0    0 -0.42390144293E+01  0.57554130182E+01  0.83953900705E+01  0.11026177795E+02  0.00000000000E+00 0.  1.
</event>
<event>
 7    1  0.1246400E-009  0.4778721E+02  0.7816164E-02  0.1312668E+00
        -11   -1    0    0    0    0  0.00000000000E+00  0.00000000000E+00  0.45593999997E+02  0.45594000000E+02  0.51100000000E-03 0.  1.
         11   -1    0    0    0    0 -0.00000000000E+00 -0.00000000000E+00 -0.45593999997E+02  0.45594000000E+02  0.51100000000E-03 0. -1.
    9900012    2    1    2    0    0  0.30989513055E+02  0.70620659006E+00  0.30377287808E+02  0.47787213582E+02  0.19999738005E+02 0.  0.
         12    1    1    2    0    0 -0.30989513055E+02 -0.70620659006E+00 -0.30377287808E+02  0.43400786418E+02  0.00000000000E+00 0. -1.
         11    1    3    3    0    0  0.20884591941E+01  0.39376599821E+01  0.30744263275E+01  0.54146953234E+01  0.51100000000E-03 0. -1.
        -11    1    3    3    0    0  0.21542648510E+01 -0.27702529622E+01  0.97876341715E+01  0.10397737324E+02  0.51100000000E-03 0.  1.
        -12    1    3    3    0    0  0.26746789010E+02 -0.46120042986E+00  0.17515227309E+02  0.31974780935E+02  0.00000000000E+00 0.  1.
</event>
<event>
 7    1  0.1246400E-009  0.4778727E+02  0.7816164E-02  0.1312668E+00
        -11   -1    0    0    0    0  0.00000000000E+00  0.00000000000E+00  0.45593999997E+02  0.45594000000E+02  0.51100000000E-03 0.  1.
         11   -1    0    0    0    0 -0.00000000000E+00 -0.00000000000E+00 -0.45593999997E+02  0.45594000000E+02  0.51100000000E-03 0. -1.
    9900012    2    1    2    0    0 -0.20208918593E+01  0.29506708438E+02  0.31763078677E+02  0.47787274040E+02  0.20000013660E+02 0.  0.
         12    1    1    2    0    0  0.20208918593E+01 -0.29506708438E+02 -0.31763078677E+02  0.43400725960E+02  0.00000000000E+00 0. -1.
         11    1    3    3    0    0  0.36660309643E+01  0.14019657428E+01 -0.41257711209E+00  0.39465822061E+01  0.51100000000E-03 0.  1.
        -11    1    3    3    0    0 -0.42974066432E+01  0.13191547693E+02  0.10088605578E+02  0.17154142274E+02  0.51100000000E-03 0. -1.
        -12    1    3    3    0    0 -0.13895161803E+01  0.14913195003E+02  0.22087050211E+02  0.26686549560E+02  0.00000000000E+00 0.  1.
</event>
<event>
 7    1  0.1246400E-009  0.4778727E+02  0.7816164E-02  0.1312668E+00
        -11   -1    0    0    0    0  0.00000000000E+00  0.00000000000E+00  0.45593999997E+02  0.45594000000E+02  0.51100000000E-03 0.  1.
         11   -1    0    0    0    0 -0.00000000000E+00 -0.00000000000E+00 -0.45593999997E+02  0.45594000000E+02  0.51100000000E-03 0. -1.
    9900012    2    1    2    0    0  0.19675031977E+02 -0.10137091527E+02  0.37333037243E+02  0.47787272152E+02  0.20000005049E+02 0.  0.
         12    1    1    2    0    0 -0.19675031977E+02  0.10137091527E+02 -0.37333037243E+02  0.43400727848E+02  0.00000000000E+00 0. -1.
         11    1    3    3    0    0  0.10971128639E+01  0.28940963670E+01  0.76145294271E+01  0.82195200027E+01  0.51100000000E-03 0. -1.
        -11    1    3    3    0    0  0.35762176734E+01 -0.96898459614E+01  0.85510204129E+01  0.13409041650E+02  0.51100000000E-03 0.  1.
        -12    1    3    3    0    0  0.15001701440E+02 -0.33413419330E+01  0.21167487403E+02  0.26158710499E+02  0.00000000000E+00 0.  1.
</event>
<event>
 7    1  0.1246400E-009  0.4778728E+02  0.7816164E-02  0.1312668E+00
        -11   -1    0    0    0    0  0.00000000000E+00  0.00000000000E+00  0.45593999997E+02  0.45594000000E+02  0.51100000000E-03 0.  1.
         11   -1    0    0    0    0 -0.00000000000E+00 -0.00000000000E+00 -0.45593999997E+02  0.45594000000E+02  0.51100000000E-03 0. -1.
    9900012    2    1    2    0    0 -0.26285638645E+02  0.10908118289E+02  0.32767370993E+02  0.47787280589E+02  0.20000043519E+02 0.  0.
         12    1    1    2    0    0  0.26285638645E+02 -0.10908118289E+02 -0.32767370993E+02  0.43400719411E+02  0.00000000000E+00 0. -1.
         11    1    3    3    0    0 -0.56636717743E+01  0.64259161164E+01  0.20685808955E+01  0.88118444768E+01  0.51100000000E-03 0. -1.
        -11    1    3    3    0    0 -0.77883953755E+01 -0.36622591136E+01  0.87122309210E+01  0.12246395887E+02  0.51100000000E-03 0.  1.
        -12    1    3    3    0    0 -0.12833571495E+02  0.81444612863E+01  0.21986559177E+02  0.26729040226E+02  0.00000000000E+00 0.  1.
</event>
<event>
 7    1  0.1246400E-009  0.4778727E+02  0.7816164E-02  0.1312668E+00
        -11   -1    0    0    0    0  0.00000000000E+00  0.00000000000E+00  0.45593999997E+02  0.45594000000E+02  0.51100000000E-03 0.  1.
         11   -1    0    0    0    0 -0.00000000000E+00 -0.00000000000E+00 -0.45593999997E+02  0.45594000000E+02  0.51100000000E-03 0. -1.
    9900012    2    1    2    0    0  0.28611681685E+02  0.20829724059E+02  0.25122053813E+02  0.47787270501E+02  0.19999997524E+02 0.  0.
         12    1    1    2    0    0 -0.28611681685E+02 -0.20829724059E+02 -0.25122053813E+02  0.43400729499E+02  0.00000000000E+00 0. -1.
         11    1    3    3    0    0  0.18188516320E+02  0.10770463810E+02  0.82049594125E+01  0.22674796048E+02  0.51100000000E-03 0. -1.
        -11    1    3    3    0    0 -0.77163136542E+00 -0.19704934938E+01  0.22031644108E+01  0.30548638685E+01  0.51100000000E-03 0.  1.
         12    1    3    3    0    0  0.11194796730E+02  0.12029753743E+02  0.14713929990E+02  0.22057610584E+02  0.00000000000E+00 0. -1.
</event>
<event>
 7    1  0.1246400E-009  0.4778727E+02  0.7816164E-02  0.1312668E+00
        -11   -1    0    0    0    0  0.00000000000E+00  0.00000000000E+00  0.45593999997E+02  0.45594000000E+02  0.51100000000E-03 0.  1.
         11   -1    0    0    0    0 -0.00000000000E+00 -0.00000000000E+00 -0.45593999997E+02  0.45594000000E+02  0.51100000000E-03 0. -1.
    9900012    2    1    2    0    0  0.18499216804E+02  0.22021816967E+02  0.32502949619E+02  0.47787272139E+02  0.20000004991E+02 0.  0.
         12    1    1    2    0    0 -0.18499216804E+02 -0.22021816967E+02 -0.32502949619E+02  0.43400727861E+02  0.00000000000E+00 0. -1.
         11    1    3    3    0    0 -0.13976647963E+01  0.93150229918E+00  0.10082272097E+02  0.10221221762E+02  0.51100000000E-03 0. -1.
        -11    1    3    3    0    0  0.96443803504E+01  0.11008525218E+02  0.16390262117E+02  0.21973674985E+02  0.51100000000E-03 0.  1.
         12    1    3    3    0    0  0.10252501250E+02  0.10081789450E+02  0.60304154054E+01  0.15592375392E+02  0.00000000000E+00 0. -1.
</event>
<event>
 7    1  0.1246400E-009  0.4778726E+02  0.7816164E-02  0.1312668E+00
        -11   -1    0    0    0    0  0.00000000000E+00  0.00000000000E+00  0.45593999997E+02  0.45594000000E+02  0.51100000000E-03 0.  1.
         11   -1    0    0    0    0 -0.00000000000E+00 -0.00000000000E+00 -0.45593999997E+02  0.45594000000E+02  0.51100000000E-03 0. -1.
    9900012    2    1    2    0    0 -0.12828505840E+02  0.36194217283E+02  0.20224537219E+02  0.47787264608E+02  0.19999970655E+02 0.  0.
         12    1    1    2    0    0  0.12828505840E+02 -0.36194217283E+02 -0.20224537219E+02  0.43400735392E+02  0.00000000000E+00 0. -1.
         11    1    3    3    0    0  0.11520815954E+01  0.24032865579E+00 -0.12658243464E+01  0.17283985079E+01  0.51100000000E-03 0. -1.
        -11    1    3    3    0    0  0.22480465720E+00  0.14423280153E+02  0.42678480638E+01  0.15043140459E+02  0.51100000000E-03 0.  1.
        -12    1    3    3    0    0 -0.14205392092E+02  0.21530608474E+02  0.17222513501E+02  0.31015725642E+02  0.00000000000E+00 0.  1.
</event>
<event>
 7    1  0.1246400E-009  0.4778727E+02  0.7816164E-02  0.1312668E+00
        -11   -1    0    0    0    0  0.00000000000E+00  0.00000000000E+00  0.45593999997E+02  0.45594000000E+02  0.51100000000E-03 0.  1.
         11   -1    0    0    0    0 -0.00000000000E+00 -0.00000000000E+00 -0.45593999997E+02  0.45594000000E+02  0.51100000000E-03 0. -1.
    9900012    2    1    2    0    0  0.19096445731E+02  0.18293432339E+02  0.34413648636E+02  0.47787272832E+02  0.20000008150E+02 0.  0.
         12    1    1    2    0    0 -0.19096445731E+02 -0.18293432339E+02 -0.34413648636E+02  0.43400727168E+02  0.00000000000E+00 0. -1.
         11    1    3    3    0    0  0.39366425265E+01  0.51214941336E-01  0.11027624895E+02  0.11709324850E+02  0.51100000000E-03 0. -1.
        -11    1    3    3    0    0  0.54218663283E+01 -0.12255169830E+01  0.33312470798E+01  0.64804115398E+01  0.51100000000E-03 0.  1.
        -12    1    3    3    0    0  0.97379368758E+01  0.19467734381E+02  0.20054776661E+02  0.29597536442E+02  0.00000000000E+00 0.  1.
</event>
<event>
 7    1  0.1246400E-009  0.4778727E+02  0.7816164E-02  0.1312668E+00
        -11   -1    0    0    0    0  0.00000000000E+00  0.00000000000E+00  0.45593999997E+02  0.45594000000E+02  0.51100000000E-03 0.  1.
         11   -1    0    0    0    0 -0.00000000000E+00 -0.00000000000E+00 -0.45593999997E+02  0.45594000000E+02  0.51100000000E-03 0. -1.
    9900012    2    1    2    0    0  0.13154733937E+02  0.51637885580E+01  0.41035487913E+02  0.47787274137E+02  0.20000014099E+02 0.  0.
         12    1    1    2    0    0 -0.13154733937E+02 -0.51637885580E+01 -0.41035487913E+02  0.43400725863E+02  0.00000000000E+00 0. -1.
         11    1    3    3    0    0  0.25679349710E+00  0.34743171723E+01  0.28586671335E+01  0.45065286813E+01  0.51100000000E-03 0. -1.
        -11    1    3    3    0    0  0.16527518480E+02  0.21571672198E+01  0.32534964100E+02  0.36555931486E+02  0.51100000000E-03 0.  1.
        -12    1    3    3    0    0 -0.36295780402E+01 -0.46769583409E+00  0.56418566788E+01  0.67248139697E+01  0.00000000000E+00 0.  1.
</event>
<event>
 7    1  0.1246400E-009  0.4778727E+02  0.7816164E-02  0.1312668E+00
        -11   -1    0    0    0    0  0.00000000000E+00  0.00000000000E+00  0.45593999997E+02  0.45594000000E+02  0.51100000000E-03 0. -1.
         11   -1    0    0    0    0 -0.00000000000E+00 -0.00000000000E+00 -0.45593999997E+02  0.45594000000E+02  0.51100000000E-03 0.  1.
    9900012    2    1    2    0    0 -0.32549442121E+02 -0.22280883464E+02 -0.18103022058E+02  0.47787270075E+02  0.19999995581E+02 0.  0.
         12    1    1    2    0    0  0.32549442121E+02  0.22280883464E+02  0.18103022058E+02  0.43400729925E+02  0.00000000000E+00 0. -1.
         11    1    3    3    0    0 -0.94684363569E+01 -0.76442166228E+01 -0.21911539142E+01  0.12364727678E+02  0.51100000000E-03 0. -1.
        -11    1    3    3    0    0 -0.10085195204E+02 -0.50516814587E+01 -0.15626059092E+02  0.19271854371E+02  0.51100000000E-03 0.  1.
        -12    1    3    3    0    0 -0.12995810560E+02 -0.95849853830E+01 -0.28580905138E+00  0.16150688026E+02  0.00000000000E+00 0.  1.
</event>
<event>
 7    1  0.1246400E-009  0.4778727E+02  0.7816164E-02  0.1312668E+00
        -11   -1    0    0    0    0  0.00000000000E+00  0.00000000000E+00  0.45593999997E+02  0.45594000000E+02  0.51100000000E-03 0.  1.
         11   -1    0    0    0    0 -0.00000000000E+00 -0.00000000000E+00 -0.45593999997E+02  0.45594000000E+02  0.51100000000E-03 0. -1.
    9900012    2    1    2    0    0  0.36096123894E+02  0.15871238394E+02  0.18132759244E+02  0.47787270443E+02  0.19999997256E+02 0.  0.
         12    1    1    2    0    0 -0.36096123894E+02 -0.15871238394E+02 -0.18132759244E+02  0.43400729557E+02  0.00000000000E+00 0. -1.
         11    1    3    3    0    0  0.88795761735E+00  0.92234528021E+00  0.31272101442E+01  0.33791467996E+01  0.51100000000E-03 0.  1.
        -11    1    3    3    0    0  0.10438191347E+02 -0.39100465285E-01 -0.22863223228E+01  0.10685721196E+02  0.51100000000E-03 0. -1.
         12    1    3    3    0    0  0.24769974930E+02  0.14987993579E+02  0.17291871422E+02  0.33722402447E+02  0.00000000000E+00 0. -1.
</event>
<event>
 7    1  0.1246400E-009  0.4778723E+02  0.7816164E-02  0.1312668E+00
        -11   -1    0    0    0    0  0.00000000000E+00  0.00000000000E+00  0.45593999997E+02  0.45594000000E+02  0.51100000000E-03 0. -1.
         11   -1    0    0    0    0 -0.00000000000E+00 -0.00000000000E+00 -0.45593999997E+02  0.45594000000E+02  0.51100000000E-03 0.  1.
    9900012    2    1    2    0    0  0.16833922753E+02  0.16786862282E+02 -0.36310430528E+02  0.47787227360E+02  0.19999800826E+02 0.  0.
         12    1    1    2    0    0 -0.16833922753E+02 -0.16786862282E+02  0.36310430528E+02  0.43400772640E+02  0.00000000000E+00 0. -1.
         11    1    3    3    0    0  0.41401768003E+01  0.13105569940E+02 -0.19906173730E+02  0.24189931381E+02  0.51100000000E-03 0. -1.
        -11    1    3    3    0    0  0.42571165255E+01  0.28451396106E+01  0.12853609549E-01  0.51203540885E+01  0.51100000000E-03 0.  1.
         12    1    3    3    0    0  0.84366294274E+01  0.83615273184E+00 -0.16417110408E+02  0.18476941891E+02  0.00000000000E+00 0. -1.
</event>
<event>
 7    1  0.1246400E-009  0.4778726E+02  0.7816164E-02  0.1312668E+00
        -11   -1    0    0    0    0  0.00000000000E+00  0.00000000000E+00  0.45593999997E+02  0.45594000000E+02  0.51100000000E-03 0. -1.
         11   -1    0    0    0    0 -0.00000000000E+00 -0.00000000000E+00 -0.45593999997E+02  0.45594000000E+02  0.51100000000E-03 0.  1.
    9900012    2    1    2    0    0  0.34212510337E+02  0.39843470765E+01 -0.26405557947E+02  0.47787258351E+02  0.19999942127E+02 0.  0.
         12    1    1    2    0    0 -0.34212510337E+02 -0.39843470765E+01  0.26405557947E+02  0.43400741649E+02  0.00000000000E+00 0. -1.
         11    1    3    3    0    0  0.60298633859E+01 -0.38552284246E+01 -0.44570284553E+01  0.84313190884E+01  0.51100000000E-03 0. -1.
        -11    1    3    3    0    0  0.27896758253E+02  0.61096813981E+01 -0.15135483467E+02  0.32320893983E+02  0.51100000000E-03 0.  1.
         12    1    3    3    0    0  0.28588869737E+00  0.17298941029E+01 -0.68130460243E+01  0.70350452795E+01  0.00000000000E+00 0. -1.
</event>
<event>
 7    1  0.1246400E-009  0.4778727E+02  0.7816164E-02  0.1312668E+00
        -11   -1    0    0    0    0  0.00000000000E+00  0.00000000000E+00  0.45593999997E+02  0.45594000000E+02  0.51100000000E-03 0.  1.
         11   -1    0    0    0    0 -0.00000000000E+00 -0.00000000000E+00 -0.45593999997E+02  0.45594000000E+02  0.51100000000E-03 0. -1.
    9900012    2    1    2    0    0 -0.23722268538E+02 -0.11928247967E+02  0.34330660794E+02  0.47787269652E+02  0.19999993653E+02 0.  0.
         12    1    1    2    0    0  0.23722268538E+02  0.11928247967E+02 -0.34330660794E+02  0.43400730348E+02  0.00000000000E+00 0. -1.
         11    1    3    3    0    0 -0.36432679486E+01 -0.33216075386E+01 -0.84901483901E+00  0.50027296992E+01  0.51100000000E-03 0. -1.
        -11    1    3    3    0    0 -0.75564402651E+01  0.20141122817E+01  0.13301155976E+02  0.15429750105E+02  0.51100000000E-03 0.  1.
         12    1    3    3    0    0 -0.12522560324E+02 -0.10620752710E+02  0.21878519657E+02  0.27354789848E+02  0.00000000000E+00 0. -1.
</event>
<event>
 7    1  0.1246400E-009  0.4778728E+02  0.7816164E-02  0.1312668E+00
        -11   -1    0    0    0    0  0.00000000000E+00  0.00000000000E+00  0.45593999997E+02  0.45594000000E+02  0.51100000000E-03 0. -1.
         11   -1    0    0    0    0 -0.00000000000E+00 -0.00000000000E+00 -0.45593999997E+02  0.45594000000E+02  0.51100000000E-03 0.  1.
    9900012    2    1    2    0    0 -0.42374148012E+02  0.36757541002E+01 -0.86338441769E+01  0.47787275891E+02  0.20000022095E+02 0.  0.
         12    1    1    2    0    0  0.42374148012E+02 -0.36757541002E+01  0.86338441769E+01  0.43400724109E+02  0.00000000000E+00 0. -1.
         11    1    3    3    0    0 -0.90272805659E+01  0.19277514702E+01  0.35031805664E+01  0.98732109513E+01  0.51100000000E-03 0. -1.
        -11    1    3    3    0    0 -0.14398590261E+01  0.30070041223E+01  0.85265608832E+00  0.34412629183E+01  0.51100000000E-03 0.  1.
        -12    1    3    3    0    0 -0.31907008420E+02 -0.12590014922E+01 -0.12989680832E+02  0.34472802021E+02  0.00000000000E+00 0.  1.
</event>
<event>
 7    1  0.1872503E-009  0.4778727E+02  0.7816164E-02  0.1312668E+00
        -11   -1    0    0    0    0  0.00000000000E+00  0.00000000000E+00  0.45593999997E+02  0.45594000000E+02  0.51100000000E-03 0. -1.
         11   -1    0    0    0    0 -0.00000000000E+00 -0.00000000000E+00 -0.45593999997E+02  0.45594000000E+02  0.51100000000E-03 0.  1.
    9900012    2    1    2    0    0  0.36329899893E+01 -0.85540150516E+01 -0.42394027262E+02  0.47787270314E+02  0.19999996672E+02 0.  0.
         12    1    1    2    0    0 -0.36329899893E+01  0.85540150516E+01  0.42394027262E+02  0.43400729686E+02  0.00000000000E+00 0. -1.
         11    1    3    3    0    0 -0.21357178639E+01  0.16784447422E+01 -0.56362512994E+01  0.62566601728E+01  0.51100000000E-03 0. -1.
        -11    1    3    3    0    0  0.35040540420E+01 -0.12498390456E+02 -0.35957364661E+02  0.38228526421E+02  0.51100000000E-03 0.  1.
        -12    1    3    3    0    0  0.22646538111E+01  0.22659306618E+01 -0.80041130183E+00  0.33020837210E+01  0.00000000000E+00 0.  1.
</event>
<event>
 7    1  0.1246400E-009  0.4778727E+02  0.7816164E-02  0.1312668E+00
        -11   -1    0    0    0    0  0.00000000000E+00  0.00000000000E+00  0.45593999997E+02  0.45594000000E+02  0.51100000000E-03 0.  1.
         11   -1    0    0    0    0 -0.00000000000E+00 -0.00000000000E+00 -0.45593999997E+02  0.45594000000E+02  0.51100000000E-03 0. -1.
    9900012    2    1    2    0    0 -0.38126344619E+01  0.28374714662E+02  0.32618441833E+02  0.47787270037E+02  0.19999995406E+02 0.  0.
         12    1    1    2    0    0  0.38126344619E+01 -0.28374714662E+02 -0.32618441833E+02  0.43400729963E+02  0.00000000000E+00 0. -1.
         11    1    3    3    0    0 -0.13268258822E+01  0.48928074869E+01  0.10111912647E+02  0.11311534364E+02  0.51100000000E-03 0. -1.
        -11    1    3    3    0    0  0.18141375292E+01  0.21017568103E+02  0.23328126901E+02  0.31452039185E+02  0.51100000000E-03 0.  1.
         12    1    3    3    0    0 -0.42999461089E+01  0.24643390726E+01 -0.82159771384E+00  0.50236964884E+01  0.00000000000E+00 0. -1.
</event>
<event>
 7    1  0.1246400E-009  0.4778727E+02  0.7816164E-02  0.1312668E+00
        -11   -1    0    0    0    0  0.00000000000E+00  0.00000000000E+00  0.45593999997E+02  0.45594000000E+02  0.51100000000E-03 0.  1.
         11   -1    0    0    0    0 -0.00000000000E+00 -0.00000000000E+00 -0.45593999997E+02  0.45594000000E+02  0.51100000000E-03 0. -1.
    9900012    2    1    2    0    0 -0.18293386411E+02 -0.26435714519E+01  0.39268143910E+02  0.47787267489E+02  0.19999983788E+02 0.  0.
         12    1    1    2    0    0  0.18293386411E+02  0.26435714519E+01 -0.39268143910E+02  0.43400732511E+02  0.00000000000E+00 0. -1.
         11    1    3    3    0    0 -0.11326785924E+00  0.31304234582E+01  0.13562054079E+00  0.31354064853E+01  0.51100000000E-03 0. -1.
        -11    1    3    3    0    0 -0.12783421399E+02 -0.36907490201E+01  0.16012745733E+02  0.20819354389E+02  0.51100000000E-03 0.  1.
        -12    1    3    3    0    0 -0.53966971528E+01 -0.20832458900E+01  0.23119777636E+02  0.23832506614E+02  0.00000000000E+00 0.  1.
</event>
<event>
 7    1  0.1246400E-009  0.4778728E+02  0.7816164E-02  0.1312668E+00
        -11   -1    0    0    0    0  0.00000000000E+00  0.00000000000E+00  0.45593999997E+02  0.45594000000E+02  0.51100000000E-03 0.  1.
         11   -1    0    0    0    0 -0.00000000000E+00 -0.00000000000E+00 -0.45593999997E+02  0.45594000000E+02  0.51100000000E-03 0. -1.
    9900012    2    1    2    0    0  0.60153072611E+01  0.23833271975E+02  0.35768898261E+02  0.47787275843E+02  0.20000021881E+02 0.  0.
         12    1    1    2    0    0 -0.60153072611E+01 -0.23833271975E+02 -0.35768898261E+02  0.43400724157E+02  0.00000000000E+00 0. -1.
         11    1    3    3    0    0  0.67121808766E+01  0.26170006130E+01  0.16439274987E+02  0.17948588431E+02  0.51100000000E-03 0. -1.
        -11    1    3    3    0    0  0.15900018559E+01  0.13838661978E+02  0.16545154993E+02  0.21628195145E+02  0.51100000000E-03 0.  1.
         12    1    3    3    0    0 -0.22868754713E+01  0.73776093848E+01  0.27844682814E+01  0.82104922670E+01  0.00000000000E+00 0. -1.
</event>
<event>
 7    1  0.1246400E-009  0.4778726E+02  0.7816164E-02  0.1312668E+00
        -11   -1    0    0    0    0  0.00000000000E+00  0.00000000000E+00  0.45593999997E+02  0.45594000000E+02  0.51100000000E-03 0.  1.
         11   -1    0    0    0    0 -0.00000000000E+00 -0.00000000000E+00 -0.45593999997E+02  0.45594000000E+02  0.51100000000E-03 0. -1.
    9900012    2    1    2    0    0  0.32000753966E+02 -0.25262666064E+02  0.14878618308E+02  0.47787264594E+02  0.19999970590E+02 0.  0.
         12    1    1    2    0    0 -0.32000753966E+02  0.25262666064E+02 -0.14878618308E+02  0.43400735406E+02  0.00000000000E+00 0. -1.
         11    1    3    3    0    0  0.64723456443E+01  0.33399992493E+00  0.38865765294E+01  0.75570028099E+01  0.51100000000E-03 0. -1.
        -11    1    3    3    0    0  0.24147981365E+02 -0.24937838813E+02  0.13538229650E+02  0.37259958011E+02  0.51100000000E-03 0.  1.
        -12    1    3    3    0    0  0.13804269565E+01 -0.65882717554E+00 -0.25461878712E+01  0.29703037732E+01  0.00000000000E+00 0.  1.
</event>
<event>
 7    1  0.1246400E-009  0.4778727E+02  0.7816164E-02  0.1312668E+00
        -11   -1    0    0    0    0  0.00000000000E+00  0.00000000000E+00  0.45593999997E+02  0.45594000000E+02  0.51100000000E-03 0.  1.
         11   -1    0    0    0    0 -0.00000000000E+00 -0.00000000000E+00 -0.45593999997E+02  0.45594000000E+02  0.51100000000E-03 0. -1.
    9900012    2    1    2    0    0  0.36805740620E+02 -0.27813377636E+01  0.22830353564E+02  0.47787269289E+02  0.19999991998E+02 0.  0.
         12    1    1    2    0    0 -0.36805740620E+02  0.27813377636E+01 -0.22830353564E+02  0.43400730711E+02  0.00000000000E+00 0. -1.
         11    1    3    3    0    0  0.31199408650E+01 -0.73499087694E+00 -0.13712828745E+01  0.34863533345E+01  0.51100000000E-03 0. -1.
        -11    1    3    3    0    0  0.21381603134E+02 -0.18748386496E+01  0.23715199262E+02  0.31985913288E+02  0.51100000000E-03 0.  1.
        -12    1    3    3    0    0  0.12304196621E+02 -0.17150823711E+00  0.48643717663E+00  0.12315002667E+02  0.00000000000E+00 0.  1.
</event>
<event>
 7    1  0.1246400E-009  0.4778727E+02  0.7816164E-02  0.1312668E+00
        -11   -1    0    0    0    0  0.00000000000E+00  0.00000000000E+00  0.45593999997E+02  0.45594000000E+02  0.51100000000E-03 0.  1.
         11   -1    0    0    0    0 -0.00000000000E+00 -0.00000000000E+00 -0.45593999997E+02  0.45594000000E+02  0.51100000000E-03 0. -1.
    9900012    2    1    2    0    0  0.28935268012E+02  0.16586061571E+02  0.27771855719E+02  0.47787272547E+02  0.20000006850E+02 0.  0.
         12    1    1    2    0    0 -0.28935268012E+02 -0.16586061571E+02 -0.27771855719E+02  0.43400727453E+02  0.00000000000E+00 0. -1.
         11    1    3    3    0    0  0.15468631654E+02  0.13119525539E+02  0.19216690885E+02  0.27940682247E+02  0.51100000000E-03 0. -1.
        -11    1    3    3    0    0  0.90675541034E+01  0.62265970945E+01  0.95405607814E+01  0.14560678181E+02  0.51100000000E-03 0.  1.
         12    1    3    3    0    0  0.43990822550E+01 -0.27600610627E+01 -0.98539594741E+00  0.52859121189E+01  0.00000000000E+00 0. -1.
</event>
<event>
 7    1  0.1246400E-009  0.4778729E+02  0.7816164E-02  0.1312668E+00
        -11   -1    0    0    0    0  0.00000000000E+00  0.00000000000E+00  0.45593999997E+02  0.45594000000E+02  0.51100000000E-03 0. -1.
         11   -1    0    0    0    0 -0.00000000000E+00 -0.00000000000E+00 -0.45593999997E+02  0.45594000000E+02  0.51100000000E-03 0.  1.
    9900012    2    1    2    0    0  0.18301096456E+02 -0.37537860794E+02 -0.11815284038E+02  0.47787285013E+02  0.20000063689E+02 0.  0.
         12    1    1    2    0    0 -0.18301096456E+02  0.37537860794E+02  0.11815284038E+02  0.43400714987E+02  0.00000000000E+00 0. -1.
         11    1    3    3    0    0  0.17016076564E+01 -0.17393966880E+02 -0.89491754569E+01  0.19635001759E+02  0.51100000000E-03 0. -1.
        -11    1    3    3    0    0  0.43946892994E+01 -0.10570006108E+02  0.25396170627E+01  0.11725526779E+02  0.51100000000E-03 0.  1.
         12    1    3    3    0    0  0.12204799501E+02 -0.95738878057E+01 -0.54057256439E+01  0.16426756476E+02  0.00000000000E+00 0. -1.
</event>
<event>
 7    1  0.1246400E-009  0.4778728E+02  0.7816164E-02  0.1312668E+00
        -11   -1    0    0    0    0  0.00000000000E+00  0.00000000000E+00  0.45593999997E+02  0.45594000000E+02  0.51100000000E-03 0. -1.
         11   -1    0    0    0    0 -0.00000000000E+00 -0.00000000000E+00 -0.45593999997E+02  0.45594000000E+02  0.51100000000E-03 0.  1.
    9900012    2    1    2    0    0  0.35074196137E+02 -0.40616808772E+01 -0.25237397054E+02  0.47787277699E+02  0.20000030339E+02 0.  0.
         12    1    1    2    0    0 -0.35074196137E+02  0.40616808772E+01  0.25237397054E+02  0.43400722301E+02  0.00000000000E+00 0. -1.
         11    1    3    3    0    0  0.10390610584E+02 -0.73727546161E+00 -0.82859074206E+00  0.10449637616E+02  0.51100000000E-03 0. -1.
        -11    1    3    3    0    0  0.21018302387E+02 -0.77750877413E+01 -0.20497222287E+02  0.30370333327E+02  0.51100000000E-03 0.  1.
         12    1    3    3    0    0  0.36652831656E+01  0.44506823258E+01 -0.39115840247E+01  0.69673067559E+01  0.00000000000E+00 0. -1.
</event>
<event>
 7    1  0.1246400E-009  0.4778727E+02  0.7816164E-02  0.1312668E+00
        -11   -1    0    0    0    0  0.00000000000E+00  0.00000000000E+00  0.45593999997E+02  0.45594000000E+02  0.51100000000E-03 0.  1.
         11   -1    0    0    0    0 -0.00000000000E+00 -0.00000000000E+00 -0.45593999997E+02  0.45594000000E+02  0.51100000000E-03 0. -1.
    9900012    2    1    2    0    0 -0.11154173806E+02 -0.35976785888E+02  0.21561044860E+02  0.47787269919E+02  0.19999994867E+02 0.  0.
         12    1    1    2    0    0  0.11154173806E+02  0.35976785888E+02 -0.21561044860E+02  0.43400730081E+02  0.00000000000E+00 0. -1.
         11    1    3    3    0    0 -0.40766588778E+01 -0.11612144128E+02  0.12128923058E+01  0.12366573772E+02  0.51100000000E-03 0. -1.
        -11    1    3    3    0    0 -0.75029494575E+01 -0.79433877254E+01  0.14117365425E+02  0.17851937315E+02  0.51100000000E-03 0.  1.
         12    1    3    3    0    0  0.42543452894E+00 -0.16421254035E+02  0.62307871300E+01  0.17568758831E+02  0.00000000000E+00 0. -1.
</event>
<event>
 7    1  0.1246400E-009  0.4778727E+02  0.7816164E-02  0.1312668E+00
        -11   -1    0    0    0    0  0.00000000000E+00  0.00000000000E+00  0.45593999997E+02  0.45594000000E+02  0.51100000000E-03 0.  1.
         11   -1    0    0    0    0 -0.00000000000E+00 -0.00000000000E+00 -0.45593999997E+02  0.45594000000E+02  0.51100000000E-03 0. -1.
    9900012    2    1    2    0    0  0.26808919641E+02  0.18043995061E+02  0.28971008393E+02  0.47787271234E+02  0.20000000866E+02 0.  0.
         12    1    1    2    0    0 -0.26808919641E+02 -0.18043995061E+02 -0.28971008393E+02  0.43400728766E+02  0.00000000000E+00 0. -1.
         11    1    3    3    0    0  0.44987998420E+01  0.21972146363E+01 -0.69380173085E+00  0.50545339329E+01  0.51100000000E-03 0.  1.
        -11    1    3    3    0    0 -0.13655167188E+01  0.23151672038E+01  0.37554858679E+00  0.27139771725E+01  0.51100000000E-03 0. -1.
        -12    1    3    3    0    0  0.23675636518E+02  0.13531613221E+02  0.29289261537E+02  0.40018760129E+02  0.00000000000E+00 0.  1.
</event>
<event>
 7    1  0.1246400E-009  0.4778728E+02  0.7816164E-02  0.1312668E+00
        -11   -1    0    0    0    0  0.00000000000E+00  0.00000000000E+00  0.45593999997E+02  0.45594000000E+02  0.51100000000E-03 0. -1.
         11   -1    0    0    0    0 -0.00000000000E+00 -0.00000000000E+00 -0.45593999997E+02  0.45594000000E+02  0.51100000000E-03 0.  1.
    9900012    2    1    2    0    0 -0.37875201016E+02  0.20287383995E+02 -0.61248645130E+01  0.47787276888E+02  0.20000026643E+02 0.  0.
         12    1    1    2    0    0  0.37875201016E+02 -0.20287383995E+02  0.61248645130E+01  0.43400723112E+02  0.00000000000E+00 0. -1.
         11    1    3    3    0    0 -0.36017023505E+02  0.17723995521E+02 -0.57043522223E+01  0.40545106165E+02  0.51100000000E-03 0.  1.
        -11    1    3    3    0    0 -0.27052691866E+01 -0.11815453593E+01  0.10463118328E+01  0.31319801277E+01  0.51100000000E-03 0. -1.
         12    1    3    3    0    0  0.84709167584E+00  0.37449338329E+01 -0.14668241235E+01  0.41101905952E+01  0.00000000000E+00 0. -1.
</event>
<event>
 7    1  0.1246400E-009  0.4778727E+02  0.7816164E-02  0.1312668E+00
        -11   -1    0    0    0    0  0.00000000000E+00  0.00000000000E+00  0.45593999997E+02  0.45594000000E+02  0.51100000000E-03 0. -1.
         11   -1    0    0    0    0 -0.00000000000E+00 -0.00000000000E+00 -0.45593999997E+02  0.45594000000E+02  0.51100000000E-03 0.  1.
    9900012    2    1    2    0    0 -0.79516042067E+01 -0.27764222230E+02 -0.32396652977E+02  0.47787272245E+02  0.20000005474E+02 0.  0.
         12    1    1    2    0    0  0.79516042067E+01  0.27764222230E+02  0.32396652977E+02  0.43400727755E+02  0.00000000000E+00 0. -1.
         11    1    3    3    0    0 -0.30727941093E+01 -0.11116060718E+02 -0.40655198955E+01  0.12228545368E+02  0.51100000000E-03 0. -1.
        -11    1    3    3    0    0  0.42455117476E+01 -0.70248308103E+01 -0.11572812666E+02  0.14188115138E+02  0.51100000000E-03 0.  1.
         12    1    3    3    0    0 -0.91243218451E+01 -0.96233307017E+01 -0.16758320416E+02  0.21370611739E+02  0.00000000000E+00 0. -1.
</event>
<event>
 7    1  0.1246400E-009  0.4778727E+02  0.7816164E-02  0.1312668E+00
        -11   -1    0    0    0    0  0.00000000000E+00  0.00000000000E+00  0.45593999997E+02  0.45594000000E+02  0.51100000000E-03 0. -1.
         11   -1    0    0    0    0 -0.00000000000E+00 -0.00000000000E+00 -0.45593999997E+02  0.45594000000E+02  0.51100000000E-03 0.  1.
    9900012    2    1    2    0    0 -0.82008521818E+01  0.32949175856E+02 -0.27031855363E+02  0.47787269932E+02  0.19999994927E+02 0.  0.
         12    1    1    2    0    0  0.82008521818E+01 -0.32949175856E+02  0.27031855363E+02  0.43400730068E+02  0.00000000000E+00 0. -1.
         11    1    3    3    0    0 -0.64339350306E+01  0.56794609706E+01 -0.14110568042E+02  0.16515445124E+02  0.51100000000E-03 0. -1.
        -11    1    3    3    0    0  0.22174383409E+01  0.11175717948E+02 -0.81846994742E+01  0.14028649621E+02  0.51100000000E-03 0.  1.
        -12    1    3    3    0    0 -0.39843554921E+01  0.16093996938E+02 -0.47365878468E+01  0.17243175187E+02  0.00000000000E+00 0.  1.
</event>
<event>
 7    1  0.1246400E-009  0.4778727E+02  0.7816164E-02  0.1312668E+00
        -11   -1    0    0    0    0  0.00000000000E+00  0.00000000000E+00  0.45593999997E+02  0.45594000000E+02  0.51100000000E-03 0.  1.
         11   -1    0    0    0    0 -0.00000000000E+00 -0.00000000000E+00 -0.45593999997E+02  0.45594000000E+02  0.51100000000E-03 0. -1.
    9900012    2    1    2    0    0 -0.24471583920E+02 -0.14103325450E+02  0.32952405978E+02  0.47787271112E+02  0.20000000307E+02 0.  0.
         12    1    1    2    0    0  0.24471583920E+02  0.14103325450E+02 -0.32952405978E+02  0.43400728888E+02  0.00000000000E+00 0. -1.
         11    1    3    3    0    0 -0.42150724633E+01  0.11684876907E+01  0.67614523221E+00  0.44259882502E+01  0.51100000000E-03 0. -1.
        -11    1    3    3    0    0 -0.40612760318E+01  0.23228929533E+01  0.29921232169E+01  0.55536111032E+01  0.51100000000E-03 0.  1.
        -12    1    3    3    0    0 -0.16195235425E+02 -0.17594706094E+02  0.29284137529E+02  0.37807671758E+02  0.00000000000E+00 0.  1.
</event>
<event>
 7    1  0.1246400E-009  0.4778728E+02  0.7816164E-02  0.1312668E+00
        -11   -1    0    0    0    0  0.00000000000E+00  0.00000000000E+00  0.45593999997E+02  0.45594000000E+02  0.51100000000E-03 0.  1.
         11   -1    0    0    0    0 -0.00000000000E+00 -0.00000000000E+00 -0.45593999997E+02  0.45594000000E+02  0.51100000000E-03 0. -1.
    9900012    2    1    2    0    0  0.34863242305E+02  0.12188180383E+02  0.22795291605E+02  0.47787277374E+02  0.20000028859E+02 0.  0.
         12    1    1    2    0    0 -0.34863242305E+02 -0.12188180383E+02 -0.22795291605E+02  0.43400722626E+02  0.00000000000E+00 0. -1.
         11    1    3    3    0    0  0.89535350682E+01 -0.35502162585E+01  0.55491956232E+01  0.11115907432E+02  0.51100000000E-03 0. -1.
        -11    1    3    3    0    0  0.48608447538E+01 -0.88714017112E+00  0.31345236819E+00  0.49510687788E+01  0.51100000000E-03 0.  1.
        -12    1    3    3    0    0  0.21048862483E+02  0.16625536813E+02  0.16932643614E+02  0.31720301164E+02  0.00000000000E+00 0.  1.
</event>
<event>
 7    1  0.1246400E-009  0.4778727E+02  0.7816164E-02  0.1312668E+00
        -11   -1    0    0    0    0  0.00000000000E+00  0.00000000000E+00  0.45593999997E+02  0.45594000000E+02  0.51100000000E-03 0.  1.
         11   -1    0    0    0    0 -0.00000000000E+00 -0.00000000000E+00 -0.45593999997E+02  0.45594000000E+02  0.51100000000E-03 0. -1.
    9900012    2    1    2    0    0  0.86459429815E+01 -0.42518082290E+02  0.10408286388E+01  0.47787274477E+02  0.20000015653E+02 0.  0.
         12    1    1    2    0    0 -0.86459429815E+01  0.42518082290E+02 -0.10408286388E+01  0.43400725523E+02  0.00000000000E+00 0. -1.
         11    1    3    3    0    0  0.91915966905E+00  0.10759345227E+01 -0.31150778089E+00  0.14489744487E+01  0.51100000000E-03 0. -1.
        -11    1    3    3    0    0  0.62663492761E+01 -0.60782214224E+01  0.10500948935E+01  0.87928725941E+01  0.51100000000E-03 0.  1.
        -12    1    3    3    0    0  0.14604340363E+01 -0.37515795390E+02  0.30224152613E+00  0.37545427435E+02  0.00000000000E+00 0.  1.
</event>
<event>
 7    1  0.1533143E-009  0.4778727E+02  0.7816164E-02  0.1312668E+00
        -11   -1    0    0    0    0  0.00000000000E+00  0.00000000000E+00  0.45593999997E+02  0.45594000000E+02  0.51100000000E-03 0.  1.
         11   -1    0    0    0    0 -0.00000000000E+00 -0.00000000000E+00 -0.45593999997E+02  0.45594000000E+02  0.51100000000E-03 0. -1.
    9900012    2    1    2    0    0  0.24902588919E+02  0.32257555750E+02  0.14930988426E+02  0.47787271282E+02  0.20000001084E+02 0.  0.
         12    1    1    2    0    0 -0.24902588919E+02 -0.32257555750E+02 -0.14930988426E+02  0.43400728718E+02  0.00000000000E+00 0. -1.
         11    1    3    3    0    0  0.37654247104E+01  0.24532090544E+01 -0.15411679243E+01  0.47509848186E+01  0.51100000000E-03 0. -1.
        -11    1    3    3    0    0  0.66177018976E+01  0.18739009230E+02  0.14651718549E+02  0.24690429361E+02  0.51100000000E-03 0.  1.
        -12    1    3    3    0    0  0.14519462311E+02  0.11065337465E+02  0.18204378015E+01  0.18345857103E+02  0.00000000000E+00 0.  1.
</event>
<event>
 7    1  0.1246400E-009  0.4778727E+02  0.7816164E-02  0.1312668E+00
        -11   -1    0    0    0    0  0.00000000000E+00  0.00000000000E+00  0.45593999997E+02  0.45594000000E+02  0.51100000000E-03 0.  1.
         11   -1    0    0    0    0 -0.00000000000E+00 -0.00000000000E+00 -0.45593999997E+02  0.45594000000E+02  0.51100000000E-03 0. -1.
    9900012    2    1    2    0    0 -0.41403804578E+02  0.41514807084E+01  0.12333425923E+02  0.47787271658E+02  0.20000002798E+02 0.  0.
         12    1    1    2    0    0  0.41403804578E+02 -0.41514807084E+01 -0.12333425923E+02  0.43400728342E+02  0.00000000000E+00 0. -1.
         11    1    3    3    0    0 -0.54021073375E+01  0.17660599722E+01  0.50919474909E+01  0.76308361942E+01  0.51100000000E-03 0. -1.
        -11    1    3    3    0    0 -0.22861266988E+02  0.15097265663E+01 -0.34807704119E+01  0.23173963095E+02  0.51100000000E-03 0.  1.
         12    1    3    3    0    0 -0.13140430253E+02  0.87569416987E+00  0.10722248844E+02  0.16982472369E+02  0.00000000000E+00 0. -1.
</event>
<event>
 7    1  0.1246400E-009  0.4778727E+02  0.7816164E-02  0.1312668E+00
        -11   -1    0    0    0    0  0.00000000000E+00  0.00000000000E+00  0.45593999997E+02  0.45594000000E+02  0.51100000000E-03 0.  1.
         11   -1    0    0    0    0 -0.00000000000E+00 -0.00000000000E+00 -0.45593999997E+02  0.45594000000E+02  0.51100000000E-03 0. -1.
    9900012    2    1    2    0    0  0.21342586253E+02 -0.30337328581E+02  0.22533609167E+02  0.47787273791E+02  0.20000012521E+02 0.  0.
         12    1    1    2    0    0 -0.21342586253E+02  0.30337328581E+02 -0.22533609167E+02  0.43400726209E+02  0.00000000000E+00 0. -1.
         11    1    3    3    0    0 -0.15876078578E+01 -0.67372082879E+01  0.52338493885E+01  0.86777677952E+01  0.51100000000E-03 0. -1.
        -11    1    3    3    0    0  0.10236101057E+02 -0.94818453885E+01  0.14135105079E+02  0.19861630162E+02  0.51100000000E-03 0.  1.
        -12    1    3    3    0    0  0.12694093053E+02 -0.14118274904E+02  0.31646546996E+01  0.19247875833E+02  0.00000000000E+00 0.  1.
</event>
<event>
 7    1  0.1246400E-009  0.4778727E+02  0.7816164E-02  0.1312668E+00
        -11   -1    0    0    0    0  0.00000000000E+00  0.00000000000E+00  0.45593999997E+02  0.45594000000E+02  0.51100000000E-03 0.  1.
         11   -1    0    0    0    0 -0.00000000000E+00 -0.00000000000E+00 -0.45593999997E+02  0.45594000000E+02  0.51100000000E-03 0. -1.
    9900012    2    1    2    0    0  0.84901363867E+01 -0.30200520790E+02  0.29991155758E+02  0.47787270794E+02  0.19999998859E+02 0.  0.
         12    1    1    2    0    0 -0.84901363867E+01  0.30200520790E+02 -0.29991155758E+02  0.43400729206E+02  0.00000000000E+00 0. -1.
         11    1    3    3    0    0 -0.34482762136E+01 -0.13910678239E+02  0.10607368884E+02  0.17830138889E+02  0.51100000000E-03 0. -1.
        -11    1    3    3    0    0  0.22445248592E+01  0.13738349508E+01  0.15807608113E+01  0.30698728507E+01  0.51100000000E-03 0.  1.
        -12    1    3    3    0    0  0.96938877410E+01 -0.17663677502E+02  0.17803026063E+02  0.26887259054E+02  0.00000000000E+00 0.  1.
</event>
<event>
 7    1  0.1246400E-009  0.4778727E+02  0.7816164E-02  0.1312668E+00
        -11   -1    0    0    0    0  0.00000000000E+00  0.00000000000E+00  0.45593999997E+02  0.45594000000E+02  0.51100000000E-03 0.  1.
         11   -1    0    0    0    0 -0.00000000000E+00 -0.00000000000E+00 -0.45593999997E+02  0.45594000000E+02  0.51100000000E-03 0. -1.
    9900012    2    1    2    0    0  0.98133518035E+01 -0.41521733458E+02 -0.79540474755E+01  0.47787273114E+02  0.20000009435E+02 0.  0.
         12    1    1    2    0    0 -0.98133518035E+01  0.41521733458E+02  0.79540474755E+01  0.43400726886E+02  0.00000000000E+00 0. -1.
         11    1    3    3    0    0 -0.26857241936E+01 -0.86522559222E+01 -0.23143143667E+01  0.93504383981E+01  0.51100000000E-03 0. -1.
        -11    1    3    3    0    0  0.15226051002E+01 -0.22529865625E+02 -0.78406497329E+00  0.22594865114E+02  0.51100000000E-03 0.  1.
        -12    1    3    3    0    0  0.10976470897E+02 -0.10339611911E+02 -0.48556681355E+01  0.15841969602E+02  0.00000000000E+00 0.  1.
</event>
<event>
 7    1  0.1246400E-009  0.4778727E+02  0.7816164E-02  0.1312668E+00
        -11   -1    0    0    0    0  0.00000000000E+00  0.00000000000E+00  0.45593999997E+02  0.45594000000E+02  0.51100000000E-03 0. -1.
         11   -1    0    0    0    0 -0.00000000000E+00 -0.00000000000E+00 -0.45593999997E+02  0.45594000000E+02  0.51100000000E-03 0.  1.
    9900012    2    1    2    0    0 -0.25525358794E+02  0.31723370638E+01 -0.34957341499E+02  0.47787269722E+02  0.19999993969E+02 0.  0.
         12    1    1    2    0    0  0.25525358794E+02 -0.31723370638E+01  0.34957341499E+02  0.43400730278E+02  0.00000000000E+00 0. -1.
         11    1    3    3    0    0  0.12931072703E+01 -0.36522311703E+00 -0.74800718723E+01  0.75998019588E+01  0.51100000000E-03 0. -1.
        -11    1    3    3    0    0 -0.15362258453E+02 -0.29292717749E+01 -0.18676873504E+02  0.24359910140E+02  0.51100000000E-03 0.  1.
        -12    1    3    3    0    0 -0.11456207611E+02  0.64668319557E+01 -0.88003961233E+01  0.15827557622E+02  0.00000000000E+00 0.  1.
</event>
<event>
 7    1  0.1246400E-009  0.4778727E+02  0.7816164E-02  0.1312668E+00
        -11   -1    0    0    0    0  0.00000000000E+00  0.00000000000E+00  0.45593999997E+02  0.45594000000E+02  0.51100000000E-03 0.  1.
         11   -1    0    0    0    0 -0.00000000000E+00 -0.00000000000E+00 -0.45593999997E+02  0.45594000000E+02  0.51100000000E-03 0. -1.
    9900012    2    1    2    0    0  0.36977327943E+02 -0.21101578641E+02  0.84275546388E+01  0.47787273276E+02  0.20000010176E+02 0.  0.
         12    1    1    2    0    0 -0.36977327943E+02  0.21101578641E+02 -0.84275546388E+01  0.43400726724E+02  0.00000000000E+00 0. -1.
         11    1    3    3    0    0  0.31087561530E+02 -0.21530975678E+02  0.48441511513E+01  0.38124600931E+02  0.51100000000E-03 0.  1.
        -11    1    3    3    0    0  0.31575859421E+00 -0.23801845857E-01 -0.18431852030E+01  0.18701876834E+01  0.51100000000E-03 0. -1.
        -12    1    3    3    0    0  0.55740078194E+01  0.45319888260E+00  0.54265886905E+01  0.77924846623E+01  0.00000000000E+00 0.  1.
</event>
<event>
 7    1  0.1246400E-009  0.4778728E+02  0.7816164E-02  0.1312668E+00
        -11   -1    0    0    0    0  0.00000000000E+00  0.00000000000E+00  0.45593999997E+02  0.45594000000E+02  0.51100000000E-03 0. -1.
         11   -1    0    0    0    0 -0.00000000000E+00 -0.00000000000E+00 -0.45593999997E+02  0.45594000000E+02  0.51100000000E-03 0.  1.
    9900012    2    1    2    0    0 -0.38953286936E+02 -0.11635185277E+02 -0.15194944465E+02  0.47787280688E+02  0.20000043968E+02 0.  0.
         12    1    1    2    0    0  0.38953286936E+02  0.11635185277E+02  0.15194944465E+02  0.43400719312E+02  0.00000000000E+00 0. -1.
         11    1    3    3    0    0 -0.22845384366E+02 -0.19240018508E+01 -0.51602837137E+01  0.23499827621E+02  0.51100000000E-03 0. -1.
        -11    1    3    3    0    0 -0.16595598197E+02 -0.10938178461E+02 -0.71640388113E+01  0.21127732484E+02  0.51100000000E-03 0.  1.
        -12    1    3    3    0    0  0.48769562745E+00  0.12269950343E+01 -0.28706219399E+01  0.31597205828E+01  0.00000000000E+00 0.  1.
</event>
<event>
 7    1  0.1246400E-009  0.4778726E+02  0.7816164E-02  0.1312668E+00
        -11   -1    0    0    0    0  0.00000000000E+00  0.00000000000E+00  0.45593999997E+02  0.45594000000E+02  0.51100000000E-03 0.  1.
         11   -1    0    0    0    0 -0.00000000000E+00 -0.00000000000E+00 -0.45593999997E+02  0.45594000000E+02  0.51100000000E-03 0. -1.
    9900012    2    1    2    0    0  0.85920594927E+01 -0.31693177055E+02  0.28378566077E+02  0.47787263016E+02  0.19999963394E+02 0.  0.
         12    1    1    2    0    0 -0.85920594927E+01  0.31693177055E+02 -0.28378566077E+02  0.43400736984E+02  0.00000000000E+00 0. -1.
         11    1    3    3    0    0  0.47808944312E+01 -0.40458567499E+01  0.21471242096E+01  0.66208799291E+01  0.51100000000E-03 0. -1.
        -11    1    3    3    0    0  0.35066742206E+01 -0.29462156254E+02  0.25694370906E+02  0.39249409062E+02  0.51100000000E-03 0.  1.
        -12    1    3    3    0    0  0.30449084098E+00  0.18148359487E+01  0.53707096196E+00  0.19169740247E+01  0.00000000000E+00 0.  1.
</event>
<event>
 7    1  0.1246400E-009  0.4778727E+02  0.7816164E-02  0.1312668E+00
        -11   -1    0    0    0    0  0.00000000000E+00  0.00000000000E+00  0.45593999997E+02  0.45594000000E+02  0.51100000000E-03 0.  1.
         11   -1    0    0    0    0 -0.00000000000E+00 -0.00000000000E+00 -0.45593999997E+02  0.45594000000E+02  0.51100000000E-03 0. -1.
    9900012    2    1    2    0    0  0.56162319676E+01  0.87022622121E+01  0.42146788684E+02  0.47787271602E+02  0.20000002541E+02 0.  0.
         12    1    1    2    0    0 -0.56162319676E+01 -0.87022622121E+01 -0.42146788684E+02  0.43400728398E+02  0.00000000000E+00 0. -1.
         11    1    3    3    0    0  0.10400556890E+02  0.95744637009E+01  0.35656392426E+02  0.38356489149E+02  0.51100000000E-03 0.  1.
        -11    1    3    3    0    0 -0.76270617181E+00  0.89635128533E+00 -0.41359548117E+00  0.12474886029E+01  0.51100000000E-03 0. -1.
         12    1    3    3    0    0 -0.40216187506E+01 -0.17685527741E+01  0.69039917396E+01  0.81832938497E+01  0.00000000000E+00 0. -1.
</event>
<event>
 7    1  0.1246400E-009  0.4778727E+02  0.7816164E-02  0.1312668E+00
        -11   -1    0    0    0    0  0.00000000000E+00  0.00000000000E+00  0.45593999997E+02  0.45594000000E+02  0.51100000000E-03 0.  1.
         11   -1    0    0    0    0 -0.00000000000E+00 -0.00000000000E+00 -0.45593999997E+02  0.45594000000E+02  0.51100000000E-03 0. -1.
    9900012    2    1    2    0    0 -0.15494490327E+02 -0.78268845474E+01  0.39777934872E+02  0.47787268959E+02  0.19999990492E+02 0.  0.
         12    1    1    2    0    0  0.15494490327E+02  0.78268845474E+01 -0.39777934872E+02  0.43400731041E+02  0.00000000000E+00 0. -1.
         11    1    3    3    0    0 -0.10011301600E+02 -0.40656459403E+01  0.13876669148E+02  0.17587426859E+02  0.51100000000E-03 0.  1.
        -11    1    3    3    0    0  0.36771492498E+01 -0.11915419755E+01  0.17516775125E+01  0.42437687559E+01  0.51100000000E-03 0. -1.
         12    1    3    3    0    0 -0.91603379767E+01 -0.25696966315E+01  0.24149588212E+02  0.25956073344E+02  0.00000000000E+00 0. -1.
</event>
<event>
 7    1  0.1246400E-009  0.4778727E+02  0.7816164E-02  0.1312668E+00
        -11   -1    0    0    0    0  0.00000000000E+00  0.00000000000E+00  0.45593999997E+02  0.45594000000E+02  0.51100000000E-03 0.  1.
         11   -1    0    0    0    0 -0.00000000000E+00 -0.00000000000E+00 -0.45593999997E+02  0.45594000000E+02  0.51100000000E-03 0. -1.
    9900012    2    1    2    0    0  0.16483619085E+02  0.37874086583E+02  0.13321677401E+02  0.47787271649E+02  0.20000002757E+02 0.  0.
         12    1    1    2    0    0 -0.16483619085E+02 -0.37874086583E+02 -0.13321677401E+02  0.43400728351E+02  0.00000000000E+00 0. -1.
         11    1    3    3    0    0 -0.17736536491E+01  0.54108646568E+01  0.10064988793E+01  0.57824167833E+01  0.51100000000E-03 0. -1.
        -11    1    3    3    0    0  0.14247838185E+02  0.28886142958E+02  0.15515193871E+02  0.35750963471E+02  0.51100000000E-03 0.  1.
        -12    1    3    3    0    0  0.40094345485E+01  0.35770789681E+01 -0.32000153499E+01  0.62538913951E+01  0.00000000000E+00 0.  1.
</event>
<event>
 7    1  0.1246400E-009  0.4778727E+02  0.7816164E-02  0.1312668E+00
        -11   -1    0    0    0    0  0.00000000000E+00  0.00000000000E+00  0.45593999997E+02  0.45594000000E+02  0.51100000000E-03 0. -1.
         11   -1    0    0    0    0 -0.00000000000E+00 -0.00000000000E+00 -0.45593999997E+02  0.45594000000E+02  0.51100000000E-03 0.  1.
    9900012    2    1    2    0    0 -0.14470725950E+02  0.28028985484E+02 -0.29809350989E+02  0.47787270246E+02  0.19999996360E+02 0.  0.
         12    1    1    2    0    0  0.14470725950E+02 -0.28028985484E+02  0.29809350989E+02  0.43400729754E+02  0.00000000000E+00 0. -1.
         11    1    3    3    0    0 -0.21438539121E+01  0.50567138493E+01 -0.11491841577E+02  0.12736910444E+02  0.51100000000E-03 0. -1.
        -11    1    3    3    0    0 -0.15691629454E+02  0.18749335849E+02 -0.14343755631E+02  0.28346219423E+02  0.51100000000E-03 0.  1.
        -12    1    3    3    0    0  0.33647574164E+01  0.42229357859E+01 -0.39737537800E+01  0.67041403795E+01  0.00000000000E+00 0.  1.
</event>
<event>
 7    1  0.1246400E-009  0.4778727E+02  0.7816164E-02  0.1312668E+00
        -11   -1    0    0    0    0  0.00000000000E+00  0.00000000000E+00  0.45593999997E+02  0.45594000000E+02  0.51100000000E-03 0. -1.
         11   -1    0    0    0    0 -0.00000000000E+00 -0.00000000000E+00 -0.45593999997E+02  0.45594000000E+02  0.51100000000E-03 0.  1.
    9900012    2    1    2    0    0  0.25228187168E+02 -0.34357786605E+02 -0.81672899280E+01  0.47787267830E+02  0.19999985342E+02 0.  0.
         12    1    1    2    0    0 -0.25228187168E+02  0.34357786605E+02  0.81672899280E+01  0.43400732170E+02  0.00000000000E+00 0. -1.
         11    1    3    3    0    0  0.17406651445E+00 -0.21198542783E+01 -0.45606226985E+01  0.50322322057E+01  0.51100000000E-03 0. -1.
        -11    1    3    3    0    0  0.17347238734E+02 -0.22709716432E+02 -0.80989317957E+01  0.29702703726E+02  0.51100000000E-03 0.  1.
        -12    1    3    3    0    0  0.77068819188E+01 -0.95282158944E+01  0.44922645661E+01  0.13052331898E+02  0.00000000000E+00 0.  1.
</event>
<event>
 7    1  0.1246400E-009  0.4778726E+02  0.7816164E-02  0.1312668E+00
        -11   -1    0    0    0    0  0.00000000000E+00  0.00000000000E+00  0.45593999997E+02  0.45594000000E+02  0.51100000000E-03 0. -1.
         11   -1    0    0    0    0 -0.00000000000E+00 -0.00000000000E+00 -0.45593999997E+02  0.45594000000E+02  0.51100000000E-03 0.  1.
    9900012    2    1    2    0    0  0.97203216193E+01 -0.56295891487E+01 -0.41921915525E+02  0.47787263512E+02  0.19999965657E+02 0.  0.
         12    1    1    2    0    0 -0.97203216193E+01  0.56295891487E+01  0.41921915525E+02  0.43400736488E+02  0.00000000000E+00 0. -1.
         11    1    3    3    0    0  0.27733595205E+01 -0.17136794923E+01 -0.12803103813E+02  0.13211649706E+02  0.51100000000E-03 0. -1.
        -11    1    3    3    0    0  0.12145861872E+02 -0.27838821924E+01 -0.24676604361E+02  0.27644289893E+02  0.51100000000E-03 0.  1.
         12    1    3    3    0    0 -0.51988997733E+01 -0.11320274639E+01 -0.44422073513E+01  0.69313239128E+01  0.00000000000E+00 0. -1.
</event>
<event>
 7    1  0.1246400E-009  0.4778727E+02  0.7816164E-02  0.1312668E+00
        -11   -1    0    0    0    0  0.00000000000E+00  0.00000000000E+00  0.45593999997E+02  0.45594000000E+02  0.51100000000E-03 0.  1.
         11   -1    0    0    0    0 -0.00000000000E+00 -0.00000000000E+00 -0.45593999997E+02  0.45594000000E+02  0.51100000000E-03 0. -1.
    9900012    2    1    2    0    0 -0.21247183617E+02  0.37793073366E+02 -0.19657252718E+01  0.47787270952E+02  0.19999999578E+02 0.  0.
         12    1    1    2    0    0  0.21247183617E+02 -0.37793073366E+02  0.19657252718E+01  0.43400729048E+02  0.00000000000E+00 0. -1.
         11    1    3    3    0    0 -0.82844996124E+01  0.50690303933E+01 -0.22315460739E+01  0.99653299543E+01  0.51100000000E-03 0. -1.
        -11    1    3    3    0    0 -0.15196740692E+02  0.27281606107E+02  0.29258797782E+01  0.31365390675E+02  0.51100000000E-03 0.  1.
         12    1    3    3    0    0  0.22340566876E+01  0.54424368654E+01 -0.26600589761E+01  0.64565503230E+01  0.00000000000E+00 0. -1.
</event>
<event>
 7    1  0.1246400E-009  0.4778728E+02  0.7816164E-02  0.1312668E+00
        -11   -1    0    0    0    0  0.00000000000E+00  0.00000000000E+00  0.45593999997E+02  0.45594000000E+02  0.51100000000E-03 0.  1.
         11   -1    0    0    0    0 -0.00000000000E+00 -0.00000000000E+00 -0.45593999997E+02  0.45594000000E+02  0.51100000000E-03 0. -1.
    9900012    2    1    2    0    0 -0.74658418385E+01  0.39154975255E+02  0.17168918549E+02  0.47787278281E+02  0.20000032994E+02 0.  0.
         12    1    1    2    0    0  0.74658418385E+01 -0.39154975255E+02 -0.17168918549E+02  0.43400721719E+02  0.00000000000E+00 0. -1.
         11    1    3    3    0    0 -0.69815805737E+01  0.41400247899E+01  0.35967707749E+01  0.88780083823E+01  0.51100000000E-03 0. -1.
        -11    1    3    3    0    0 -0.42815314614E+01  0.14314355034E+02  0.25679563026E+01  0.15160035340E+02  0.51100000000E-03 0.  1.
        -12    1    3    3    0    0  0.37972701966E+01  0.20700595432E+02  0.11004191471E+02  0.23749234558E+02  0.00000000000E+00 0.  1.
</event>
<event>
 7    1  0.1246400E-009  0.4778727E+02  0.7816164E-02  0.1312668E+00
        -11   -1    0    0    0    0  0.00000000000E+00  0.00000000000E+00  0.45593999997E+02  0.45594000000E+02  0.51100000000E-03 0.  1.
         11   -1    0    0    0    0 -0.00000000000E+00 -0.00000000000E+00 -0.45593999997E+02  0.45594000000E+02  0.51100000000E-03 0. -1.
    9900012    2    1    2    0    0 -0.34766878292E+02 -0.11344588890E+02  0.23370663473E+02  0.47787269195E+02  0.19999991565E+02 0.  0.
         12    1    1    2    0    0  0.34766878292E+02  0.11344588890E+02 -0.23370663473E+02  0.43400730805E+02  0.00000000000E+00 0. -1.
         11    1    3    3    0    0 -0.45523658797E+01 -0.47568452427E+01  0.33575444517E+00  0.65927492804E+01  0.51100000000E-03 0. -1.
        -11    1    3    3    0    0 -0.27559585153E+02 -0.67503984724E+00  0.17349342197E+02  0.32572781390E+02  0.51100000000E-03 0.  1.
         12    1    3    3    0    0 -0.26549272601E+01 -0.59127038000E+01  0.56855668308E+01  0.86217385237E+01  0.00000000000E+00 0. -1.
</event>
<event>
 7    1  0.1246400E-009  0.4778727E+02  0.7816164E-02  0.1312668E+00
        -11   -1    0    0    0    0  0.00000000000E+00  0.00000000000E+00  0.45593999997E+02  0.45594000000E+02  0.51100000000E-03 0. -1.
         11   -1    0    0    0    0 -0.00000000000E+00 -0.00000000000E+00 -0.45593999997E+02  0.45594000000E+02  0.51100000000E-03 0.  1.
    9900012    2    1    2    0    0  0.83036144662E+01  0.39683087583E+02 -0.15489547320E+02  0.47787268099E+02  0.19999986571E+02 0.  0.
         12    1    1    2    0    0 -0.83036144662E+01 -0.39683087583E+02  0.15489547320E+02  0.43400731901E+02  0.00000000000E+00 0. -1.
         11    1    3    3    0    0 -0.34003009700E+01  0.99303249515E+00  0.19563105372E-02  0.35423388194E+01  0.51100000000E-03 0. -1.
        -11    1    3    3    0    0  0.74997024659E+01  0.16088550883E+02 -0.27546168588E+01  0.17963154536E+02  0.51100000000E-03 0.  1.
        -12    1    3    3    0    0  0.42042129703E+01  0.22601504205E+02 -0.12736886772E+02  0.26281774744E+02  0.00000000000E+00 0.  1.
</event>
<event>
 7    1  0.1246400E-009  0.4778727E+02  0.7816164E-02  0.1312668E+00
        -11   -1    0    0    0    0  0.00000000000E+00  0.00000000000E+00  0.45593999997E+02  0.45594000000E+02  0.51100000000E-03 0.  1.
         11   -1    0    0    0    0 -0.00000000000E+00 -0.00000000000E+00 -0.45593999997E+02  0.45594000000E+02  0.51100000000E-03 0. -1.
    9900012    2    1    2    0    0 -0.21190902444E+02 -0.19947711113E+02  0.32197165043E+02  0.47787274639E+02  0.20000016390E+02 0.  0.
         12    1    1    2    0    0  0.21190902444E+02  0.19947711113E+02 -0.32197165043E+02  0.43400725361E+02  0.00000000000E+00 0. -1.
         11    1    3    3    0    0 -0.20939339623E+01 -0.16739575533E+00  0.10188073753E+02  0.10402376067E+02  0.51100000000E-03 0. -1.
        -11    1    3    3    0    0 -0.20001972993E+02 -0.17712963806E+02  0.22663513328E+02  0.35035165863E+02  0.51100000000E-03 0.  1.
         12    1    3    3    0    0  0.90500451151E+00 -0.20673515518E+01 -0.65442203792E+00  0.23497327100E+01  0.00000000000E+00 0. -1.
</event>
<event>
 7    1  0.1246400E-009  0.4778727E+02  0.7816164E-02  0.1312668E+00
        -11   -1    0    0    0    0  0.00000000000E+00  0.00000000000E+00  0.45593999997E+02  0.45594000000E+02  0.51100000000E-03 0.  1.
         11   -1    0    0    0    0 -0.00000000000E+00 -0.00000000000E+00 -0.45593999997E+02  0.45594000000E+02  0.51100000000E-03 0. -1.
    9900012    2    1    2    0    0 -0.18330371367E+02  0.39335176321E+02 -0.60379127379E+00  0.47787272188E+02  0.20000005215E+02 0.  0.
         12    1    1    2    0    0  0.18330371367E+02 -0.39335176321E+02  0.60379127379E+00  0.43400727812E+02  0.00000000000E+00 0. -1.
         11    1    3    3    0    0 -0.62557849829E+01  0.98895928092E+01 -0.44200402364E+01  0.12509022649E+02  0.51100000000E-03 0. -1.
        -11    1    3    3    0    0 -0.35027438740E-01  0.50792103409E+01  0.61772631348E+01  0.79973861171E+01  0.51100000000E-03 0.  1.
        -12    1    3    3    0    0 -0.12039558946E+02  0.24366373171E+02 -0.23610141722E+01  0.27280863422E+02  0.00000000000E+00 0.  1.
</event>
<event>
 7    1  0.1246400E-009  0.4778727E+02  0.7816164E-02  0.1312668E+00
        -11   -1    0    0    0    0  0.00000000000E+00  0.00000000000E+00  0.45593999997E+02  0.45594000000E+02  0.51100000000E-03 0.  1.
         11   -1    0    0    0    0 -0.00000000000E+00 -0.00000000000E+00 -0.45593999997E+02  0.45594000000E+02  0.51100000000E-03 0. -1.
    9900012    2    1    2    0    0  0.19872723134E+02 -0.30957430352E+02  0.23029020165E+02  0.47787269723E+02  0.19999993976E+02 0.  0.
         12    1    1    2    0    0 -0.19872723134E+02  0.30957430352E+02 -0.23029020165E+02  0.43400730277E+02  0.00000000000E+00 0. -1.
         11    1    3    3    0    0  0.15887369918E+02 -0.18960069128E+02  0.16180846165E+02  0.29558628641E+02  0.51100000000E-03 0.  1.
        -11    1    3    3    0    0  0.51934592293E+01 -0.92738687535E+01 -0.14199550183E+00  0.10629996397E+02  0.51100000000E-03 0. -1.
        -12    1    3    3    0    0 -0.12081060132E+01 -0.27234924706E+01  0.69901695022E+01  0.75986446848E+01  0.00000000000E+00 0.  1.
</event>
<event>
 7    1  0.1246400E-009  0.4778727E+02  0.7816164E-02  0.1312668E+00
        -11   -1    0    0    0    0  0.00000000000E+00  0.00000000000E+00  0.45593999997E+02  0.45594000000E+02  0.51100000000E-03 0. -1.
         11   -1    0    0    0    0 -0.00000000000E+00 -0.00000000000E+00 -0.45593999997E+02  0.45594000000E+02  0.51100000000E-03 0.  1.
    9900012    2    1    2    0    0 -0.33004864044E+02  0.33455135021E+01 -0.27984101235E+02  0.47787269211E+02  0.19999991640E+02 0.  0.
         12    1    1    2    0    0  0.33004864044E+02 -0.33455135021E+01  0.27984101235E+02  0.43400730789E+02  0.00000000000E+00 0. -1.
         11    1    3    3    0    0 -0.17559621143E+01 -0.31295195833E+01 -0.15679855050E+01  0.39161045152E+01  0.51100000000E-03 0. -1.
        -11    1    3    3    0    0 -0.14521058186E+02  0.10190441603E+02 -0.15470833036E+02  0.23538328446E+02  0.51100000000E-03 0.  1.
         12    1    3    3    0    0 -0.16727843743E+02 -0.37154085173E+01 -0.10945282693E+02  0.20332836250E+02  0.00000000000E+00 0. -1.
</event>
<event>
 7    1  0.1246400E-009  0.4778727E+02  0.7816164E-02  0.1312668E+00
        -11   -1    0    0    0    0  0.00000000000E+00  0.00000000000E+00  0.45593999997E+02  0.45594000000E+02  0.51100000000E-03 0.  1.
         11   -1    0    0    0    0 -0.00000000000E+00 -0.00000000000E+00 -0.45593999997E+02  0.45594000000E+02  0.51100000000E-03 0. -1.
    9900012    2    1    2    0    0  0.37313177553E+02 -0.72262794825E+01  0.20955450571E+02  0.47787271401E+02  0.20000001626E+02 0.  0.
         12    1    1    2    0    0 -0.37313177553E+02  0.72262794825E+01 -0.20955450571E+02  0.43400728599E+02  0.00000000000E+00 0. -1.
         11    1    3    3    0    0  0.15096301600E+02 -0.59418087326E+01  0.23699732195E+01  0.16395736834E+02  0.51100000000E-03 0. -1.
        -11    1    3    3    0    0  0.23483789473E+02 -0.11545723093E+01  0.18794752664E+02  0.30100899209E+02  0.51100000000E-03 0.  1.
         12    1    3    3    0    0 -0.12669135195E+01 -0.12989844072E+00 -0.20927531247E+00  0.12906353579E+01  0.00000000000E+00 0. -1.
</event>
<event>
 7    1  0.1246400E-009  0.4778726E+02  0.7816164E-02  0.1312668E+00
        -11   -1    0    0    0    0  0.00000000000E+00  0.00000000000E+00  0.45593999997E+02  0.45594000000E+02  0.51100000000E-03 0. -1.
         11   -1    0    0    0    0 -0.00000000000E+00 -0.00000000000E+00 -0.45593999997E+02  0.45594000000E+02  0.51100000000E-03 0.  1.
    9900012    2    1    2    0    0 -0.63659693769E+01 -0.10908408816E+02 -0.41522343795E+02  0.47787262872E+02  0.19999962739E+02 0.  0.
         12    1    1    2    0    0  0.63659693769E+01  0.10908408816E+02  0.41522343795E+02  0.43400737128E+02  0.00000000000E+00 0. -1.
         11    1    3    3    0    0  0.25346773993E+01  0.39353995738E+01 -0.13449976394E+02  0.14241271874E+02  0.51100000000E-03 0. -1.
        -11    1    3    3    0    0 -0.50023776250E+01 -0.28904110495E+01 -0.82236230076E+01  0.10050185748E+02  0.51100000000E-03 0.  1.
        -12    1    3    3    0    0 -0.38982691512E+01 -0.11953397340E+02 -0.19848744393E+02  0.23495805250E+02  0.00000000000E+00 0.  1.
</event>
<event>
 7    1  0.1246400E-009  0.4778727E+02  0.7816164E-02  0.1312668E+00
        -11   -1    0    0    0    0  0.00000000000E+00  0.00000000000E+00  0.45593999997E+02  0.45594000000E+02  0.51100000000E-03 0.  1.
         11   -1    0    0    0    0 -0.00000000000E+00 -0.00000000000E+00 -0.45593999997E+02  0.45594000000E+02  0.51100000000E-03 0. -1.
    9900012    2    1    2    0    0  0.90266621673E+01 -0.37066020406E+02  0.20694271902E+02  0.47787269728E+02  0.19999993997E+02 0.  0.
         12    1    1    2    0    0 -0.90266621673E+01  0.37066020406E+02 -0.20694271902E+02  0.43400730272E+02  0.00000000000E+00 0. -1.
         11    1    3    3    0    0  0.36699339595E+01 -0.12075737609E+01  0.15365451105E+01  0.41578384761E+01  0.51100000000E-03 0. -1.
        -11    1    3    3    0    0  0.19243746992E+01 -0.31970001258E+02  0.20799640160E+02  0.38189124492E+02  0.51100000000E-03 0.  1.
         12    1    3    3    0    0  0.34323535085E+01 -0.38884453866E+01 -0.16419133682E+01  0.54403067598E+01  0.00000000000E+00 0. -1.
</event>
<event>
 7    1  0.1246400E-009  0.4778727E+02  0.7816164E-02  0.1312668E+00
        -11   -1    0    0    0    0  0.00000000000E+00  0.00000000000E+00  0.45593999997E+02  0.45594000000E+02  0.51100000000E-03 0.  1.
         11   -1    0    0    0    0 -0.00000000000E+00 -0.00000000000E+00 -0.45593999997E+02  0.45594000000E+02  0.51100000000E-03 0. -1.
    9900012    2    1    2    0    0 -0.42458740128E+02  0.72320548627E+01 -0.53456834104E+01  0.47787267726E+02  0.19999984870E+02 0.  0.
         12    1    1    2    0    0  0.42458740128E+02 -0.72320548627E+01  0.53456834104E+01  0.43400732274E+02  0.00000000000E+00 0. -1.
         11    1    3    3    0    0 -0.10296221554E+02 -0.36029057523E+01  0.39936729581E+01  0.11616476751E+02  0.51100000000E-03 0. -1.
        -11    1    3    3    0    0 -0.20224140032E+02  0.26959198833E+01 -0.41680907989E+01  0.20824428089E+02  0.51100000000E-03 0.  1.
         12    1    3    3    0    0 -0.11938378542E+02  0.81390407317E+01 -0.51712655696E+01  0.15346362886E+02  0.00000000000E+00 0. -1.
</event>
<event>
 7    1  0.1246400E-009  0.4778727E+02  0.7816164E-02  0.1312668E+00
        -11   -1    0    0    0    0  0.00000000000E+00  0.00000000000E+00  0.45593999997E+02  0.45594000000E+02  0.51100000000E-03 0. -1.
         11   -1    0    0    0    0 -0.00000000000E+00 -0.00000000000E+00 -0.45593999997E+02  0.45594000000E+02  0.51100000000E-03 0.  1.
    9900012    2    1    2    0    0 -0.70396003333E+01 -0.34898866881E+02  0.24822100760E+02  0.47787267650E+02  0.19999984522E+02 0.  0.
         12    1    1    2    0    0  0.70396003333E+01  0.34898866881E+02 -0.24822100760E+02  0.43400732350E+02  0.00000000000E+00 0. -1.
         11    1    3    3    0    0  0.46165884265E+01 -0.72543877218E+00  0.29508471507E+01  0.55269023223E+01  0.51100000000E-03 0. -1.
        -11    1    3    3    0    0 -0.31503900335E+01 -0.11692716074E+02  0.79018685631E+01  0.14459740440E+02  0.51100000000E-03 0.  1.
         12    1    3    3    0    0 -0.85057987264E+01 -0.22480712035E+02  0.13969385046E+02  0.27800624887E+02  0.00000000000E+00 0. -1.
</event>
<event>
 7    1  0.1246400E-009  0.4778727E+02  0.7816164E-02  0.1312668E+00
        -11   -1    0    0    0    0  0.00000000000E+00  0.00000000000E+00  0.45593999997E+02  0.45594000000E+02  0.51100000000E-03 0.  1.
         11   -1    0    0    0    0 -0.00000000000E+00 -0.00000000000E+00 -0.45593999997E+02  0.45594000000E+02  0.51100000000E-03 0. -1.
    9900012    2    1    2    0    0  0.36954273619E+01 -0.37928817044E+02  0.20769490333E+02  0.47787273342E+02  0.20000010474E+02 0.  0.
         12    1    1    2    0    0 -0.36954273619E+01  0.37928817044E+02 -0.20769490333E+02  0.43400726658E+02  0.00000000000E+00 0. -1.
         11    1    3    3    0    0  0.20939741031E+01  0.76127339791E+00  0.39093786354E+01  0.44997229145E+01  0.51100000000E-03 0. -1.
        -11    1    3    3    0    0  0.28462973063E+00 -0.24627698054E+01 -0.12364776178E+01  0.27704018406E+01  0.51100000000E-03 0.  1.
        -12    1    3    3    0    0  0.13168235281E+01 -0.36227320637E+02  0.18096589316E+02  0.40517148587E+02  0.00000000000E+00 0.  1.
</event>
<event>
 7    1  0.1246400E-009  0.4778727E+02  0.7816164E-02  0.1312668E+00
        -11   -1    0    0    0    0  0.00000000000E+00  0.00000000000E+00  0.45593999997E+02  0.45594000000E+02  0.51100000000E-03 0.  1.
         11   -1    0    0    0    0 -0.00000000000E+00 -0.00000000000E+00 -0.45593999997E+02  0.45594000000E+02  0.51100000000E-03 0. -1.
    9900012    2    1    2    0    0  0.35170883923E+02 -0.15259536280E+02 -0.20341556330E+02  0.47787269161E+02  0.19999991414E+02 0.  0.
         12    1    1    2    0    0 -0.35170883923E+02  0.15259536280E+02  0.20341556330E+02  0.43400730839E+02  0.00000000000E+00 0. -1.
         11    1    3    3    0    0  0.96593207441E+01 -0.53234757400E+00 -0.11088075341E+02  0.14715002079E+02  0.51100000000E-03 0. -1.
        -11    1    3    3    0    0  0.11228590363E+02 -0.15879862939E+01 -0.74780338835E+01  0.13583958666E+02  0.51100000000E-03 0.  1.
        -12    1    3    3    0    0  0.14282972816E+02 -0.13139202412E+02 -0.17754471062E+01  0.19488308416E+02  0.00000000000E+00 0.  1.
</event>
<event>
 7    1  0.1246400E-009  0.4778726E+02  0.7816164E-02  0.1312668E+00
        -11   -1    0    0    0    0  0.00000000000E+00  0.00000000000E+00  0.45593999997E+02  0.45594000000E+02  0.51100000000E-03 0.  1.
         11   -1    0    0    0    0 -0.00000000000E+00 -0.00000000000E+00 -0.45593999997E+02  0.45594000000E+02  0.51100000000E-03 0. -1.
    9900012    2    1    2    0    0 -0.25431067528E+02  0.27481124682E+02  0.21947044802E+02  0.47787260548E+02  0.19999952143E+02 0.  0.
         12    1    1    2    0    0  0.25431067528E+02 -0.27481124682E+02 -0.21947044802E+02  0.43400739452E+02  0.00000000000E+00 0. -1.
         11    1    3    3    0    0 -0.63662060202E+01  0.18466291316E+02  0.14881250397E+02  0.24555734721E+02  0.51100000000E-03 0.  1.
        -11    1    3    3    0    0 -0.10655924216E+02  0.53678869557E+01  0.74347286007E+01  0.14058382585E+02  0.51100000000E-03 0. -1.
        -12    1    3    3    0    0 -0.84089372921E+01  0.36469464103E+01 -0.36893419543E+00  0.91731432422E+01  0.00000000000E+00 0.  1.
</event>
<event>
 7    1  0.1246400E-009  0.4778730E+02  0.7816164E-02  0.1312668E+00
        -11   -1    0    0    0    0  0.00000000000E+00  0.00000000000E+00  0.45593999997E+02  0.45594000000E+02  0.51100000000E-03 0. -1.
         11   -1    0    0    0    0 -0.00000000000E+00 -0.00000000000E+00 -0.45593999997E+02  0.45594000000E+02  0.51100000000E-03 0.  1.
    9900012    2    1    2    0    0 -0.98961777538E+01 -0.38707854567E+02  0.16952538239E+02  0.47787298485E+02  0.20000125110E+02 0.  0.
         12    1    1    2    0    0  0.98961777538E+01  0.38707854567E+02 -0.16952538239E+02  0.43400701515E+02  0.00000000000E+00 0. -1.
         11    1    3    3    0    0 -0.60336771164E+01 -0.54556421714E+01  0.43862178529E+01  0.92416556072E+01  0.51100000000E-03 0. -1.
        -11    1    3    3    0    0 -0.35414247175E+01 -0.13390684174E+01  0.39861006504E+01  0.54976169303E+01  0.51100000000E-03 0.  1.
        -12    1    3    3    0    0 -0.32107591990E+00 -0.31913143978E+02  0.85802197357E+01  0.33048025947E+02  0.00000000000E+00 0.  1.
</event>
<event>
 7    1  0.1246400E-009  0.4778727E+02  0.7816164E-02  0.1312668E+00
        -11   -1    0    0    0    0  0.00000000000E+00  0.00000000000E+00  0.45593999997E+02  0.45594000000E+02  0.51100000000E-03 0.  1.
         11   -1    0    0    0    0 -0.00000000000E+00 -0.00000000000E+00 -0.45593999997E+02  0.45594000000E+02  0.51100000000E-03 0. -1.
    9900012    2    1    2    0    0  0.40881377408E+02 -0.87025012966E+00  0.14545755168E+02  0.47787270196E+02  0.19999996133E+02 0.  0.
         12    1    1    2    0    0 -0.40881377408E+02  0.87025012966E+00 -0.14545755168E+02  0.43400729804E+02  0.00000000000E+00 0. -1.
         11    1    3    3    0    0  0.19748875821E+02 -0.39369294550E+01  0.30427180377E+01  0.20366041418E+02  0.51100000000E-03 0.  1.
        -11    1    3    3    0    0  0.89232551868E+01  0.13774118092E+01  0.12080934770E+02  0.15082132859E+02  0.51100000000E-03 0. -1.
         12    1    3    3    0    0  0.12209246401E+02  0.16892675161E+01 -0.57789763908E+00  0.12339095919E+02  0.00000000000E+00 0. -1.
</event>
<event>
 7    1  0.1246400E-009  0.4778727E+02  0.7816164E-02  0.1312668E+00
        -11   -1    0    0    0    0  0.00000000000E+00  0.00000000000E+00  0.45593999997E+02  0.45594000000E+02  0.51100000000E-03 0.  1.
         11   -1    0    0    0    0 -0.00000000000E+00 -0.00000000000E+00 -0.45593999997E+02  0.45594000000E+02  0.51100000000E-03 0. -1.
    9900012    2    1    2    0    0 -0.36217781305E+02 -0.16774329367E+02  0.17044570615E+02  0.47787271944E+02  0.20000004100E+02 0.  0.
         12    1    1    2    0    0  0.36217781305E+02  0.16774329367E+02 -0.17044570615E+02  0.43400728056E+02  0.00000000000E+00 0. -1.
         11    1    3    3    0    0 -0.17523471680E+01 -0.74247462380E+01  0.40614110055E+00  0.76395371686E+01  0.51100000000E-03 0.  1.
        -11    1    3    3    0    0 -0.65894294703E+01 -0.43223443173E+00  0.25924674701E+00  0.66086773627E+01  0.51100000000E-03 0. -1.
        -12    1    3    3    0    0 -0.27876004667E+02 -0.89173486972E+01  0.16379182768E+02  0.33539057412E+02  0.00000000000E+00 0.  1.
</event>
<event>
 7    1  0.1246400E-009  0.4778727E+02  0.7816164E-02  0.1312668E+00
        -11   -1    0    0    0    0  0.00000000000E+00  0.00000000000E+00  0.45593999997E+02  0.45594000000E+02  0.51100000000E-03 0.  1.
         11   -1    0    0    0    0 -0.00000000000E+00 -0.00000000000E+00 -0.45593999997E+02  0.45594000000E+02  0.51100000000E-03 0. -1.
    9900012    2    1    2    0    0 -0.15474947188E+02 -0.21341606170E+02  0.34477308868E+02  0.47787274532E+02  0.20000015900E+02 0.  0.
         12    1    1    2    0    0  0.15474947188E+02  0.21341606170E+02 -0.34477308868E+02  0.43400725468E+02  0.00000000000E+00 0. -1.
         11    1    3    3    0    0 -0.88498333067E+00 -0.89516219092E+01  0.67076704459E+01  0.11220854396E+02  0.51100000000E-03 0. -1.
        -11    1    3    3    0    0 -0.16608722392E+02 -0.92318660660E+01  0.18296709283E+02  0.26378904098E+02  0.51100000000E-03 0.  1.
         12    1    3    3    0    0  0.20187585345E+01 -0.31581181950E+01  0.94729291390E+01  0.10187516038E+02  0.00000000000E+00 0. -1.
</event>
<event>
 7    1  0.1246400E-009  0.4778726E+02  0.7816164E-02  0.1312668E+00
        -11   -1    0    0    0    0  0.00000000000E+00  0.00000000000E+00  0.45593999997E+02  0.45594000000E+02  0.51100000000E-03 0.  1.
         11   -1    0    0    0    0 -0.00000000000E+00 -0.00000000000E+00 -0.45593999997E+02  0.45594000000E+02  0.51100000000E-03 0. -1.
    9900012    2    1    2    0    0  0.32580806736E+02 -0.15298191287E+02  0.24250378221E+02  0.47787257287E+02  0.19999937273E+02 0.  0.
         12    1    1    2    0    0 -0.32580806736E+02  0.15298191287E+02 -0.24250378221E+02  0.43400742713E+02  0.00000000000E+00 0. -1.
         11    1    3    3    0    0  0.13198160841E+02 -0.10649404040E+02  0.61191342222E+01  0.18029006070E+02  0.51100000000E-03 0.  1.
        -11    1    3    3    0    0  0.17726410597E+01 -0.36470596205E+01  0.90551350703E+01  0.99216314991E+01  0.51100000000E-03 0. -1.
         12    1    3    3    0    0  0.17610004835E+02 -0.10017276264E+01  0.90761089282E+01  0.19836619718E+02  0.00000000000E+00 0. -1.
</event>
<event>
 7    1  0.1246400E-009  0.4778727E+02  0.7816164E-02  0.1312668E+00
        -11   -1    0    0    0    0  0.00000000000E+00  0.00000000000E+00  0.45593999997E+02  0.45594000000E+02  0.51100000000E-03 0. -1.
         11   -1    0    0    0    0 -0.00000000000E+00 -0.00000000000E+00 -0.45593999997E+02  0.45594000000E+02  0.51100000000E-03 0.  1.
    9900012    2    1    2    0    0  0.21634746479E+02 -0.35163704151E+02 -0.13381888286E+02  0.47787270986E+02  0.19999999733E+02 0.  0.
         12    1    1    2    0    0 -0.21634746479E+02  0.35163704151E+02  0.13381888286E+02  0.43400729014E+02  0.00000000000E+00 0. -1.
         11    1    3    3    0    0  0.21915304471E+01 -0.10663091703E+02 -0.37205605512E+01  0.11504212335E+02  0.51100000000E-03 0. -1.
        -11    1    3    3    0    0  0.95122921641E+01 -0.20260276938E+02 -0.11758621007E+02  0.25282952598E+02  0.51100000000E-03 0.  1.
         12    1    3    3    0    0  0.99309238682E+01 -0.42403355100E+01  0.20972932722E+01  0.11000106053E+02  0.00000000000E+00 0. -1.
</event>
<event>
 7    1  0.1246400E-009  0.4778727E+02  0.7816164E-02  0.1312668E+00
        -11   -1    0    0    0    0  0.00000000000E+00  0.00000000000E+00  0.45593999997E+02  0.45594000000E+02  0.51100000000E-03 0.  1.
         11   -1    0    0    0    0 -0.00000000000E+00 -0.00000000000E+00 -0.45593999997E+02  0.45594000000E+02  0.51100000000E-03 0. -1.
    9900012    2    1    2    0    0  0.39294941163E+02 -0.18415347096E+02  0.63706268674E+00  0.47787271221E+02  0.20000000804E+02 0.  0.
         12    1    1    2    0    0 -0.39294941163E+02  0.18415347096E+02 -0.63706268674E+00  0.43400728779E+02  0.00000000000E+00 0. -1.
         11    1    3    3    0    0  0.17721892527E+02  0.11869966932E+01 -0.25340062820E+01  0.17941449885E+02  0.51100000000E-03 0. -1.
        -11    1    3    3    0    0  0.80571665023E+01 -0.74776563165E+01  0.39269722508E+01  0.11672805462E+02  0.51100000000E-03 0.  1.
         12    1    3    3    0    0  0.13515882134E+02 -0.12124687473E+02 -0.75590328210E+00  0.18173015874E+02  0.00000000000E+00 0. -1.
</event>
<event>
 7    1  0.1246400E-009  0.4778727E+02  0.7816164E-02  0.1312668E+00
        -11   -1    0    0    0    0  0.00000000000E+00  0.00000000000E+00  0.45593999997E+02  0.45594000000E+02  0.51100000000E-03 0.  1.
         11   -1    0    0    0    0 -0.00000000000E+00 -0.00000000000E+00 -0.45593999997E+02  0.45594000000E+02  0.51100000000E-03 0. -1.
    9900012    2    1    2    0    0  0.81741772029E+00 -0.36769282344E+02 -0.23042894825E+02  0.47787270770E+02  0.19999998747E+02 0.  0.
         12    1    1    2    0    0 -0.81741772029E+00  0.36769282344E+02  0.23042894825E+02  0.43400729230E+02  0.00000000000E+00 0. -1.
         11    1    3    3    0    0 -0.23998594950E+01 -0.50080981471E+00 -0.46570483445E+01  0.52629113246E+01  0.51100000000E-03 0. -1.
        -11    1    3    3    0    0  0.42074949480E+01 -0.32705033657E+01 -0.23937094008E+01  0.58420074425E+01  0.51100000000E-03 0.  1.
        -12    1    3    3    0    0 -0.99021773272E+00 -0.32997969163E+02 -0.15992137080E+02  0.36682352003E+02  0.00000000000E+00 0.  1.
</event>
<event>
 7    1  0.1246400E-009  0.4778727E+02  0.7816164E-02  0.1312668E+00
        -11   -1    0    0    0    0  0.00000000000E+00  0.00000000000E+00  0.45593999997E+02  0.45594000000E+02  0.51100000000E-03 0.  1.
         11   -1    0    0    0    0 -0.00000000000E+00 -0.00000000000E+00 -0.45593999997E+02  0.45594000000E+02  0.51100000000E-03 0. -1.
    9900012    2    1    2    0    0  0.23468921365E+02  0.16127277144E+02  0.32752767539E+02  0.47787272822E+02  0.20000008105E+02 0.  0.
         12    1    1    2    0    0 -0.23468921365E+02 -0.16127277144E+02 -0.32752767539E+02  0.43400727178E+02  0.00000000000E+00 0. -1.
         11    1    3    3    0    0  0.35469398808E+01  0.46031213117E+01  0.20720779276E+02  0.21520227750E+02  0.51100000000E-03 0.  1.
        -11    1    3    3    0    0  0.10335998239E+02  0.73189391195E+01  0.83535678123E+01  0.15171744293E+02  0.51100000000E-03 0. -1.
        -12    1    3    3    0    0  0.95859832443E+01  0.42052167129E+01  0.36784204506E+01  0.11095300779E+02  0.00000000000E+00 0.  1.
</event>
<event>
 7    1  0.1246400E-009  0.4778727E+02  0.7816164E-02  0.1312668E+00
        -11   -1    0    0    0    0  0.00000000000E+00  0.00000000000E+00  0.45593999997E+02  0.45594000000E+02  0.51100000000E-03 0. -1.
         11   -1    0    0    0    0 -0.00000000000E+00 -0.00000000000E+00 -0.45593999997E+02  0.45594000000E+02  0.51100000000E-03 0.  1.
    9900012    2    1    2    0    0  0.40275975755E+01 -0.24531044428E+02 -0.35575684578E+02  0.47787274013E+02  0.20000013536E+02 0.  0.
         12    1    1    2    0    0 -0.40275975755E+01  0.24531044428E+02  0.35575684578E+02  0.43400725987E+02  0.00000000000E+00 0. -1.
         11    1    3    3    0    0 -0.33758192634E+01 -0.19677260574E+01 -0.18360196340E+00  0.39117529930E+01  0.51100000000E-03 0. -1.
        -11    1    3    3    0    0 -0.49984874296E+00 -0.14801397967E+02 -0.21511714821E+02  0.26116759090E+02  0.51100000000E-03 0.  1.
        -12    1    3    3    0    0  0.79032655819E+01 -0.77619204033E+01 -0.13880367794E+02  0.17758761931E+02  0.00000000000E+00 0.  1.
</event>
<event>
 7    1  0.1246400E-009  0.4778727E+02  0.7816164E-02  0.1312668E+00
        -11   -1    0    0    0    0  0.00000000000E+00  0.00000000000E+00  0.45593999997E+02  0.45594000000E+02  0.51100000000E-03 0.  1.
         11   -1    0    0    0    0 -0.00000000000E+00 -0.00000000000E+00 -0.45593999997E+02  0.45594000000E+02  0.51100000000E-03 0. -1.
    9900012    2    1    2    0    0  0.22107946248E+02  0.12956224559E+02  0.35028536988E+02  0.47787269066E+02  0.19999990979E+02 0.  0.
         12    1    1    2    0    0 -0.22107946248E+02 -0.12956224559E+02 -0.35028536988E+02  0.43400730934E+02  0.00000000000E+00 0. -1.
         11    1    3    3    0    0  0.19016101477E+01 -0.39587060921E+01  0.11247637539E+02  0.12074635627E+02  0.51100000000E-03 0. -1.
        -11    1    3    3    0    0  0.70997288243E+01  0.65914730213E+01  0.11252821289E+02  0.14848557276E+02  0.51100000000E-03 0.  1.
         12    1    3    3    0    0  0.13106607276E+02  0.10323457629E+02  0.12528078160E+02  0.20864076162E+02  0.00000000000E+00 0. -1.
</event>
<event>
 7    1  0.1246400E-009  0.4778727E+02  0.7816164E-02  0.1312668E+00
        -11   -1    0    0    0    0  0.00000000000E+00  0.00000000000E+00  0.45593999997E+02  0.45594000000E+02  0.51100000000E-03 0.  1.
         11   -1    0    0    0    0 -0.00000000000E+00 -0.00000000000E+00 -0.45593999997E+02  0.45594000000E+02  0.51100000000E-03 0. -1.
    9900012    2    1    2    0    0  0.21999507672E+02  0.30236231724E+01  0.37289440732E+02  0.47787273911E+02  0.20000013072E+02 0.  0.
         12    1    1    2    0    0 -0.21999507672E+02 -0.30236231724E+01 -0.37289440732E+02  0.43400726089E+02  0.00000000000E+00 0. -1.
         11    1    3    3    0    0  0.25181698451E+00 -0.23960450957E+01  0.99951271450E+01  0.10281391482E+02  0.51100000000E-03 0. -1.
        -11    1    3    3    0    0  0.16453475304E+02  0.42438971233E+01  0.27212704207E+02  0.32082063258E+02  0.51100000000E-03 0.  1.
         12    1    3    3    0    0  0.52942153838E+01  0.11757711448E+01  0.81609379941E-01  0.54238191716E+01  0.00000000000E+00 0. -1.
</event>
<event>
 7    1  0.1246400E-009  0.4778728E+02  0.7816164E-02  0.1312668E+00
        -11   -1    0    0    0    0  0.00000000000E+00  0.00000000000E+00  0.45593999997E+02  0.45594000000E+02  0.51100000000E-03 0. -1.
         11   -1    0    0    0    0 -0.00000000000E+00 -0.00000000000E+00 -0.45593999997E+02  0.45594000000E+02  0.51100000000E-03 0.  1.
    9900012    2    1    2    0    0 -0.28147360299E+02  0.32992778985E+02  0.16808045033E+01  0.47787280412E+02  0.20000042711E+02 0.  0.
         12    1    1    2    0    0  0.28147360299E+02 -0.32992778985E+02 -0.16808045033E+01  0.43400719588E+02  0.00000000000E+00 0. -1.
         11    1    3    3    0    0 -0.30563309157E+01  0.65860804592E+01  0.26800381595E+01  0.77395231945E+01  0.51100000000E-03 0. -1.
        -11    1    3    3    0    0 -0.13569668754E+02  0.10373063863E+02 -0.83091390872E+01  0.18994161120E+02  0.51100000000E-03 0.  1.
        -12    1    3    3    0    0 -0.11521360629E+02  0.16033634662E+02  0.73099054310E+01  0.21053596098E+02  0.00000000000E+00 0.  1.
</event>
<event>
 7    1  0.1246400E-009  0.4778727E+02  0.7816164E-02  0.1312668E+00
        -11   -1    0    0    0    0  0.00000000000E+00  0.00000000000E+00  0.45593999997E+02  0.45594000000E+02  0.51100000000E-03 0. -1.
         11   -1    0    0    0    0 -0.00000000000E+00 -0.00000000000E+00 -0.45593999997E+02  0.45594000000E+02  0.51100000000E-03 0.  1.
    9900012    2    1    2    0    0  0.29800017554E+02 -0.18459064915E+02 -0.25589945125E+02  0.47787269416E+02  0.19999992573E+02 0.  0.
         12    1    1    2    0    0 -0.29800017554E+02  0.18459064915E+02  0.25589945125E+02  0.43400730584E+02  0.00000000000E+00 0. -1.
         11    1    3    3    0    0  0.20191768333E+02 -0.45762100621E+01 -0.13468699109E+02  0.24699292761E+02  0.51100000000E-03 0. -1.
        -11    1    3    3    0    0  0.36680896646E+01 -0.47632633717E+01 -0.10479119904E+02  0.12081204988E+02  0.51100000000E-03 0.  1.
        -12    1    3    3    0    0  0.59401595570E+01 -0.91195914814E+01 -0.16421261109E+01  0.11006771666E+02  0.00000000000E+00 0.  1.
</event>
<event>
 7    1  0.1246400E-009  0.4778725E+02  0.7816164E-02  0.1312668E+00
        -11   -1    0    0    0    0  0.00000000000E+00  0.00000000000E+00  0.45593999997E+02  0.45594000000E+02  0.51100000000E-03 0.  1.
         11   -1    0    0    0    0 -0.00000000000E+00 -0.00000000000E+00 -0.45593999997E+02  0.45594000000E+02  0.51100000000E-03 0. -1.
    9900012    2    1    2    0    0 -0.30856943832E+01 -0.67494461382E+01  0.42761526440E+02  0.47787254886E+02  0.19999926327E+02 0.  0.
         12    1    1    2    0    0  0.30856943832E+01  0.67494461382E+01 -0.42761526440E+02  0.43400745114E+02  0.00000000000E+00 0. -1.
         11    1    3    3    0    0 -0.18224252420E+01 -0.11711360155E+02  0.24779851178E+02  0.27468494955E+02  0.51100000000E-03 0. -1.
        -11    1    3    3    0    0  0.32670508838E+01  0.28290589703E+01  0.66614197104E+01  0.79405106230E+01  0.51100000000E-03 0.  1.
        -12    1    3    3    0    0 -0.45303200251E+01  0.21328550464E+01  0.11320255552E+02  0.12378249308E+02  0.00000000000E+00 0.  1.
</event>
<event>
 7    1  0.1246400E-009  0.4778727E+02  0.7816164E-02  0.1312668E+00
        -11   -1    0    0    0    0  0.00000000000E+00  0.00000000000E+00  0.45593999997E+02  0.45594000000E+02  0.51100000000E-03 0.  1.
         11   -1    0    0    0    0 -0.00000000000E+00 -0.00000000000E+00 -0.45593999997E+02  0.45594000000E+02  0.51100000000E-03 0. -1.
    9900012    2    1    2    0    0  0.13045774506E+02  0.28643532704E+02  0.29882757183E+02  0.47787269878E+02  0.19999994683E+02 0.  0.
         12    1    1    2    0    0 -0.13045774506E+02 -0.28643532704E+02 -0.29882757183E+02  0.43400730122E+02  0.00000000000E+00 0. -1.
         11    1    3    3    0    0  0.89645067386E+01  0.13414215309E+02  0.12719734903E+02  0.20544955821E+02  0.51100000000E-03 0. -1.
        -11    1    3    3    0    0  0.75121273298E+01  0.83822648693E+01  0.15899192841E+02  0.19480214439E+02  0.51100000000E-03 0.  1.
         12    1    3    3    0    0 -0.34308595625E+01  0.68470525259E+01  0.12638294396E+01  0.77620996181E+01  0.00000000000E+00 0. -1.
</event>
<event>
 7    1  0.1345069E-009  0.4778727E+02  0.7816164E-02  0.1312668E+00
        -11   -1    0    0    0    0  0.00000000000E+00  0.00000000000E+00  0.45593999997E+02  0.45594000000E+02  0.51100000000E-03 0.  1.
         11   -1    0    0    0    0 -0.00000000000E+00 -0.00000000000E+00 -0.45593999997E+02  0.45594000000E+02  0.51100000000E-03 0. -1.
    9900012    2    1    2    0    0 -0.71819966330E+01  0.40450363451E+02  0.13993218904E+02  0.47787272423E+02  0.20000006286E+02 0.  0.
         12    1    1    2    0    0  0.71819966330E+01 -0.40450363451E+02 -0.13993218904E+02  0.43400727577E+02  0.00000000000E+00 0. -1.
         11    1    3    3    0    0  0.10335183909E+01  0.21483346495E+01  0.51302898164E+01  0.56571526312E+01  0.51100000000E-03 0. -1.
        -11    1    3    3    0    0 -0.23525155264E+01  0.29151640098E+02  0.10632982723E+02  0.31119331155E+02  0.51100000000E-03 0.  1.
        -12    1    3    3    0    0 -0.58629994975E+01  0.91503887034E+01 -0.17700536360E+01  0.11010788637E+02  0.00000000000E+00 0.  1.
</event>
<event>
 7    1  0.1246400E-009  0.4778727E+02  0.7816164E-02  0.1312668E+00
        -11   -1    0    0    0    0  0.00000000000E+00  0.00000000000E+00  0.45593999997E+02  0.45594000000E+02  0.51100000000E-03 0. -1.
         11   -1    0    0    0    0 -0.00000000000E+00 -0.00000000000E+00 -0.45593999997E+02  0.45594000000E+02  0.51100000000E-03 0.  1.
    9900012    2    1    2    0    0  0.28610338228E+02 -0.79999769257E+01 -0.31639720372E+02  0.47787274320E+02  0.20000014934E+02 0.  0.
         12    1    1    2    0    0 -0.28610338228E+02  0.79999769257E+01  0.31639720372E+02  0.43400725680E+02  0.00000000000E+00 0. -1.
         11    1    3    3    0    0  0.50238453973E+01 -0.15879438198E+01  0.10305346963E+01  0.53686674485E+01  0.51100000000E-03 0. -1.
        -11    1    3    3    0    0  0.19816261788E+02 -0.58294109301E+01 -0.18451674607E+02  0.27697121856E+02  0.51100000000E-03 0.  1.
        -12    1    3    3    0    0  0.37702310421E+01 -0.58262217576E+00 -0.14218580461E+02  0.14721485015E+02  0.00000000000E+00 0.  1.
</event>
<event>
 7    1  0.1246400E-009  0.4778727E+02  0.7816164E-02  0.1312668E+00
        -11   -1    0    0    0    0  0.00000000000E+00  0.00000000000E+00  0.45593999997E+02  0.45594000000E+02  0.51100000000E-03 0. -1.
         11   -1    0    0    0    0 -0.00000000000E+00 -0.00000000000E+00 -0.45593999997E+02  0.45594000000E+02  0.51100000000E-03 0.  1.
    9900012    2    1    2    0    0 -0.19540450422E+02  0.34282862234E+02 -0.18068749719E+02  0.47787267725E+02  0.19999984863E+02 0.  0.
         12    1    1    2    0    0  0.19540450422E+02 -0.34282862234E+02  0.18068749719E+02  0.43400732275E+02  0.00000000000E+00 0. -1.
         11    1    3    3    0    0 -0.10143060930E+02  0.81487544625E+01 -0.14407194356E+01  0.13090437620E+02  0.51100000000E-03 0. -1.
        -11    1    3    3    0    0 -0.45240081734E+01  0.20440841311E+02 -0.61603998382E+01  0.21823042177E+02  0.51100000000E-03 0.  1.
        -12    1    3    3    0    0 -0.48733813182E+01  0.56932664605E+01 -0.10467630445E+02  0.12873787927E+02  0.00000000000E+00 0.  1.
</event>
<event>
 7    1  0.1246400E-009  0.4778727E+02  0.7816164E-02  0.1312668E+00
        -11   -1    0    0    0    0  0.00000000000E+00  0.00000000000E+00  0.45593999997E+02  0.45594000000E+02  0.51100000000E-03 0.  1.
         11   -1    0    0    0    0 -0.00000000000E+00 -0.00000000000E+00 -0.45593999997E+02  0.45594000000E+02  0.51100000000E-03 0. -1.
    9900012    2    1    2    0    0  0.26207776126E+02 -0.34470148112E+02  0.29299601607E+01  0.47787270664E+02  0.19999998267E+02 0.  0.
         12    1    1    2    0    0 -0.26207776126E+02  0.34470148112E+02 -0.29299601607E+01  0.43400729336E+02  0.00000000000E+00 0. -1.
         11    1    3    3    0    0  0.56543546305E+01  0.10514882175E+01  0.15915162737E+01  0.59674347981E+01  0.51100000000E-03 0. -1.
        -11    1    3    3    0    0  0.13419494234E+02 -0.18132430187E+02 -0.23006431881E+01  0.22675114318E+02  0.51100000000E-03 0.  1.
        -12    1    3    3    0    0  0.71339272615E+01 -0.17389206142E+02  0.36390870751E+01  0.19144721548E+02  0.00000000000E+00 0.  1.
</event>
<event>
 7    1  0.1246400E-009  0.4778727E+02  0.7816164E-02  0.1312668E+00
        -11   -1    0    0    0    0  0.00000000000E+00  0.00000000000E+00  0.45593999997E+02  0.45594000000E+02  0.51100000000E-03 0. -1.
         11   -1    0    0    0    0 -0.00000000000E+00 -0.00000000000E+00 -0.45593999997E+02  0.45594000000E+02  0.51100000000E-03 0.  1.
    9900012    2    1    2    0    0 -0.38922072316E+02  0.11829228809E+02  0.15124971109E+02  0.47787272833E+02  0.20000008154E+02 0.  0.
         12    1    1    2    0    0  0.38922072316E+02 -0.11829228809E+02 -0.15124971109E+02  0.43400727167E+02  0.00000000000E+00 0. -1.
         11    1    3    3    0    0 -0.14159386028E+02  0.52370432827E+01  0.51076581895E+01  0.15937471803E+02  0.51100000000E-03 0. -1.
        -11    1    3    3    0    0 -0.13853752694E+02  0.11727974781E+02  0.66478769227E+01  0.19330445520E+02  0.51100000000E-03 0.  1.
        -12    1    3    3    0    0 -0.10908933594E+02 -0.51357892551E+01  0.33694359972E+01  0.12519355510E+02  0.00000000000E+00 0.  1.
</event>
<event>
 7    1  0.1246400E-009  0.4778728E+02  0.7816164E-02  0.1312668E+00
        -11   -1    0    0    0    0  0.00000000000E+00  0.00000000000E+00  0.45593999997E+02  0.45594000000E+02  0.51100000000E-03 0.  1.
         11   -1    0    0    0    0 -0.00000000000E+00 -0.00000000000E+00 -0.45593999997E+02  0.45594000000E+02  0.51100000000E-03 0. -1.
    9900012    2    1    2    0    0  0.11887857826E+02  0.39412544452E+02  0.13746020589E+02  0.47787275284E+02  0.20000019329E+02 0.  0.
         12    1    1    2    0    0 -0.11887857826E+02 -0.39412544452E+02 -0.13746020589E+02  0.43400724716E+02  0.00000000000E+00 0. -1.
         11    1    3    3    0    0  0.32227878271E+01  0.57015971368E+00  0.65224797989E+01  0.72975466060E+01  0.51100000000E-03 0. -1.
        -11    1    3    3    0    0  0.37926882774E+01  0.14772298217E+02  0.35385324525E+01  0.15656515933E+02  0.51100000000E-03 0.  1.
        -12    1    3    3    0    0  0.48723817217E+01  0.24070086522E+02  0.36850083372E+01  0.24833212745E+02  0.00000000000E+00 0.  1.
</event>
<event>
 7    1  0.1246400E-009  0.4778728E+02  0.7816164E-02  0.1312668E+00
        -11   -1    0    0    0    0  0.00000000000E+00  0.00000000000E+00  0.45593999997E+02  0.45594000000E+02  0.51100000000E-03 0.  1.
         11   -1    0    0    0    0 -0.00000000000E+00 -0.00000000000E+00 -0.45593999997E+02  0.45594000000E+02  0.51100000000E-03 0. -1.
    9900012    2    1    2    0    0 -0.11189070191E+02 -0.40508309113E+02  0.10839935003E+02  0.47787278925E+02  0.20000035930E+02 0.  0.
         12    1    1    2    0    0  0.11189070191E+02  0.40508309113E+02 -0.10839935003E+02  0.43400721075E+02  0.00000000000E+00 0. -1.
         11    1    3    3    0    0  0.30265423985E+01 -0.23533826709E+01  0.23460166295E+01  0.44946816542E+01  0.51100000000E-03 0. -1.
        -11    1    3    3    0    0 -0.90519127654E+01 -0.34153182869E+02  0.97216110220E+01  0.36645419166E+02  0.51100000000E-03 0.  1.
         12    1    3    3    0    0 -0.51636998245E+01 -0.40017435740E+01 -0.12276926485E+01  0.66471781042E+01  0.00000000000E+00 0. -1.
</event>
<event>
 7    1  0.1246400E-009  0.4778730E+02  0.7816164E-02  0.1312668E+00
        -11   -1    0    0    0    0  0.00000000000E+00  0.00000000000E+00  0.45593999997E+02  0.45594000000E+02  0.51100000000E-03 0.  1.
         11   -1    0    0    0    0 -0.00000000000E+00 -0.00000000000E+00 -0.45593999997E+02  0.45594000000E+02  0.51100000000E-03 0. -1.
    9900012    2    1    2    0    0 -0.21715253786E+02 -0.31827856970E+02 -0.19976396541E+02  0.47787295570E+02  0.20000111823E+02 0.  0.
         12    1    1    2    0    0  0.21715253786E+02  0.31827856970E+02  0.19976396541E+02  0.43400704430E+02  0.00000000000E+00 0. -1.
         11    1    3    3    0    0 -0.46294710512E+01 -0.16572424708E+01 -0.91585453601E+01  0.10395066532E+02  0.51100000000E-03 0. -1.
        -11    1    3    3    0    0  0.16601838531E+00 -0.13493757081E+01  0.11018758089E+01  0.17500021329E+01  0.51100000000E-03 0.  1.
        -12    1    3    3    0    0 -0.17251801120E+02 -0.28821238791E+02 -0.11919726989E+02  0.35642226906E+02  0.00000000000E+00 0.  1.
</event>
<event>
 7    1  0.1246400E-009  0.4778727E+02  0.7816164E-02  0.1312668E+00
        -11   -1    0    0    0    0  0.00000000000E+00  0.00000000000E+00  0.45593999997E+02  0.45594000000E+02  0.51100000000E-03 0.  1.
         11   -1    0    0    0    0 -0.00000000000E+00 -0.00000000000E+00 -0.45593999997E+02  0.45594000000E+02  0.51100000000E-03 0. -1.
    9900012    2    1    2    0    0  0.16949237049E+02  0.13326360503E+02  0.37666361893E+02  0.47787270293E+02  0.19999996575E+02 0.  0.
         12    1    1    2    0    0 -0.16949237049E+02 -0.13326360503E+02 -0.37666361893E+02  0.43400729707E+02  0.00000000000E+00 0. -1.
         11    1    3    3    0    0  0.11819658395E+02  0.37599979387E+01  0.78596297343E+01  0.14683858107E+02  0.51100000000E-03 0. -1.
        -11    1    3    3    0    0  0.10744287212E+01  0.85112318473E+01  0.11640388669E+02  0.14460086904E+02  0.51100000000E-03 0.  1.
        -12    1    3    3    0    0  0.40551499325E+01  0.10551307170E+01  0.18166343490E+02  0.18643325283E+02  0.00000000000E+00 0.  1.
</event>
<event>
 7    1  0.1246400E-009  0.4778725E+02  0.7816164E-02  0.1312668E+00
        -11   -1    0    0    0    0  0.00000000000E+00  0.00000000000E+00  0.45593999997E+02  0.45594000000E+02  0.51100000000E-03 0.  1.
         11   -1    0    0    0    0 -0.00000000000E+00 -0.00000000000E+00 -0.45593999997E+02  0.45594000000E+02  0.51100000000E-03 0. -1.
    9900012    2    1    2    0    0  0.39404591596E+02 -0.21834142719E+01  0.18059233805E+02  0.47787250440E+02  0.19999906056E+02 0.  0.
         12    1    1    2    0    0 -0.39404591596E+02  0.21834142719E+01 -0.18059233805E+02  0.43400749560E+02  0.00000000000E+00 0. -1.
         11    1    3    3    0    0  0.34140170457E+01  0.36078155688E+01  0.79299335790E+01  0.93571198772E+01  0.51100000000E-03 0. -1.
        -11    1    3    3    0    0  0.16392680229E+02 -0.33953361533E+01  0.80548564293E+01  0.18577647457E+02  0.51100000000E-03 0.  1.
         12    1    3    3    0    0  0.19597894322E+02 -0.23958936874E+01  0.20744437971E+01  0.19852483106E+02  0.00000000000E+00 0. -1.
</event>
<event>
 7    1  0.1246400E-009  0.4778728E+02  0.7816164E-02  0.1312668E+00
        -11   -1    0    0    0    0  0.00000000000E+00  0.00000000000E+00  0.45593999997E+02  0.45594000000E+02  0.51100000000E-03 0.  1.
         11   -1    0    0    0    0 -0.00000000000E+00 -0.00000000000E+00 -0.45593999997E+02  0.45594000000E+02  0.51100000000E-03 0. -1.
    9900012    2    1    2    0    0  0.37164543789E+02  0.68237967053E+01  0.21350765185E+02  0.47787277765E+02  0.20000030640E+02 0.  0.
         12    1    1    2    0    0 -0.37164543789E+02 -0.68237967053E+01 -0.21350765185E+02  0.43400722235E+02  0.00000000000E+00 0. -1.
         11    1    3    3    0    0  0.80450543688E+01  0.13376444842E+01  0.38841658708E-01  0.81555932647E+01  0.51100000000E-03 0. -1.
        -11    1    3    3    0    0  0.52454719140E+01 -0.30952370360E+01  0.10320216297E+02  0.11983419069E+02  0.51100000000E-03 0.  1.
        -12    1    3    3    0    0  0.23874017507E+02  0.85813892572E+01  0.10991707229E+02  0.27648265430E+02  0.00000000000E+00 0.  1.
</event>
<event>
 7    1  0.1246400E-009  0.4778727E+02  0.7816164E-02  0.1312668E+00
        -11   -1    0    0    0    0  0.00000000000E+00  0.00000000000E+00  0.45593999997E+02  0.45594000000E+02  0.51100000000E-03 0.  1.
         11   -1    0    0    0    0 -0.00000000000E+00 -0.00000000000E+00 -0.45593999997E+02  0.45594000000E+02  0.51100000000E-03 0. -1.
    9900012    2    1    2    0    0 -0.39917378821E+02  0.16846849017E+02  0.25317405667E+01  0.47787272310E+02  0.20000005769E+02 0.  0.
         12    1    1    2    0    0  0.39917378821E+02 -0.16846849017E+02 -0.25317405667E+01  0.43400727690E+02  0.00000000000E+00 0. -1.
         11    1    3    3    0    0 -0.66362439430E+01  0.39546066362E+01 -0.39682863579E+01  0.86848111205E+01  0.51100000000E-03 0. -1.
        -11    1    3    3    0    0 -0.31114430485E+01  0.48935218162E+00  0.56536710989E+01  0.64718266786E+01  0.51100000000E-03 0.  1.
         12    1    3    3    0    0 -0.30169691830E+02  0.12402890199E+02  0.84635582574E+00  0.32630634511E+02  0.00000000000E+00 0. -1.
</event>
<event>
 7    1  0.1481373E-009  0.4778727E+02  0.7816164E-02  0.1312668E+00
        -11   -1    0    0    0    0  0.00000000000E+00  0.00000000000E+00  0.45593999997E+02  0.45594000000E+02  0.51100000000E-03 0.  1.
         11   -1    0    0    0    0 -0.00000000000E+00 -0.00000000000E+00 -0.45593999997E+02  0.45594000000E+02  0.51100000000E-03 0. -1.
    9900012    2    1    2    0    0  0.21058697144E+02  0.32818187584E+02  0.19055737506E+02  0.47787270818E+02  0.19999998967E+02 0.  0.
         12    1    1    2    0    0 -0.21058697144E+02 -0.32818187584E+02 -0.19055737506E+02  0.43400729182E+02  0.00000000000E+00 0. -1.
         11    1    3    3    0    0  0.74113801169E+01  0.82844676292E+01  0.12488513236E+02  0.16718968935E+02  0.51100000000E-03 0. -1.
        -11    1    3    3    0    0  0.73056453846E+01  0.20799576675E+02  0.82159150923E+01  0.23526497942E+02  0.51100000000E-03 0.  1.
         12    1    3    3    0    0  0.63416716421E+01  0.37341432792E+01 -0.16486908231E+01  0.75418039405E+01  0.00000000000E+00 0. -1.
</event>
<event>
 7    1  0.1293040E-009  0.4778727E+02  0.7816164E-02  0.1312668E+00
        -11   -1    0    0    0    0  0.00000000000E+00  0.00000000000E+00  0.45593999997E+02  0.45594000000E+02  0.51100000000E-03 0. -1.
         11   -1    0    0    0    0 -0.00000000000E+00 -0.00000000000E+00 -0.45593999997E+02  0.45594000000E+02  0.51100000000E-03 0.  1.
    9900012    2    1    2    0    0  0.10604355715E+02  0.39924761286E+02 -0.13311058384E+02  0.47787271905E+02  0.20000003922E+02 0.  0.
         12    1    1    2    0    0 -0.10604355715E+02 -0.39924761286E+02  0.13311058384E+02  0.43400728095E+02  0.00000000000E+00 0. -1.
         11    1    3    3    0    0 -0.40793812909E+01  0.62523916993E+01 -0.63591600039E+01  0.98067665361E+01  0.51100000000E-03 0. -1.
        -11    1    3    3    0    0  0.86340757946E+01  0.12280883305E+02 -0.41418741411E+01  0.15573133315E+02  0.51100000000E-03 0.  1.
        -12    1    3    3    0    0  0.60496612113E+01  0.21391486282E+02 -0.28100242395E+01  0.22407372053E+02  0.00000000000E+00 0.  1.
</event>
<event>
 7    1  0.1246400E-009  0.4778727E+02  0.7816164E-02  0.1312668E+00
        -11   -1    0    0    0    0  0.00000000000E+00  0.00000000000E+00  0.45593999997E+02  0.45594000000E+02  0.51100000000E-03 0.  1.
         11   -1    0    0    0    0 -0.00000000000E+00 -0.00000000000E+00 -0.45593999997E+02  0.45594000000E+02  0.51100000000E-03 0. -1.
    9900012    2    1    2    0    0 -0.39814989476E+02 -0.24991170524E+01 -0.17092227417E+02  0.47787271768E+02  0.20000003299E+02 0.  0.
         12    1    1    2    0    0  0.39814989476E+02  0.24991170524E+01  0.17092227417E+02  0.43400728232E+02  0.00000000000E+00 0. -1.
         11    1    3    3    0    0 -0.21080473564E+01 -0.59250421704E+01 -0.19991077258E+01  0.65989711576E+01  0.51100000000E-03 0. -1.
        -11    1    3    3    0    0 -0.17721322549E+02 -0.11169429344E+01 -0.57552118963E+01  0.18665885959E+02  0.51100000000E-03 0.  1.
        -12    1    3    3    0    0 -0.19985619570E+02  0.45428680524E+01 -0.93379077945E+01  0.22522414651E+02  0.00000000000E+00 0.  1.
</event>
<event>
 7    1  0.1246400E-009  0.4778727E+02  0.7816164E-02  0.1312668E+00
        -11   -1    0    0    0    0  0.00000000000E+00  0.00000000000E+00  0.45593999997E+02  0.45594000000E+02  0.51100000000E-03 0.  1.
         11   -1    0    0    0    0 -0.00000000000E+00 -0.00000000000E+00 -0.45593999997E+02  0.45594000000E+02  0.51100000000E-03 0. -1.
    9900012    2    1    2    0    0 -0.27612803940E+02 -0.32370547840E+02  0.85617840797E+01  0.47787268952E+02  0.19999990461E+02 0.  0.
         12    1    1    2    0    0  0.27612803940E+02  0.32370547840E+02 -0.85617840797E+01  0.43400731048E+02  0.00000000000E+00 0. -1.
         11    1    3    3    0    0 -0.15120216665E+02 -0.60327678232E+01  0.59614844818E+01  0.17336508792E+02  0.51100000000E-03 0. -1.
        -11    1    3    3    0    0 -0.81222504272E+01 -0.13258759986E+02 -0.24988161054E+01  0.15748325326E+02  0.51100000000E-03 0.  1.
        -12    1    3    3    0    0 -0.43703368472E+01 -0.13079020030E+02  0.50991157033E+01  0.14702434835E+02  0.00000000000E+00 0.  1.
</event>
<event>
 7    1  0.1246400E-009  0.4778727E+02  0.7816164E-02  0.1312668E+00
        -11   -1    0    0    0    0  0.00000000000E+00  0.00000000000E+00  0.45593999997E+02  0.45594000000E+02  0.51100000000E-03 0.  1.
         11   -1    0    0    0    0 -0.00000000000E+00 -0.00000000000E+00 -0.45593999997E+02  0.45594000000E+02  0.51100000000E-03 0. -1.
    9900012    2    1    2    0    0  0.22731861471E+02 -0.70664539921E+01  0.36289823314E+02  0.47787267585E+02  0.19999984229E+02 0.  0.
         12    1    1    2    0    0 -0.22731861471E+02  0.70664539921E+01 -0.36289823314E+02  0.43400732415E+02  0.00000000000E+00 0. -1.
         11    1    3    3    0    0  0.14869340696E+01 -0.41127713241E+01  0.84875623525E+01  0.95480142355E+01  0.51100000000E-03 0. -1.
        -11    1    3    3    0    0  0.11107921287E+02  0.60040825992E+01  0.15088092346E+02  0.19674487391E+02  0.51100000000E-03 0.  1.
        -12    1    3    3    0    0  0.10137006114E+02 -0.89577652672E+01  0.12714168616E+02  0.18564765959E+02  0.00000000000E+00 0.  1.
</event>
<event>
 7    1  0.1246400E-009  0.4778727E+02  0.7816164E-02  0.1312668E+00
        -11   -1    0    0    0    0  0.00000000000E+00  0.00000000000E+00  0.45593999997E+02  0.45594000000E+02  0.51100000000E-03 0.  1.
         11   -1    0    0    0    0 -0.00000000000E+00 -0.00000000000E+00 -0.45593999997E+02  0.45594000000E+02  0.51100000000E-03 0. -1.
    9900012    2    1    2    0    0  0.33731726716E+02  0.14568308184E+02  0.23098875301E+02  0.47787273846E+02  0.20000012771E+02 0.  0.
         12    1    1    2    0    0 -0.33731726716E+02 -0.14568308184E+02 -0.23098875301E+02  0.43400726154E+02  0.00000000000E+00 0. -1.
         11    1    3    3    0    0  0.80633043337E+01  0.87173818317E+01  0.10934713430E+02  0.16142415583E+02  0.51100000000E-03 0.  1.
        -11    1    3    3    0    0  0.70142335494E+01 -0.32714868493E+01  0.65363750142E+01  0.10130463814E+02  0.51100000000E-03 0. -1.
         12    1    3    3    0    0  0.18654188833E+02  0.91224132012E+01  0.56277868566E+01  0.21514394449E+02  0.00000000000E+00 0. -1.
</event>
<event>
 7    1  0.1248499E-009  0.4778727E+02  0.7816164E-02  0.1312668E+00
        -11   -1    0    0    0    0  0.00000000000E+00  0.00000000000E+00  0.45593999997E+02  0.45594000000E+02  0.51100000000E-03 0. -1.
         11   -1    0    0    0    0 -0.00000000000E+00 -0.00000000000E+00 -0.45593999997E+02  0.45594000000E+02  0.51100000000E-03 0.  1.
    9900012    2    1    2    0    0  0.13093494312E+02  0.27974096936E+02 -0.30489896754E+02  0.47787268477E+02  0.19999988293E+02 0.  0.
         12    1    1    2    0    0 -0.13093494312E+02 -0.27974096936E+02  0.30489896754E+02  0.43400731523E+02  0.00000000000E+00 0. -1.
         11    1    3    3    0    0  0.80423552580E+00 -0.24765865626E+01 -0.42403184014E+01  0.49760000190E+01  0.51100000000E-03 0. -1.
        -11    1    3    3    0    0  0.77872983739E+01  0.13870601846E+02 -0.82147800516E+01  0.17903022736E+02  0.51100000000E-03 0.  1.
        -12    1    3    3    0    0  0.45019604123E+01  0.16580081652E+02 -0.18034798301E+02  0.24908245721E+02  0.00000000000E+00 0.  1.
</event>
<event>
 7    1  0.1246400E-009  0.4778727E+02  0.7816164E-02  0.1312668E+00
        -11   -1    0    0    0    0  0.00000000000E+00  0.00000000000E+00  0.45593999997E+02  0.45594000000E+02  0.51100000000E-03 0. -1.
         11   -1    0    0    0    0 -0.00000000000E+00 -0.00000000000E+00 -0.45593999997E+02  0.45594000000E+02  0.51100000000E-03 0.  1.
    9900012    2    1    2    0    0  0.39899218228E+02  0.16459011647E+02 -0.45581506459E+01  0.47787269397E+02  0.19999992490E+02 0.  0.
         12    1    1    2    0    0 -0.39899218228E+02 -0.16459011647E+02  0.45581506459E+01  0.43400730603E+02  0.00000000000E+00 0. -1.
         11    1    3    3    0    0  0.10268961457E+01  0.34611332238E+01 -0.30420577884E+01  0.47210247549E+01  0.51100000000E-03 0. -1.
        -11    1    3    3    0    0  0.11210450770E+02  0.81899874413E+01 -0.50387439653E+01  0.14769530858E+02  0.51100000000E-03 0.  1.
        -12    1    3    3    0    0  0.27661871312E+02  0.48078909813E+01  0.35226511078E+01  0.28296713784E+02  0.00000000000E+00 0.  1.
</event>
<event>
 7    1  0.1246400E-009  0.4778727E+02  0.7816164E-02  0.1312668E+00
        -11   -1    0    0    0    0  0.00000000000E+00  0.00000000000E+00  0.45593999997E+02  0.45594000000E+02  0.51100000000E-03 0.  1.
         11   -1    0    0    0    0 -0.00000000000E+00 -0.00000000000E+00 -0.45593999997E+02  0.45594000000E+02  0.51100000000E-03 0. -1.
    9900012    2    1    2    0    0 -0.16742068774E+02  0.24148440250E+02  0.31940246146E+02  0.47787270085E+02  0.19999995624E+02 0.  0.
         12    1    1    2    0    0  0.16742068774E+02 -0.24148440250E+02 -0.31940246146E+02  0.43400729915E+02  0.00000000000E+00 0. -1.
         11    1    3    3    0    0 -0.28698915679E+01  0.71056860891E+01  0.13561455682E+02  0.15576910248E+02  0.51100000000E-03 0.  1.
        -11    1    3    3    0    0  0.24216378860E+01  0.61004773604E+01  0.66612889517E+01  0.93516268550E+01  0.51100000000E-03 0. -1.
        -12    1    3    3    0    0 -0.16293815092E+02  0.10942276800E+02  0.11717501512E+02  0.22858732981E+02  0.00000000000E+00 0.  1.
</event>
<event>
 7    1  0.1246400E-009  0.4778727E+02  0.7816164E-02  0.1312668E+00
        -11   -1    0    0    0    0  0.00000000000E+00  0.00000000000E+00  0.45593999997E+02  0.45594000000E+02  0.51100000000E-03 0.  1.
         11   -1    0    0    0    0 -0.00000000000E+00 -0.00000000000E+00 -0.45593999997E+02  0.45594000000E+02  0.51100000000E-03 0. -1.
    9900012    2    1    2    0    0 -0.41681752016E+02 -0.29867189182E+01  0.11718982665E+02  0.47787268489E+02  0.19999988347E+02 0.  0.
         12    1    1    2    0    0  0.41681752016E+02  0.29867189182E+01 -0.11718982665E+02  0.43400731511E+02  0.00000000000E+00 0. -1.
         11    1    3    3    0    0 -0.84312344663E+01  0.49494979343E+01 -0.10002722229E+01  0.98277051853E+01  0.51100000000E-03 0. -1.
        -11    1    3    3    0    0 -0.24650177318E+02 -0.41551620232E+01  0.43419542460E+01  0.25372212757E+02  0.51100000000E-03 0.  1.
        -12    1    3    3    0    0 -0.86003402313E+01 -0.37810548293E+01  0.83773006420E+01  0.12587350546E+02  0.00000000000E+00 0.  1.
</event>
<event>
 7    1 -0.1246400E-009  0.4778727E+02  0.7816164E-02  0.1312668E+00
        -11   -1    0    0    0    0  0.00000000000E+00  0.00000000000E+00  0.45593999997E+02  0.45594000000E+02  0.51100000000E-03 0. -1.
         11   -1    0    0    0    0 -0.00000000000E+00 -0.00000000000E+00 -0.45593999997E+02  0.45594000000E+02  0.51100000000E-03 0.  1.
    9900012    2    1    2    0    0  0.19331366897E+01  0.43266742769E+02 -0.28063346714E+01  0.47787267730E+02  0.19999984886E+02 0.  0.
         12    1    1    2    0    0 -0.19331366897E+01 -0.43266742769E+02  0.28063346714E+01  0.43400732270E+02  0.00000000000E+00 0. -1.
         11    1    3    3    0    0 -0.98442544348E+00 -0.86675139103E+00 -0.68970200107E+00  0.14819043623E+01  0.51100000000E-03 0. -1.
        -11    1    3    3    0    0  0.10437317061E+01  0.26506341388E+02  0.53662591508E+01  0.27064224489E+02  0.51100000000E-03 0.  1.
        -12    1    3    3    0    0  0.18738304271E+01  0.17627152773E+02 -0.74828918210E+01  0.19241138878E+02  0.00000000000E+00 0.  1.
</event>
<event>
 7    1  0.1246400E-009  0.4778726E+02  0.7816164E-02  0.1312668E+00
        -11   -1    0    0    0    0  0.00000000000E+00  0.00000000000E+00  0.45593999997E+02  0.45594000000E+02  0.51100000000E-03 0.  1.
         11   -1    0    0    0    0 -0.00000000000E+00 -0.00000000000E+00 -0.45593999997E+02  0.45594000000E+02  0.51100000000E-03 0. -1.
    9900012    2    1    2    0    0 -0.30294928752E+02  0.24318414497E+02 -0.19350862602E+02  0.47787264117E+02  0.19999968415E+02 0.  0.
         12    1    1    2    0    0  0.30294928752E+02 -0.24318414497E+02  0.19350862602E+02  0.43400735883E+02  0.00000000000E+00 0. -1.
         11    1    3    3    0    0 -0.40661148084E+01  0.44592217290E+01 -0.86469002264E+01  0.10544516672E+02  0.51100000000E-03 0. -1.
        -11    1    3    3    0    0 -0.27406727551E+02  0.16491535761E+02 -0.86879477501E+01  0.33144832225E+02  0.51100000000E-03 0.  1.
         12    1    3    3    0    0  0.11779136076E+01  0.33676570070E+01 -0.20160146252E+01  0.40979152203E+01  0.00000000000E+00 0. -1.
</event>
<event>
 7    1  0.1246400E-009  0.4778727E+02  0.7816164E-02  0.1312668E+00
        -11   -1    0    0    0    0  0.00000000000E+00  0.00000000000E+00  0.45593999997E+02  0.45594000000E+02  0.51100000000E-03 0.  1.
         11   -1    0    0    0    0 -0.00000000000E+00 -0.00000000000E+00 -0.45593999997E+02  0.45594000000E+02  0.51100000000E-03 0. -1.
    9900012    2    1    2    0    0  0.14133213367E+01  0.42438625418E+02  0.89771231924E+01  0.47787272524E+02  0.20000006747E+02 0.  0.
         12    1    1    2    0    0 -0.14133213367E+01 -0.42438625418E+02 -0.89771231924E+01  0.43400727476E+02  0.00000000000E+00 0. -1.
         11    1    3    3    0    0  0.29759421314E+01  0.15723149395E+01 -0.11944242009E+01  0.35714220237E+01  0.51100000000E-03 0. -1.
        -11    1    3    3    0    0  0.12732590733E+01 -0.47332195668E+00  0.12142322874E+01  0.18219721872E+01  0.51100000000E-03 0.  1.
         12    1    3    3    0    0 -0.28358798680E+01  0.41339632436E+02  0.89573151060E+01  0.42393878313E+02  0.00000000000E+00 0. -1.
</event>
<event>
 7    1  0.1246400E-009  0.4778727E+02  0.7816164E-02  0.1312668E+00
        -11   -1    0    0    0    0  0.00000000000E+00  0.00000000000E+00  0.45593999997E+02  0.45594000000E+02  0.51100000000E-03 0.  1.
         11   -1    0    0    0    0 -0.00000000000E+00 -0.00000000000E+00 -0.45593999997E+02  0.45594000000E+02  0.51100000000E-03 0. -1.
    9900012    2    1    2    0    0 -0.26873249910E+02 -0.32261216003E+02  0.10984788026E+02  0.47787272049E+02  0.20000004581E+02 0.  0.
         12    1    1    2    0    0  0.26873249910E+02  0.32261216003E+02 -0.10984788026E+02  0.43400727951E+02  0.00000000000E+00 0. -1.
         11    1    3    3    0    0 -0.86328720100E+00  0.86441475627E+00 -0.19060796121E+01  0.22639826438E+01  0.51100000000E-03 0. -1.
        -11    1    3    3    0    0 -0.84667186050E+01 -0.19497843221E+02  0.41909509907E+01  0.21665993738E+02  0.51100000000E-03 0.  1.
        -12    1    3    3    0    0 -0.17543244104E+02 -0.13627787538E+02  0.86999166479E+01  0.23857295667E+02  0.00000000000E+00 0.  1.
</event>
<event>
 7    1  0.1246400E-009  0.4778727E+02  0.7816164E-02  0.1312668E+00
        -11   -1    0    0    0    0  0.00000000000E+00  0.00000000000E+00  0.45593999997E+02  0.45594000000E+02  0.51100000000E-03 0.  1.
         11   -1    0    0    0    0 -0.00000000000E+00 -0.00000000000E+00 -0.45593999997E+02  0.45594000000E+02  0.51100000000E-03 0. -1.
    9900012    2    1    2    0    0 -0.14674595089E+02 -0.34434880656E+02  0.21966303073E+02  0.47787271694E+02  0.20000002961E+02 0.  0.
         12    1    1    2    0    0  0.14674595089E+02  0.34434880656E+02 -0.21966303073E+02  0.43400728306E+02  0.00000000000E+00 0. -1.
         11    1    3    3    0    0 -0.11038184762E+02 -0.56344953356E+01  0.10876489006E+02  0.16488998571E+02  0.51100000000E-03 0. -1.
        -11    1    3    3    0    0 -0.22722686427E+01 -0.13673360687E+02  0.72015450286E+01  0.15620059165E+02  0.51100000000E-03 0.  1.
        -12    1    3    3    0    0 -0.13641416842E+01 -0.15127024633E+02  0.38882690390E+01  0.15678213958E+02  0.00000000000E+00 0.  1.
</event>
<event>
 7    1  0.1246400E-009  0.4778727E+02  0.7816164E-02  0.1312668E+00
        -11   -1    0    0    0    0  0.00000000000E+00  0.00000000000E+00  0.45593999997E+02  0.45594000000E+02  0.51100000000E-03 0.  1.
         11   -1    0    0    0    0 -0.00000000000E+00 -0.00000000000E+00 -0.45593999997E+02  0.45594000000E+02  0.51100000000E-03 0. -1.
    9900012    2    1    2    0    0 -0.77108448303E+01 -0.41054404259E+02  0.11777188929E+02  0.47787269405E+02  0.19999992526E+02 0.  0.
         12    1    1    2    0    0  0.77108448303E+01  0.41054404259E+02 -0.11777188929E+02  0.43400730595E+02  0.00000000000E+00 0. -1.
         11    1    3    3    0    0  0.74477346911E+00 -0.37342287086E+00  0.22093108584E+01  0.23611833666E+01  0.51100000000E-03 0. -1.
        -11    1    3    3    0    0 -0.39171711316E+01 -0.33742436396E+02  0.17242418969E+01  0.34012780745E+02  0.51100000000E-03 0.  1.
        -12    1    3    3    0    0 -0.45384471678E+01 -0.69385449926E+01  0.78436361735E+01  0.11413305294E+02  0.00000000000E+00 0.  1.
</event>
<event>
 7    1  0.1246400E-009  0.4778728E+02  0.7816164E-02  0.1312668E+00
        -11   -1    0    0    0    0  0.00000000000E+00  0.00000000000E+00  0.45593999997E+02  0.45594000000E+02  0.51100000000E-03 0.  1.
         11   -1    0    0    0    0 -0.00000000000E+00 -0.00000000000E+00 -0.45593999997E+02  0.45594000000E+02  0.51100000000E-03 0. -1.
    9900012    2    1    2    0    0 -0.33659439363E+02 -0.16359623215E+02  0.21977884375E+02  0.47787279596E+02  0.20000038992E+02 0.  0.
         12    1    1    2    0    0  0.33659439363E+02  0.16359623215E+02 -0.21977884375E+02  0.43400720404E+02  0.00000000000E+00 0. -1.
         11    1    3    3    0    0 -0.16391740456E+02  0.77354725397E-01  0.14144944524E+02  0.21651203079E+02  0.51100000000E-03 0. -1.
        -11    1    3    3    0    0 -0.16148528196E+02 -0.11472322120E+02  0.56533488382E+01  0.20599744927E+02  0.51100000000E-03 0.  1.
        -12    1    3    3    0    0 -0.11191707114E+01 -0.49646558203E+01  0.21795910130E+01  0.55363315904E+01  0.00000000000E+00 0.  1.
</event>
<event>
 7    1  0.1246400E-009  0.4778727E+02  0.7816164E-02  0.1312668E+00
        -11   -1    0    0    0    0  0.00000000000E+00  0.00000000000E+00  0.45593999997E+02  0.45594000000E+02  0.51100000000E-03 0. -1.
         11   -1    0    0    0    0 -0.00000000000E+00 -0.00000000000E+00 -0.45593999997E+02  0.45594000000E+02  0.51100000000E-03 0.  1.
    9900012    2    1    2    0    0  0.67602027156E+01 -0.29659240505E+01 -0.42768284027E+02  0.47787272301E+02  0.20000005729E+02 0.  0.
         12    1    1    2    0    0 -0.67602027156E+01  0.29659240505E+01  0.42768284027E+02  0.43400727699E+02  0.00000000000E+00 0. -1.
         11    1    3    3    0    0 -0.13617541144E+01 -0.51374996436E+01 -0.13949005332E+02  0.14927257849E+02  0.51100000000E-03 0. -1.
        -11    1    3    3    0    0  0.84617031939E+01 -0.23649584844E+01 -0.26147671559E+02  0.27584310356E+02  0.51100000000E-03 0.  1.
         12    1    3    3    0    0 -0.33974636389E+00  0.45365340775E+01 -0.26716071348E+01  0.52757040963E+01  0.00000000000E+00 0. -1.
</event>
<event>
 7    1  0.1344983E-009  0.4778727E+02  0.7816164E-02  0.1312668E+00
        -11   -1    0    0    0    0  0.00000000000E+00  0.00000000000E+00  0.45593999997E+02  0.45594000000E+02  0.51100000000E-03 0. -1.
         11   -1    0    0    0    0 -0.00000000000E+00 -0.00000000000E+00 -0.45593999997E+02  0.45594000000E+02  0.51100000000E-03 0.  1.
    9900012    2    1    2    0    0  0.22497971971E+02  0.63371154231E+01 -0.36569186876E+02  0.47787271856E+02  0.20000003698E+02 0.  0.
         12    1    1    2    0    0 -0.22497971971E+02 -0.63371154231E+01  0.36569186876E+02  0.43400728144E+02  0.00000000000E+00 0. -1.
         11    1    3    3    0    0  0.37961211808E+00  0.19667712265E+01  0.42872313169E+00  0.20484379909E+01  0.51100000000E-03 0. -1.
        -11    1    3    3    0    0  0.37838864648E+01  0.71828868715E+01 -0.14103541703E+02  0.16273338607E+02  0.51100000000E-03 0.  1.
        -12    1    3    3    0    0  0.18334473388E+02 -0.28125426750E+01 -0.22894368305E+02  0.29465495258E+02  0.00000000000E+00 0.  1.
</event>
<event>
 7    1  0.1246400E-009  0.4778727E+02  0.7816164E-02  0.1312668E+00
        -11   -1    0    0    0    0  0.00000000000E+00  0.00000000000E+00  0.45593999997E+02  0.45594000000E+02  0.51100000000E-03 0.  1.
         11   -1    0    0    0    0 -0.00000000000E+00 -0.00000000000E+00 -0.45593999997E+02  0.45594000000E+02  0.51100000000E-03 0. -1.
    9900012    2    1    2    0    0 -0.75278992080E+01  0.92827124785E+01  0.41722720871E+02  0.47787268966E+02  0.19999990521E+02 0.  0.
         12    1    1    2    0    0  0.75278992080E+01 -0.92827124785E+01 -0.41722720871E+02  0.43400731034E+02  0.00000000000E+00 0. -1.
         11    1    3    3    0    0 -0.48090337031E+00  0.47585863896E+01  0.13589978863E+00  0.47847551131E+01  0.51100000000E-03 0. -1.
        -11    1    3    3    0    0 -0.16914861571E+01 -0.19109046487E+01  0.10829480344E+02  0.11126110136E+02  0.51100000000E-03 0.  1.
         12    1    3    3    0    0 -0.53555096806E+01  0.64350307376E+01  0.30757340739E+02  0.31876403716E+02  0.00000000000E+00 0. -1.
</event>
<event>
 7    1  0.1246400E-009  0.4778728E+02  0.7816164E-02  0.1312668E+00
        -11   -1    0    0    0    0  0.00000000000E+00  0.00000000000E+00  0.45593999997E+02  0.45594000000E+02  0.51100000000E-03 0.  1.
         11   -1    0    0    0    0 -0.00000000000E+00 -0.00000000000E+00 -0.45593999997E+02  0.45594000000E+02  0.51100000000E-03 0. -1.
    9900012    2    1    2    0    0  0.33478233875E+02 -0.17573967858E+02  0.21306955809E+02  0.47787275864E+02  0.20000021974E+02 0.  0.
         12    1    1    2    0    0 -0.33478233875E+02  0.17573967858E+02 -0.21306955809E+02  0.43400724136E+02  0.00000000000E+00 0. -1.
         11    1    3    3    0    0  0.10561110355E+02 -0.12498740057E+02  0.94810943416E+01  0.18911549516E+02  0.51100000000E-03 0. -1.
        -11    1    3    3    0    0  0.11088023989E+02 -0.16534585668E+01  0.12183536357E+02  0.16556471835E+02  0.51100000000E-03 0.  1.
         12    1    3    3    0    0  0.11829099532E+02 -0.34217692350E+01 -0.35767488911E+00  0.12319254513E+02  0.00000000000E+00 0. -1.
</event>
<event>
 7    1  0.1246400E-009  0.4778727E+02  0.7816164E-02  0.1312668E+00
        -11   -1    0    0    0    0  0.00000000000E+00  0.00000000000E+00  0.45593999997E+02  0.45594000000E+02  0.51100000000E-03 0.  1.
         11   -1    0    0    0    0 -0.00000000000E+00 -0.00000000000E+00 -0.45593999997E+02  0.45594000000E+02  0.51100000000E-03 0. -1.
    9900012    2    1    2    0    0 -0.11328344782E+02  0.14773342660E+02  0.39205107004E+02  0.47787268854E+02  0.19999990011E+02 0.  0.
         12    1    1    2    0    0  0.11328344782E+02 -0.14773342660E+02 -0.39205107004E+02  0.43400731146E+02  0.00000000000E+00 0. -1.
         11    1    3    3    0    0 -0.40894799455E+01 -0.21852879839E+01  0.85424829437E+01  0.97197399606E+01  0.51100000000E-03 0. -1.
        -11    1    3    3    0    0  0.30220936564E+01  0.53052656951E+01  0.42849603981E+01  0.74592077352E+01  0.51100000000E-03 0.  1.
        -12    1    3    3    0    0 -0.10260958493E+02  0.11653364949E+02  0.26377663662E+02  0.30608321158E+02  0.00000000000E+00 0.  1.
</event>
<event>
 7    1  0.1246400E-009  0.4778727E+02  0.7816164E-02  0.1312668E+00
        -11   -1    0    0    0    0  0.00000000000E+00  0.00000000000E+00  0.45593999997E+02  0.45594000000E+02  0.51100000000E-03 0. -1.
         11   -1    0    0    0    0 -0.00000000000E+00 -0.00000000000E+00 -0.45593999997E+02  0.45594000000E+02  0.51100000000E-03 0.  1.
    9900012    2    1    2    0    0  0.44071054986E+01 -0.40749750190E+02  0.14270897202E+02  0.47787271592E+02  0.20000002495E+02 0.  0.
         12    1    1    2    0    0 -0.44071054986E+01  0.40749750190E+02 -0.14270897202E+02  0.43400728408E+02  0.00000000000E+00 0. -1.
         11    1    3    3    0    0 -0.80895873230E+00  0.12770815384E+01 -0.94091346688E-01  0.15146633054E+01  0.51100000000E-03 0. -1.
        -11    1    3    3    0    0 -0.35567534041E+00 -0.22451167268E+02  0.12831596410E+02  0.25861772626E+02  0.51100000000E-03 0.  1.
         12    1    3    3    0    0  0.55717395713E+01 -0.19575664460E+02  0.15333921385E+01  0.20410835661E+02  0.00000000000E+00 0. -1.
</event>
<event>
 7    1  0.1246400E-009  0.4778727E+02  0.7816164E-02  0.1312668E+00
        -11   -1    0    0    0    0  0.00000000000E+00  0.00000000000E+00  0.45593999997E+02  0.45594000000E+02  0.51100000000E-03 0.  1.
         11   -1    0    0    0    0 -0.00000000000E+00 -0.00000000000E+00 -0.45593999997E+02  0.45594000000E+02  0.51100000000E-03 0. -1.
    9900012    2    1    2    0    0 -0.39625296753E+02 -0.19374175053E+01  0.17598452545E+02  0.47787271189E+02  0.20000000658E+02 0.  0.
         12    1    1    2    0    0  0.39625296753E+02  0.19374175053E+01 -0.17598452545E+02  0.43400728811E+02  0.00000000000E+00 0. -1.
         11    1    3    3    0    0  0.16658593482E+00  0.20128131666E+01  0.17996877990E+01  0.27051883765E+01  0.51100000000E-03 0. -1.
        -11    1    3    3    0    0 -0.24731401330E+02  0.40912738969E+01  0.80074238320E+01  0.26315386574E+02  0.51100000000E-03 0.  1.
         12    1    3    3    0    0 -0.15060481358E+02 -0.80415045689E+01  0.77913409143E+01  0.18766696238E+02  0.00000000000E+00 0. -1.
</event>
<event>
 7    1  0.1246400E-009  0.4778727E+02  0.7816164E-02  0.1312668E+00
        -11   -1    0    0    0    0  0.00000000000E+00  0.00000000000E+00  0.45593999997E+02  0.45594000000E+02  0.51100000000E-03 0.  1.
         11   -1    0    0    0    0 -0.00000000000E+00 -0.00000000000E+00 -0.45593999997E+02  0.45594000000E+02  0.51100000000E-03 0. -1.
    9900012    2    1    2    0    0  0.42062977095E+02 -0.83433724449E+01  0.66870942151E+01  0.47787272645E+02  0.20000007299E+02 0.  0.
         12    1    1    2    0    0 -0.42062977095E+02  0.83433724449E+01 -0.66870942151E+01  0.43400727355E+02  0.00000000000E+00 0. -1.
         11    1    3    3    0    0 -0.48179386412E-01 -0.23725219696E+01 -0.24698158227E+00  0.23858293972E+01  0.51100000000E-03 0. -1.
        -11    1    3    3    0    0  0.38471334200E+01 -0.33418717655E+01  0.47797753445E+01  0.69867585512E+01  0.51100000000E-03 0.  1.
         12    1    3    3    0    0  0.38264023062E+02 -0.26289787098E+01  0.21543004529E+01  0.38414684697E+02  0.00000000000E+00 0. -1.
</event>
<event>
 7    1  0.1246400E-009  0.4778727E+02  0.7816164E-02  0.1312668E+00
        -11   -1    0    0    0    0  0.00000000000E+00  0.00000000000E+00  0.45593999997E+02  0.45594000000E+02  0.51100000000E-03 0.  1.
         11   -1    0    0    0    0 -0.00000000000E+00 -0.00000000000E+00 -0.45593999997E+02  0.45594000000E+02  0.51100000000E-03 0. -1.
    9900012    2    1    2    0    0 -0.11256526992E+02 -0.22115116854E+02  0.35606682309E+02  0.47787267075E+02  0.19999981901E+02 0.  0.
         12    1    1    2    0    0  0.11256526992E+02  0.22115116854E+02 -0.35606682309E+02  0.43400732925E+02  0.00000000000E+00 0. -1.
         11    1    3    3    0    0 -0.67750521862E+00 -0.10335570461E+02  0.59554470133E+01  0.11947819025E+02  0.51100000000E-03 0.  1.
        -11    1    3    3    0    0 -0.46190109451E+01 -0.95042626533E+01  0.79607789192E+01  0.13230278605E+02  0.51100000000E-03 0. -1.
        -12    1    3    3    0    0 -0.59600108279E+01 -0.22752837402E+01  0.21690456376E+02  0.22609169445E+02  0.00000000000E+00 0.  1.
</event>
<event>
 7    1  0.1504856E-009  0.4778727E+02  0.7816164E-02  0.1312668E+00
        -11   -1    0    0    0    0  0.00000000000E+00  0.00000000000E+00  0.45593999997E+02  0.45594000000E+02  0.51100000000E-03 0. -1.
         11   -1    0    0    0    0 -0.00000000000E+00 -0.00000000000E+00 -0.45593999997E+02  0.45594000000E+02  0.51100000000E-03 0.  1.
    9900012    2    1    2    0    0  0.13424507648E+02  0.39262292933E+02 -0.12723145222E+02  0.47787268713E+02  0.19999989370E+02 0.  0.
         12    1    1    2    0    0 -0.13424507648E+02 -0.39262292933E+02  0.12723145222E+02  0.43400731287E+02  0.00000000000E+00 0. -1.
         11    1    3    3    0    0 -0.38800929600E+01  0.68468685221E+01 -0.27671417301E+01  0.83421701945E+01  0.51100000000E-03 0. -1.
        -11    1    3    3    0    0  0.88290716463E+01  0.15932947073E+02 -0.10264416900E+02  0.20908600219E+02  0.51100000000E-03 0.  1.
        -12    1    3    3    0    0  0.84755289617E+01  0.16482477337E+02  0.30841340848E+00  0.18536498299E+02  0.00000000000E+00 0.  1.
</event>
<event>
 7    1  0.1246400E-009  0.4778728E+02  0.7816164E-02  0.1312668E+00
        -11   -1    0    0    0    0  0.00000000000E+00  0.00000000000E+00  0.45593999997E+02  0.45594000000E+02  0.51100000000E-03 0.  1.
         11   -1    0    0    0    0 -0.00000000000E+00 -0.00000000000E+00 -0.45593999997E+02  0.45594000000E+02  0.51100000000E-03 0. -1.
    9900012    2    1    2    0    0 -0.16958118494E+02  0.29590777724E+02  0.26840832138E+02  0.47787283657E+02  0.20000057508E+02 0.  0.
         12    1    1    2    0    0  0.16958118494E+02 -0.29590777724E+02 -0.26840832138E+02  0.43400716343E+02  0.00000000000E+00 0. -1.
         11    1    3    3    0    0 -0.54157906969E+01  0.14830414083E+02  0.49024046915E+01  0.16531955201E+02  0.51100000000E-03 0. -1.
        -11    1    3    3    0    0 -0.12279776429E+02  0.16344058662E+02  0.19469807419E+02  0.28231092148E+02  0.51100000000E-03 0.  1.
         12    1    3    3    0    0  0.73744863136E+00 -0.15836950215E+01  0.24686200281E+01  0.30242363082E+01  0.00000000000E+00 0. -1.
</event>
<event>
 7    1  0.1246400E-009  0.4778725E+02  0.7816164E-02  0.1312668E+00
        -11   -1    0    0    0    0  0.00000000000E+00  0.00000000000E+00  0.45593999997E+02  0.45594000000E+02  0.51100000000E-03 0.  1.
         11   -1    0    0    0    0 -0.00000000000E+00 -0.00000000000E+00 -0.45593999997E+02  0.45594000000E+02  0.51100000000E-03 0. -1.
    9900012    2    1    2    0    0  0.17731845998E+01  0.41306463215E+02  0.13200655696E+02  0.47787246576E+02  0.19999888439E+02 0.  0.
         12    1    1    2    0    0 -0.17731845998E+01 -0.41306463215E+02 -0.13200655696E+02  0.43400753424E+02  0.00000000000E+00 0. -1.
         11    1    3    3    0    0  0.50805178103E+01  0.12879981011E+02  0.48693904819E+00  0.13854338019E+02  0.51100000000E-03 0. -1.
        -11    1    3    3    0    0  0.49450941239E+01  0.80632587472E+01  0.45152020069E+01  0.10481276017E+02  0.51100000000E-03 0.  1.
        -12    1    3    3    0    0 -0.82524273345E+01  0.20363223457E+02  0.81985146405E+01  0.23451632540E+02  0.00000000000E+00 0.  1.
</event>
<event>
 7    1  0.1246400E-009  0.4778727E+02  0.7816164E-02  0.1312668E+00
        -11   -1    0    0    0    0  0.00000000000E+00  0.00000000000E+00  0.45593999997E+02  0.45594000000E+02  0.51100000000E-03 0.  1.
         11   -1    0    0    0    0 -0.00000000000E+00 -0.00000000000E+00 -0.45593999997E+02  0.45594000000E+02  0.51100000000E-03 0. -1.
    9900012    2    1    2    0    0 -0.19288554418E+01 -0.35517151696E+02  0.24868357899E+02  0.47787265300E+02  0.19999973807E+02 0.  0.
         12    1    1    2    0    0  0.19288554418E+01  0.35517151696E+02 -0.24868357899E+02  0.43400734700E+02  0.00000000000E+00 0. -1.
         11    1    3    3    0    0  0.24739253998E+01 -0.17972479777E+02  0.59269563536E+01  0.19085574345E+02  0.51100000000E-03 0. -1.
        -11    1    3    3    0    0 -0.14561422090E+01 -0.14931272132E+02  0.19626974039E+02  0.24703873134E+02  0.51100000000E-03 0.  1.
         12    1    3    3    0    0 -0.29466386327E+01 -0.26133997872E+01 -0.68557249385E+00  0.39978178202E+01  0.00000000000E+00 0. -1.
</event>
<event>
 7    1  0.1246400E-009  0.4778727E+02  0.7816164E-02  0.1312668E+00
        -11   -1    0    0    0    0  0.00000000000E+00  0.00000000000E+00  0.45593999997E+02  0.45594000000E+02  0.51100000000E-03 0.  1.
         11   -1    0    0    0    0 -0.00000000000E+00 -0.00000000000E+00 -0.45593999997E+02  0.45594000000E+02  0.51100000000E-03 0. -1.
    9900012    2    1    2    0    0 -0.20383802981E+02  0.22378228272E+02  0.31102069152E+02  0.47787271549E+02  0.20000002300E+02 0.  0.
         12    1    1    2    0    0  0.20383802981E+02 -0.22378228272E+02 -0.31102069152E+02  0.43400728451E+02  0.00000000000E+00 0. -1.
         11    1    3    3    0    0 -0.26478965467E+01 -0.15020779676E+01 -0.13989707049E+01  0.33503303773E+01  0.51100000000E-03 0. -1.
        -11    1    3    3    0    0 -0.27365741453E+01  0.79493317578E+01  0.83877283287E+01  0.11875803140E+02  0.51100000000E-03 0.  1.
         12    1    3    3    0    0 -0.14999332289E+02  0.15930974482E+02  0.24113311528E+02  0.32561138031E+02  0.00000000000E+00 0. -1.
</event>
<event>
 7    1  0.1246400E-009  0.4778727E+02  0.7816164E-02  0.1312668E+00
        -11   -1    0    0    0    0  0.00000000000E+00  0.00000000000E+00  0.45593999997E+02  0.45594000000E+02  0.51100000000E-03 0.  1.
         11   -1    0    0    0    0 -0.00000000000E+00 -0.00000000000E+00 -0.45593999997E+02  0.45594000000E+02  0.51100000000E-03 0. -1.
    9900012    2    1    2    0    0  0.53809156920E+01  0.42260150198E+02  0.82914888020E+01  0.47787270341E+02  0.19999996791E+02 0.  0.
         12    1    1    2    0    0 -0.53809156920E+01 -0.42260150198E+02 -0.82914888020E+01  0.43400729659E+02  0.00000000000E+00 0. -1.
         11    1    3    3    0    0  0.10495976070E+02  0.24998141569E+02  0.82162382208E+01  0.28329828208E+02  0.51100000000E-03 0.  1.
        -11    1    3    3    0    0 -0.60121827064E+00  0.89501816506E+01 -0.30835144248E+01  0.94855298458E+01  0.51100000000E-03 0. -1.
        -12    1    3    3    0    0 -0.45138421071E+01  0.83118269786E+01  0.31587650060E+01  0.99719122867E+01  0.00000000000E+00 0.  1.
</event>
<event>
 7    1  0.1246400E-009  0.4778727E+02  0.7816164E-02  0.1312668E+00
        -11   -1    0    0    0    0  0.00000000000E+00  0.00000000000E+00  0.45593999997E+02  0.45594000000E+02  0.51100000000E-03 0.  1.
         11   -1    0    0    0    0 -0.00000000000E+00 -0.00000000000E+00 -0.45593999997E+02  0.45594000000E+02  0.51100000000E-03 0. -1.
    9900012    2    1    2    0    0  0.29544424080E+02  0.25679021197E+02  0.18744018960E+02  0.47787269930E+02  0.19999994917E+02 0.  0.
         12    1    1    2    0    0 -0.29544424080E+02 -0.25679021197E+02 -0.18744018960E+02  0.43400730070E+02  0.00000000000E+00 0. -1.
         11    1    3    3    0    0  0.36856832097E+01  0.77784921478E+01  0.11929806432E+02  0.14710862741E+02  0.51100000000E-03 0. -1.
        -11    1    3    3    0    0  0.51434286125E+01  0.58016645044E+01 -0.10644499720E+01  0.78260604980E+01  0.51100000000E-03 0.  1.
         12    1    3    3    0    0  0.20715312258E+02  0.12098864545E+02  0.78786625004E+01  0.25250346691E+02  0.00000000000E+00 0. -1.
</event>
<event>
 7    1  0.1246400E-009  0.4778729E+02  0.7816164E-02  0.1312668E+00
        -11   -1    0    0    0    0  0.00000000000E+00  0.00000000000E+00  0.45593999997E+02  0.45594000000E+02  0.51100000000E-03 0.  1.
         11   -1    0    0    0    0 -0.00000000000E+00 -0.00000000000E+00 -0.45593999997E+02  0.45594000000E+02  0.51100000000E-03 0. -1.
    9900012    2    1    2    0    0  0.21257057806E+02  0.27551545517E+01  0.37738153180E+02  0.47787290459E+02  0.20000088520E+02 0.  0.
         12    1    1    2    0    0 -0.21257057806E+02 -0.27551545517E+01 -0.37738153180E+02  0.43400709541E+02  0.00000000000E+00 0. -1.
         11    1    3    3    0    0  0.90066559023E+01  0.69848315736E+01  0.20026849624E+02  0.23043055978E+02  0.51100000000E-03 0. -1.
        -11    1    3    3    0    0  0.47449639544E+01 -0.59267526193E+01  0.14576686774E+02  0.16435354487E+02  0.51100000000E-03 0.  1.
         12    1    3    3    0    0  0.75054379496E+01  0.16970755975E+01  0.31346167819E+01  0.83088799948E+01  0.00000000000E+00 0. -1.
</event>
<event>
 7    1  0.1246400E-009  0.4778727E+02  0.7816164E-02  0.1312668E+00
        -11   -1    0    0    0    0  0.00000000000E+00  0.00000000000E+00  0.45593999997E+02  0.45594000000E+02  0.51100000000E-03 0.  1.
         11   -1    0    0    0    0 -0.00000000000E+00 -0.00000000000E+00 -0.45593999997E+02  0.45594000000E+02  0.51100000000E-03 0. -1.
    9900012    2    1    2    0    0 -0.21339505343E+02 -0.21057880618E+02  0.31381755040E+02  0.47787269894E+02  0.19999994752E+02 0.  0.
         12    1    1    2    0    0  0.21339505343E+02  0.21057880618E+02 -0.31381755040E+02  0.43400730106E+02  0.00000000000E+00 0. -1.
         11    1    3    3    0    0 -0.13547048809E+02 -0.22341976492E+01  0.17883269166E+02  0.22546074756E+02  0.51100000000E-03 0. -1.
        -11    1    3    3    0    0 -0.76558380830E+00 -0.21440818006E+01  0.44668529361E+01  0.50135796343E+01  0.51100000000E-03 0.  1.
        -12    1    3    3    0    0 -0.70268727252E+01 -0.16679601168E+02  0.90316329377E+01  0.20227615503E+02  0.00000000000E+00 0.  1.
</event>
<event>
 7    1  0.1246400E-009  0.4778727E+02  0.7816164E-02  0.1312668E+00
        -11   -1    0    0    0    0  0.00000000000E+00  0.00000000000E+00  0.45593999997E+02  0.45594000000E+02  0.51100000000E-03 0.  1.
         11   -1    0    0    0    0 -0.00000000000E+00 -0.00000000000E+00 -0.45593999997E+02  0.45594000000E+02  0.51100000000E-03 0. -1.
    9900012    2    1    2    0    0 -0.37410913597E+02 -0.14104424757E+02  0.16885262755E+02  0.47787270143E+02  0.19999995888E+02 0.  0.
         12    1    1    2    0    0  0.37410913597E+02  0.14104424757E+02 -0.16885262755E+02  0.43400729857E+02  0.00000000000E+00 0. -1.
         11    1    3    3    0    0 -0.10983509689E+02  0.20145171043E+01  0.18159981172E+01  0.11313426257E+02  0.51100000000E-03 0. -1.
        -11    1    3    3    0    0 -0.11510696148E+02 -0.50382030058E+01  0.12484772513E+02  0.17712965881E+02  0.51100000000E-03 0.  1.
         12    1    3    3    0    0 -0.14916707760E+02 -0.11080738855E+02  0.25844921249E+01  0.18760878005E+02  0.00000000000E+00 0. -1.
</event>
<event>
 7    1  0.1246400E-009  0.4778727E+02  0.7816164E-02  0.1312668E+00
        -11   -1    0    0    0    0  0.00000000000E+00  0.00000000000E+00  0.45593999997E+02  0.45594000000E+02  0.51100000000E-03 0.  1.
         11   -1    0    0    0    0 -0.00000000000E+00 -0.00000000000E+00 -0.45593999997E+02  0.45594000000E+02  0.51100000000E-03 0. -1.
    9900012    2    1    2    0    0  0.73346679410E+01  0.28453900717E+02  0.31940591177E+02  0.47787272073E+02  0.20000004690E+02 0.  0.
         12    1    1    2    0    0 -0.73346679410E+01 -0.28453900717E+02 -0.31940591177E+02  0.43400727927E+02  0.00000000000E+00 0. -1.
         11    1    3    3    0    0  0.91673624956E+00 -0.18397489015E+01  0.36681057975E+00  0.20879730923E+01  0.51100000000E-03 0. -1.
        -11    1    3    3    0    0  0.59002553126E+01  0.77118095125E+01  0.53415592639E+01  0.11082295536E+02  0.51100000000E-03 0.  1.
         12    1    3    3    0    0  0.51767637885E+00  0.22581840106E+02  0.26232221333E+02  0.34617003445E+02  0.00000000000E+00 0. -1.
</event>
<event>
 7    1  0.1246400E-009  0.4778727E+02  0.7816164E-02  0.1312668E+00
        -11   -1    0    0    0    0  0.00000000000E+00  0.00000000000E+00  0.45593999997E+02  0.45594000000E+02  0.51100000000E-03 0.  1.
         11   -1    0    0    0    0 -0.00000000000E+00 -0.00000000000E+00 -0.45593999997E+02  0.45594000000E+02  0.51100000000E-03 0. -1.
    9900012    2    1    2    0    0  0.18033469585E+02  0.14722822827E+02  0.36628617037E+02  0.47787272779E+02  0.20000007910E+02 0.  0.
         12    1    1    2    0    0 -0.18033469585E+02 -0.14722822827E+02 -0.36628617037E+02  0.43400727221E+02  0.00000000000E+00 0. -1.
         11    1    3    3    0    0  0.22115141549E+01  0.69428379067E+01  0.77372026204E+01  0.10628174712E+02  0.51100000000E-03 0. -1.
        -11    1    3    3    0    0  0.18879950188E+02  0.69479615577E+01  0.25953532362E+02  0.32837669394E+02  0.51100000000E-03 0.  1.
        -12    1    3    3    0    0 -0.30579947578E+01  0.83202336243E+00  0.29378820540E+01  0.43214286733E+01  0.00000000000E+00 0.  1.
</event>
<event>
 7    1  0.1246400E-009  0.4778727E+02  0.7816164E-02  0.1312668E+00
        -11   -1    0    0    0    0  0.00000000000E+00  0.00000000000E+00  0.45593999997E+02  0.45594000000E+02  0.51100000000E-03 0. -1.
         11   -1    0    0    0    0 -0.00000000000E+00 -0.00000000000E+00 -0.45593999997E+02  0.45594000000E+02  0.51100000000E-03 0.  1.
    9900012    2    1    2    0    0 -0.30395158011E+02 -0.16296255085E+02 -0.26347483783E+02  0.47787268877E+02  0.19999990118E+02 0.  0.
         12    1    1    2    0    0  0.30395158011E+02  0.16296255085E+02  0.26347483783E+02  0.43400731123E+02  0.00000000000E+00 0. -1.
         11    1    3    3    0    0 -0.59258513642E+01 -0.16588691916E+01  0.64706414655E+00  0.61875886787E+01  0.51100000000E-03 0. -1.
        -11    1    3    3    0    0 -0.34194831173E+01  0.19125474294E-01 -0.10648764889E+02  0.11184338357E+02  0.51100000000E-03 0.  1.
        -12    1    3    3    0    0 -0.21049823529E+02 -0.14656511368E+02 -0.16345783041E+02  0.30415341841E+02  0.00000000000E+00 0.  1.
</event>
<event>
 7    1  0.1246400E-009  0.4778727E+02  0.7816164E-02  0.1312668E+00
        -11   -1    0    0    0    0  0.00000000000E+00  0.00000000000E+00  0.45593999997E+02  0.45594000000E+02  0.51100000000E-03 0.  1.
         11   -1    0    0    0    0 -0.00000000000E+00 -0.00000000000E+00 -0.45593999997E+02  0.45594000000E+02  0.51100000000E-03 0. -1.
    9900012    2    1    2    0    0 -0.17345157001E+02 -0.10730907663E+02  0.38309480988E+02  0.47787272077E+02  0.20000004708E+02 0.  0.
         12    1    1    2    0    0  0.17345157001E+02  0.10730907663E+02 -0.38309480988E+02  0.43400727923E+02  0.00000000000E+00 0. -1.
         11    1    3    3    0    0  0.19194706644E+01  0.18121537561E+01  0.75080034543E+01  0.79585416376E+01  0.51100000000E-03 0.  1.
        -11    1    3    3    0    0 -0.74312040507E+01 -0.11059200044E+02  0.16389569721E+02  0.21122184905E+02  0.51100000000E-03 0. -1.
        -12    1    3    3    0    0 -0.11833423615E+02 -0.14838613750E+01  0.14411907812E+02  0.18706545534E+02  0.00000000000E+00 0.  1.
</event>
<event>
 7    1  0.1369471E-009  0.4778726E+02  0.7816164E-02  0.1312668E+00
        -11   -1    0    0    0    0  0.00000000000E+00  0.00000000000E+00  0.45593999997E+02  0.45594000000E+02  0.51100000000E-03 0.  1.
         11   -1    0    0    0    0 -0.00000000000E+00 -0.00000000000E+00 -0.45593999997E+02  0.45594000000E+02  0.51100000000E-03 0. -1.
    9900012    2    1    2    0    0 -0.28600440267E+02  0.32287552886E+02  0.48117421644E+01  0.47787261326E+02  0.19999955688E+02 0.  0.
         12    1    1    2    0    0  0.28600440267E+02 -0.32287552886E+02 -0.48117421644E+01  0.43400738674E+02  0.00000000000E+00 0. -1.
         11    1    3    3    0    0 -0.87890690728E+01  0.23297268936E+01 -0.38138679373E+01  0.98600685327E+01  0.51100000000E-03 0. -1.
        -11    1    3    3    0    0 -0.12969741723E+02  0.13600325302E+02  0.72504959285E+01  0.20143305095E+02  0.51100000000E-03 0.  1.
        -12    1    3    3    0    0 -0.68416294706E+01  0.16357500690E+02  0.13751141731E+01  0.17783887698E+02  0.00000000000E+00 0.  1.
</event>
<event>
 7    1  0.1246400E-009  0.4778727E+02  0.7816164E-02  0.1312668E+00
        -11   -1    0    0    0    0  0.00000000000E+00  0.00000000000E+00  0.45593999997E+02  0.45594000000E+02  0.51100000000E-03 0.  1.
         11   -1    0    0    0    0 -0.00000000000E+00 -0.00000000000E+00 -0.45593999997E+02  0.45594000000E+02  0.51100000000E-03 0. -1.
    9900012    2    1    2    0    0  0.12119756972E+01  0.10053368075E+02  0.42202897548E+02  0.47787266640E+02  0.19999979919E+02 0.  0.
         12    1    1    2    0    0 -0.12119756972E+01 -0.10053368075E+02 -0.42202897548E+02  0.43400733360E+02  0.00000000000E+00 0. -1.
         11    1    3    3    0    0  0.40663234108E+01  0.31557309393E+01  0.84763689168E+01  0.99167763975E+01  0.51100000000E-03 0. -1.
        -11    1    3    3    0    0  0.42120169341E+01  0.86947101130E+01  0.15824847868E+02  0.18540897522E+02  0.51100000000E-03 0.  1.
         12    1    3    3    0    0 -0.70663646477E+01 -0.17970729773E+01  0.17901680763E+02  0.19329592721E+02  0.00000000000E+00 0. -1.
</event>
<event>
 7    1  0.1246400E-009  0.4778727E+02  0.7816164E-02  0.1312668E+00
        -11   -1    0    0    0    0  0.00000000000E+00  0.00000000000E+00  0.45593999997E+02  0.45594000000E+02  0.51100000000E-03 0.  1.
         11   -1    0    0    0    0 -0.00000000000E+00 -0.00000000000E+00 -0.45593999997E+02  0.45594000000E+02  0.51100000000E-03 0. -1.
    9900012    2    1    2    0    0  0.62964803386E+01  0.28993294694E+02  0.31675961139E+02  0.47787270560E+02  0.19999997790E+02 0.  0.
         12    1    1    2    0    0 -0.62964803386E+01 -0.28993294694E+02 -0.31675961139E+02  0.43400729440E+02  0.00000000000E+00 0. -1.
         11    1    3    3    0    0 -0.59577858992E+01  0.77100194042E+01  0.40631454433E+01  0.10556929629E+02  0.51100000000E-03 0. -1.
        -11    1    3    3    0    0  0.30000636410E+01  0.96458347765E+01  0.11432764500E+02  0.15256166450E+02  0.51100000000E-03 0.  1.
         12    1    3    3    0    0  0.92542025968E+01  0.11637440513E+02  0.16180051196E+02  0.21974174480E+02  0.00000000000E+00 0. -1.
</event>
<event>
 7    1  0.1246400E-009  0.4778727E+02  0.7816164E-02  0.1312668E+00
        -11   -1    0    0    0    0  0.00000000000E+00  0.00000000000E+00  0.45593999997E+02  0.45594000000E+02  0.51100000000E-03 0.  1.
         11   -1    0    0    0    0 -0.00000000000E+00 -0.00000000000E+00 -0.45593999997E+02  0.45594000000E+02  0.51100000000E-03 0. -1.
    9900012    2    1    2    0    0  0.26287825658E+02  0.29307274390E+02 -0.18266283063E+02  0.47787271816E+02  0.20000003516E+02 0.  0.
         12    1    1    2    0    0 -0.26287825658E+02 -0.29307274390E+02  0.18266283063E+02  0.43400728184E+02  0.00000000000E+00 0. -1.
         11    1    3    3    0    0  0.71150738480E+00  0.57099668741E+01 -0.77462130144E+01  0.96495482168E+01  0.51100000000E-03 0. -1.
        -11    1    3    3    0    0 -0.40263659740E+00  0.41332439554E+01 -0.61179194017E+00  0.41976316493E+01  0.51100000000E-03 0.  1.
        -12    1    3    3    0    0  0.25978954871E+02  0.19464063561E+02 -0.99082781082E+01  0.33940091949E+02  0.00000000000E+00 0.  1.
</event>
<event>
 7    1  0.1246400E-009  0.4778726E+02  0.7816164E-02  0.1312668E+00
        -11   -1    0    0    0    0  0.00000000000E+00  0.00000000000E+00  0.45593999997E+02  0.45594000000E+02  0.51100000000E-03 0. -1.
         11   -1    0    0    0    0 -0.00000000000E+00 -0.00000000000E+00 -0.45593999997E+02  0.45594000000E+02  0.51100000000E-03 0.  1.
    9900012    2    1    2    0    0 -0.30193911617E+02  0.30265584306E+02  0.74797091253E+01  0.47787263362E+02  0.19999964974E+02 0.  0.
         12    1    1    2    0    0  0.30193911617E+02 -0.30265584306E+02 -0.74797091253E+01  0.43400736638E+02  0.00000000000E+00 0. -1.
         11    1    3    3    0    0 -0.57321388661E+01  0.43308614270E+01 -0.41274810660E+01  0.82855221254E+01  0.51100000000E-03 0. -1.
        -11    1    3    3    0    0 -0.16525317897E+02  0.21821374174E+02  0.38033930106E+01  0.27635562254E+02  0.51100000000E-03 0.  1.
         12    1    3    3    0    0 -0.79364548536E+01  0.41133487044E+01  0.78037971807E+01  0.11866178983E+02  0.00000000000E+00 0. -1.
</event>
<event>
 7    1  0.1586274E-009  0.4778727E+02  0.7816164E-02  0.1312668E+00
        -11   -1    0    0    0    0  0.00000000000E+00  0.00000000000E+00  0.45593999997E+02  0.45594000000E+02  0.51100000000E-03 0. -1.
         11   -1    0    0    0    0 -0.00000000000E+00 -0.00000000000E+00 -0.45593999997E+02  0.45594000000E+02  0.51100000000E-03 0.  1.
    9900012    2    1    2    0    0  0.22062665523E+02  0.20162281689E+02 -0.31469737505E+02  0.47787271993E+02  0.20000004326E+02 0.  0.
         12    1    1    2    0    0 -0.22062665523E+02 -0.20162281689E+02  0.31469737505E+02  0.43400728007E+02  0.00000000000E+00 0. -1.
         11    1    3    3    0    0  0.28408904779E+01  0.12116726797E+02 -0.73123755453E+01  0.14434561419E+02  0.51100000000E-03 0. -1.
        -11    1    3    3    0    0  0.45251944343E+01 -0.20037709471E+01 -0.33919495601E+01  0.59998170602E+01  0.51100000000E-03 0.  1.
        -12    1    3    3    0    0  0.14696580611E+02  0.10049325839E+02 -0.20765412400E+02  0.27352893514E+02  0.00000000000E+00 0.  1.
</event>
<event>
 7    1  0.1246400E-009  0.4778728E+02  0.7816164E-02  0.1312668E+00
        -11   -1    0    0    0    0  0.00000000000E+00  0.00000000000E+00  0.45593999997E+02  0.45594000000E+02  0.51100000000E-03 0.  1.
         11   -1    0    0    0    0 -0.00000000000E+00 -0.00000000000E+00 -0.45593999997E+02  0.45594000000E+02  0.51100000000E-03 0. -1.
    9900012    2    1    2    0    0  0.31442318795E+02 -0.63605512992E+01  0.29232633352E+02  0.47787275620E+02  0.20000020861E+02 0.  0.
         12    1    1    2    0    0 -0.31442318795E+02  0.63605512992E+01 -0.29232633352E+02  0.43400724380E+02  0.00000000000E+00 0. -1.
         11    1    3    3    0    0  0.86556959231E+01 -0.82310691994E+00  0.29566689714E+01  0.91837066907E+01  0.51100000000E-03 0. -1.
        -11    1    3    3    0    0  0.12412180417E+02  0.66776553928E+00  0.22894067261E+02  0.26050843547E+02  0.51100000000E-03 0.  1.
        -12    1    3    3    0    0  0.10374442455E+02 -0.62052099186E+01  0.33818971199E+01  0.12552725382E+02  0.00000000000E+00 0.  1.
</event>
<event>
 7    1  0.1246400E-009  0.4778727E+02  0.7816164E-02  0.1312668E+00
        -11   -1    0    0    0    0  0.00000000000E+00  0.00000000000E+00  0.45593999997E+02  0.45594000000E+02  0.51100000000E-03 0. -1.
         11   -1    0    0    0    0 -0.00000000000E+00 -0.00000000000E+00 -0.45593999997E+02  0.45594000000E+02  0.51100000000E-03 0.  1.
    9900012    2    1    2    0    0 -0.23422284287E+02 -0.34131499136E+02 -0.13040725646E+02  0.47787272358E+02  0.20000005989E+02 0.  0.
         12    1    1    2    0    0  0.23422284287E+02  0.34131499136E+02  0.13040725646E+02  0.43400727642E+02  0.00000000000E+00 0. -1.
         11    1    3    3    0    0  0.12873687311E+01 -0.75725486680E+01 -0.13565261765E+00  0.76823963366E+01  0.51100000000E-03 0. -1.
        -11    1    3    3    0    0 -0.23030181201E+02 -0.18539756059E+02 -0.83096644693E+01  0.30710947963E+02  0.51100000000E-03 0.  1.
         12    1    3    3    0    0 -0.16794718165E+01 -0.80191944089E+01 -0.45954085588E+01  0.93939280587E+01  0.00000000000E+00 0. -1.
</event>
<event>
 7    1  0.1246400E-009  0.4778728E+02  0.7816164E-02  0.1312668E+00
        -11   -1    0    0    0    0  0.00000000000E+00  0.00000000000E+00  0.45593999997E+02  0.45594000000E+02  0.51100000000E-03 0.  1.
         11   -1    0    0    0    0 -0.00000000000E+00 -0.00000000000E+00 -0.45593999997E+02  0.45594000000E+02  0.51100000000E-03 0. -1.
    9900012    2    1    2    0    0 -0.17470117836E+02 -0.87606855644E+01  0.38751364882E+02  0.47787275249E+02  0.20000019168E+02 0.  0.
         12    1    1    2    0    0  0.17470117836E+02  0.87606855644E+01 -0.38751364882E+02  0.43400724751E+02  0.00000000000E+00 0. -1.
         11    1    3    3    0    0 -0.54428701768E+01 -0.57143431506E+01  0.32186055913E+01  0.85227915390E+01  0.51100000000E-03 0. -1.
        -11    1    3    3    0    0  0.94554282669E+00  0.24270944905E+01  0.63113767591E+01  0.68277606694E+01  0.51100000000E-03 0.  1.
        -12    1    3    3    0    0 -0.12972790486E+02 -0.54734369043E+01  0.29221382531E+02  0.32436723040E+02  0.00000000000E+00 0.  1.
</event>
<event>
 7    1  0.1246400E-009  0.4778727E+02  0.7816164E-02  0.1312668E+00
        -11   -1    0    0    0    0  0.00000000000E+00  0.00000000000E+00  0.45593999997E+02  0.45594000000E+02  0.51100000000E-03 0.  1.
         11   -1    0    0    0    0 -0.00000000000E+00 -0.00000000000E+00 -0.45593999997E+02  0.45594000000E+02  0.51100000000E-03 0. -1.
    9900012    2    1    2    0    0 -0.59252254148E+01  0.36219733354E+02  0.23165622320E+02  0.47787269154E+02  0.19999991383E+02 0.  0.
         12    1    1    2    0    0  0.59252254148E+01 -0.36219733354E+02 -0.23165622320E+02  0.43400730846E+02  0.00000000000E+00 0. -1.
         11    1    3    3    0    0 -0.58998440816E+01  0.70818729992E+01 -0.60153267030E+00  0.92370410402E+01  0.51100000000E-03 0. -1.
        -11    1    3    3    0    0 -0.37348004150E+01  0.21782617053E+02  0.16791428805E+02  0.27755778162E+02  0.51100000000E-03 0.  1.
        -12    1    3    3    0    0  0.37094190818E+01  0.73552433022E+01  0.69757261850E+01  0.10794449952E+02  0.00000000000E+00 0.  1.
</event>
<event>
 7    1  0.1246400E-009  0.4778727E+02  0.7816164E-02  0.1312668E+00
        -11   -1    0    0    0    0  0.00000000000E+00  0.00000000000E+00  0.45593999997E+02  0.45594000000E+02  0.51100000000E-03 0.  1.
         11   -1    0    0    0    0 -0.00000000000E+00 -0.00000000000E+00 -0.45593999997E+02  0.45594000000E+02  0.51100000000E-03 0. -1.
    9900012    2    1    2    0    0 -0.25490036810E+02  0.13853085733E+01  0.35099317259E+02  0.47787272719E+02  0.20000007636E+02 0.  0.
         12    1    1    2    0    0  0.25490036810E+02 -0.13853085733E+01 -0.35099317259E+02  0.43400727281E+02  0.00000000000E+00 0. -1.
         11    1    3    3    0    0 -0.40282938227E+01 -0.18429307700E+01  0.61869085942E+01  0.76092958386E+01  0.51100000000E-03 0. -1.
        -11    1    3    3    0    0 -0.21504629067E+02  0.43707493485E+01  0.30891459768E+02  0.37892410956E+02  0.51100000000E-03 0.  1.
         12    1    3    3    0    0  0.42886079744E-01 -0.11425100053E+01 -0.19790511031E+01  0.22855659248E+01  0.00000000000E+00 0. -1.
</event>
<event>
 7    1  0.1246400E-009  0.4778725E+02  0.7816164E-02  0.1312668E+00
        -11   -1    0    0    0    0  0.00000000000E+00  0.00000000000E+00  0.45593999997E+02  0.45594000000E+02  0.51100000000E-03 0.  1.
         11   -1    0    0    0    0 -0.00000000000E+00 -0.00000000000E+00 -0.45593999997E+02  0.45594000000E+02  0.51100000000E-03 0. -1.
    9900012    2    1    2    0    0  0.11211228645E+02 -0.41044033147E+02  0.85627328426E+01  0.47787254632E+02  0.19999925170E+02 0.  0.
         12    1    1    2    0    0 -0.11211228645E+02  0.41044033147E+02 -0.85627328426E+01  0.43400745368E+02  0.00000000000E+00 0. -1.
         11    1    3    3    0    0 -0.33550242864E+01 -0.21490287806E+01  0.32385006956E+00  0.39974231439E+01  0.51100000000E-03 0. -1.
        -11    1    3    3    0    0  0.96988243708E+01 -0.10936405456E+02  0.23297278897E+01  0.14802019821E+02  0.51100000000E-03 0.  1.
         12    1    3    3    0    0  0.48674285609E+01 -0.27958598910E+02  0.59091548834E+01  0.28987811667E+02  0.00000000000E+00 0. -1.
</event>
<event>
 7    1  0.1246400E-009  0.4778727E+02  0.7816164E-02  0.1312668E+00
        -11   -1    0    0    0    0  0.00000000000E+00  0.00000000000E+00  0.45593999997E+02  0.45594000000E+02  0.51100000000E-03 0. -1.
         11   -1    0    0    0    0 -0.00000000000E+00 -0.00000000000E+00 -0.45593999997E+02  0.45594000000E+02  0.51100000000E-03 0.  1.
    9900012    2    1    2    0    0  0.29644355086E+02 -0.31371681971E+02  0.45445512454E+01  0.47787272308E+02  0.20000005760E+02 0.  0.
         12    1    1    2    0    0 -0.29644355086E+02  0.31371681971E+02 -0.45445512454E+01  0.43400727692E+02  0.00000000000E+00 0. -1.
         11    1    3    3    0    0  0.56537912233E+01 -0.56627918277E+01  0.63623277966E+01  0.10223100397E+02  0.51100000000E-03 0. -1.
        -11    1    3    3    0    0  0.23917069982E+02 -0.26862099452E+02 -0.72528816353E+00  0.35973944274E+02  0.51100000000E-03 0.  1.
        -12    1    3    3    0    0  0.73493881085E-01  0.11532093078E+01 -0.10924883877E+01  0.15902276364E+01  0.00000000000E+00 0.  1.
</event>
<event>
 7    1  0.1246400E-009  0.4778727E+02  0.7816164E-02  0.1312668E+00
        -11   -1    0    0    0    0  0.00000000000E+00  0.00000000000E+00  0.45593999997E+02  0.45594000000E+02  0.51100000000E-03 0.  1.
         11   -1    0    0    0    0 -0.00000000000E+00 -0.00000000000E+00 -0.45593999997E+02  0.45594000000E+02  0.51100000000E-03 0. -1.
    9900012    2    1    2    0    0  0.16612111387E+02  0.24915729383E+02  0.31414445205E+02  0.47787272092E+02  0.20000004776E+02 0.  0.
         12    1    1    2    0    0 -0.16612111387E+02 -0.24915729383E+02 -0.31414445205E+02  0.43400727908E+02  0.00000000000E+00 0. -1.
         11    1    3    3    0    0  0.21502369245E+01  0.42539772846E+01 -0.14158329257E+00  0.47686358279E+01  0.51100000000E-03 0. -1.
        -11    1    3    3    0    0  0.93242834868E+01  0.21957564748E+02  0.27018893370E+02  0.36042995317E+02  0.51100000000E-03 0.  1.
         12    1    3    3    0    0  0.51375909757E+01 -0.12958126502E+01  0.45371351279E+01  0.69756409474E+01  0.00000000000E+00 0. -1.
</event>
<event>
 7    1  0.1246400E-009  0.4778728E+02  0.7816164E-02  0.1312668E+00
        -11   -1    0    0    0    0  0.00000000000E+00  0.00000000000E+00  0.45593999997E+02  0.45594000000E+02  0.51100000000E-03 0.  1.
         11   -1    0    0    0    0 -0.00000000000E+00 -0.00000000000E+00 -0.45593999997E+02  0.45594000000E+02  0.51100000000E-03 0. -1.
    9900012    2    1    2    0    0 -0.18448281012E+02 -0.57063281832E+01  0.38868002461E+02  0.47787275709E+02  0.20000021268E+02 0.  0.
         12    1    1    2    0    0  0.18448281012E+02  0.57063281832E+01 -0.38868002461E+02  0.43400724291E+02  0.00000000000E+00 0. -1.
         11    1    3    3    0    0 -0.34850670008E+00  0.38862640322E+01  0.14597461021E+02  0.15109942871E+02  0.51100000000E-03 0. -1.
        -11    1    3    3    0    0 -0.69653753764E+01 -0.94197313275E+00  0.43303865050E+01  0.82556656340E+01  0.51100000000E-03 0.  1.
        -12    1    3    3    0    0 -0.11134398936E+02 -0.86506190827E+01  0.19940154936E+02  0.24421667204E+02  0.00000000000E+00 0.  1.
</event>
<event>
 7    1  0.1246400E-009  0.4778727E+02  0.7816164E-02  0.1312668E+00
        -11   -1    0    0    0    0  0.00000000000E+00  0.00000000000E+00  0.45593999997E+02  0.45594000000E+02  0.51100000000E-03 0.  1.
         11   -1    0    0    0    0 -0.00000000000E+00 -0.00000000000E+00 -0.45593999997E+02  0.45594000000E+02  0.51100000000E-03 0. -1.
    9900012    2    1    2    0    0 -0.17034690496E+02  0.36387048427E+02  0.16414178100E+02  0.47787271709E+02  0.20000003029E+02 0.  0.
         12    1    1    2    0    0  0.17034690496E+02 -0.36387048427E+02 -0.16414178100E+02  0.43400728291E+02  0.00000000000E+00 0. -1.
         11    1    3    3    0    0 -0.56652332946E+01  0.16471899433E+02  0.67395253063E+01  0.18677246607E+02  0.51100000000E-03 0.  1.
        -11    1    3    3    0    0 -0.10697305272E+02  0.62183629653E+01  0.80224362109E-01  0.12373633834E+02  0.51100000000E-03 0. -1.
         12    1    3    3    0    0 -0.67215192936E+00  0.13696786028E+02  0.95944284318E+01  0.16736391267E+02  0.00000000000E+00 0. -1.
</event>
<event>
 7    1  0.1246400E-009  0.4778727E+02  0.7816164E-02  0.1312668E+00
        -11   -1    0    0    0    0  0.00000000000E+00  0.00000000000E+00  0.45593999997E+02  0.45594000000E+02  0.51100000000E-03 0. -1.
         11   -1    0    0    0    0 -0.00000000000E+00 -0.00000000000E+00 -0.45593999997E+02  0.45594000000E+02  0.51100000000E-03 0.  1.
    9900012    2    1    2    0    0 -0.29893273574E+02  0.24743177981E+02 -0.19436835513E+02  0.47787271477E+02  0.20000001971E+02 0.  0.
         12    1    1    2    0    0  0.29893273574E+02 -0.24743177981E+02  0.19436835513E+02  0.43400728523E+02  0.00000000000E+00 0. -1.
         11    1    3    3    0    0 -0.87023896828E+01  0.74117967048E+01 -0.82350525234E+00  0.11460561843E+02  0.51100000000E-03 0. -1.
        -11    1    3    3    0    0 -0.28018190916E-01  0.59761524430E+01 -0.82068951749E+01  0.10152256484E+02  0.51100000000E-03 0.  1.
        -12    1    3    3    0    0 -0.21162865701E+02  0.11355228833E+02 -0.10406435086E+02  0.26174453150E+02  0.00000000000E+00 0.  1.
</event>
<event>
 7    1  0.1246400E-009  0.4778727E+02  0.7816164E-02  0.1312668E+00
        -11   -1    0    0    0    0  0.00000000000E+00  0.00000000000E+00  0.45593999997E+02  0.45594000000E+02  0.51100000000E-03 0. -1.
         11   -1    0    0    0    0 -0.00000000000E+00 -0.00000000000E+00 -0.45593999997E+02  0.45594000000E+02  0.51100000000E-03 0.  1.
    9900012    2    1    2    0    0  0.16868249423E+02  0.38998653801E+02  0.88425432928E+01  0.47787269490E+02  0.19999992912E+02 0.  0.
         12    1    1    2    0    0 -0.16868249423E+02 -0.38998653801E+02 -0.88425432928E+01  0.43400730510E+02  0.00000000000E+00 0. -1.
         11    1    3    3    0    0  0.87643036449E+01  0.69925488137E+01  0.16349079113E+01  0.11330564039E+02  0.51100000000E-03 0. -1.
        -11    1    3    3    0    0  0.37635786928E+01  0.18130028955E+02 -0.29098326977E+01  0.18743788333E+02  0.51100000000E-03 0.  1.
        -12    1    3    3    0    0  0.43403670855E+01  0.13876076033E+02  0.10117468079E+02  0.17712917119E+02  0.00000000000E+00 0.  1.
</event>
<event>
 7    1  0.1246400E-009  0.4778727E+02  0.7816164E-02  0.1312668E+00
        -11   -1    0    0    0    0  0.00000000000E+00  0.00000000000E+00  0.45593999997E+02  0.45594000000E+02  0.51100000000E-03 0.  1.
         11   -1    0    0    0    0 -0.00000000000E+00 -0.00000000000E+00 -0.45593999997E+02  0.45594000000E+02  0.51100000000E-03 0. -1.
    9900012    2    1    2    0    0  0.21234241763E+02  0.29738566088E+02  0.23416828980E+02  0.47787271715E+02  0.20000003056E+02 0.  0.
         12    1    1    2    0    0 -0.21234241763E+02 -0.29738566088E+02 -0.23416828980E+02  0.43400728285E+02  0.00000000000E+00 0. -1.
         11    1    3    3    0    0  0.26505147339E-01  0.65187050365E+00  0.46983682882E+01  0.47434483774E+01  0.51100000000E-03 0. -1.
        -11    1    3    3    0    0  0.12515237985E+01  0.25937597220E+01  0.74933198556E+01  0.80276860946E+01  0.51100000000E-03 0.  1.
        -12    1    3    3    0    0  0.19956212818E+02  0.26492935862E+02  0.11225140836E+02  0.35016137243E+02  0.00000000000E+00 0.  1.
</event>
<event>
 7    1  0.1246400E-009  0.4778727E+02  0.7816164E-02  0.1312668E+00
        -11   -1    0    0    0    0  0.00000000000E+00  0.00000000000E+00  0.45593999997E+02  0.45594000000E+02  0.51100000000E-03 0. -1.
         11   -1    0    0    0    0 -0.00000000000E+00 -0.00000000000E+00 -0.45593999997E+02  0.45594000000E+02  0.51100000000E-03 0.  1.
    9900012    2    1    2    0    0  0.28829357160E+02  0.31770727258E+02 -0.65659980545E+01  0.47787271029E+02  0.19999999929E+02 0.  0.
         12    1    1    2    0    0 -0.28829357160E+02 -0.31770727258E+02  0.65659980545E+01  0.43400728971E+02  0.00000000000E+00 0. -1.
         11    1    3    3    0    0 -0.18645670593E+01  0.56757744421E+01  0.11596875018E+01  0.60857128752E+01  0.51100000000E-03 0. -1.
        -11    1    3    3    0    0  0.12004685668E+02  0.14190898779E+02 -0.57438783133E+01  0.19454722421E+02  0.51100000000E-03 0.  1.
         12    1    3    3    0    0  0.18689238552E+02  0.11904054037E+02 -0.19818072430E+01  0.22246835732E+02  0.00000000000E+00 0. -1.
</event>
<event>
 7    1  0.1246400E-009  0.4778727E+02  0.7816164E-02  0.1312668E+00
        -11   -1    0    0    0    0  0.00000000000E+00  0.00000000000E+00  0.45593999997E+02  0.45594000000E+02  0.51100000000E-03 0.  1.
         11   -1    0    0    0    0 -0.00000000000E+00 -0.00000000000E+00 -0.45593999997E+02  0.45594000000E+02  0.51100000000E-03 0. -1.
    9900012    2    1    2    0    0  0.23232669356E+02  0.78785177919E+01  0.35802167296E+02  0.47787272459E+02  0.20000006452E+02 0.  0.
         12    1    1    2    0    0 -0.23232669356E+02 -0.78785177919E+01 -0.35802167296E+02  0.43400727541E+02  0.00000000000E+00 0. -1.
         11    1    3    3    0    0  0.16989843079E+02  0.90372441949E+00  0.10081945012E+02  0.19776680741E+02  0.51100000000E-03 0. -1.
        -11    1    3    3    0    0  0.66134455037E+01  0.50950193828E+01  0.15431837827E+02  0.17545327096E+02  0.51100000000E-03 0.  1.
         12    1    3    3    0    0 -0.37061922688E+00  0.18797739896E+01  0.10288384457E+02  0.10465264622E+02  0.00000000000E+00 0. -1.
</event>
<event>
 7    1  0.1246400E-009  0.4778727E+02  0.7816164E-02  0.1312668E+00
        -11   -1    0    0    0    0  0.00000000000E+00  0.00000000000E+00  0.45593999997E+02  0.45594000000E+02  0.51100000000E-03 0. -1.
         11   -1    0    0    0    0 -0.00000000000E+00 -0.00000000000E+00 -0.45593999997E+02  0.45594000000E+02  0.51100000000E-03 0.  1.
    9900012    2    1    2    0    0  0.66179640144E+01  0.43145103975E+01 -0.42675648925E+02  0.47787268914E+02  0.19999990284E+02 0.  0.
         12    1    1    2    0    0 -0.66179640144E+01 -0.43145103975E+01  0.42675648925E+02  0.43400731086E+02  0.00000000000E+00 0. -1.
         11    1    3    3    0    0  0.21967252528E+01  0.53184188970E+01 -0.95640956813E+01  0.11161680333E+02  0.51100000000E-03 0. -1.
        -11    1    3    3    0    0  0.19495359209E-01 -0.38670203976E+01 -0.30530723995E+02  0.30774654097E+02  0.51100000000E-03 0.  1.
         12    1    3    3    0    0  0.44017434025E+01  0.28631118982E+01 -0.25808292484E+01  0.58509344837E+01  0.00000000000E+00 0. -1.
</event>
<event>
 7    1  0.1246400E-009  0.4778727E+02  0.7816164E-02  0.1312668E+00
        -11   -1    0    0    0    0  0.00000000000E+00  0.00000000000E+00  0.45593999997E+02  0.45594000000E+02  0.51100000000E-03 0.  1.
         11   -1    0    0    0    0 -0.00000000000E+00 -0.00000000000E+00 -0.45593999997E+02  0.45594000000E+02  0.51100000000E-03 0. -1.
    9900012    2    1    2    0    0 -0.18810581731E+02  0.37289201865E+02  0.11802582881E+02  0.47787268169E+02  0.19999986889E+02 0.  0.
         12    1    1    2    0    0  0.18810581731E+02 -0.37289201865E+02 -0.11802582881E+02  0.43400731831E+02  0.00000000000E+00 0. -1.
         11    1    3    3    0    0  0.16548720373E+01  0.60722983802E+01  0.25230299105E+01  0.67806407712E+01  0.51100000000E-03 0. -1.
        -11    1    3    3    0    0 -0.17076629365E+02  0.15453633416E+02  0.94190085723E+01  0.24882599924E+02  0.51100000000E-03 0.  1.
        -12    1    3    3    0    0 -0.33888244033E+01  0.15763270069E+02 -0.13945560168E+00  0.16124027473E+02  0.00000000000E+00 0.  1.
</event>
<event>
 7    1  0.1246400E-009  0.4778728E+02  0.7816164E-02  0.1312668E+00
        -11   -1    0    0    0    0  0.00000000000E+00  0.00000000000E+00  0.45593999997E+02  0.45594000000E+02  0.51100000000E-03 0.  1.
         11   -1    0    0    0    0 -0.00000000000E+00 -0.00000000000E+00 -0.45593999997E+02  0.45594000000E+02  0.51100000000E-03 0. -1.
    9900012    2    1    2    0    0  0.14070038159E+02  0.20426764505E+02  0.35614652714E+02  0.47787283763E+02  0.20000057991E+02 0.  0.
         12    1    1    2    0    0 -0.14070038159E+02 -0.20426764505E+02 -0.35614652714E+02  0.43400716237E+02  0.00000000000E+00 0. -1.
         11    1    3    3    0    0 -0.15425215732E+01  0.55980408025E+01  0.84692190598E+01  0.10268646716E+02  0.51100000000E-03 0.  1.
        -11    1    3    3    0    0  0.84201514091E+00  0.10390721703E+02  0.97968068702E+01  0.14305716065E+02  0.51100000000E-03 0. -1.
         12    1    3    3    0    0  0.14770544591E+02  0.44380019989E+01  0.17348626784E+02  0.23212920983E+02  0.00000000000E+00 0. -1.
</event>
<event>
 7    1  0.1246400E-009  0.4778727E+02  0.7816164E-02  0.1312668E+00
        -11   -1    0    0    0    0  0.00000000000E+00  0.00000000000E+00  0.45593999997E+02  0.45594000000E+02  0.51100000000E-03 0.  1.
         11   -1    0    0    0    0 -0.00000000000E+00 -0.00000000000E+00 -0.45593999997E+02  0.45594000000E+02  0.51100000000E-03 0. -1.
    9900012    2    1    2    0    0 -0.89956455469E+01 -0.14603824385E+02  0.39867655563E+02  0.47787270909E+02  0.19999999385E+02 0.  0.
         12    1    1    2    0    0  0.89956455469E+01  0.14603824385E+02 -0.39867655563E+02  0.43400729091E+02  0.00000000000E+00 0. -1.
         11    1    3    3    0    0  0.20591943364E+01 -0.75778503758E+01  0.92521891056E+01  0.12135365719E+02  0.51100000000E-03 0. -1.
        -11    1    3    3    0    0 -0.97830612807E+01 -0.10623188906E+02  0.24727643830E+02  0.28635935469E+02  0.51100000000E-03 0.  1.
        -12    1    3    3    0    0 -0.12717786026E+01  0.35972148970E+01  0.58878226282E+01  0.70159697213E+01  0.00000000000E+00 0.  1.
</event>
<event>
 7    1  0.1246400E-009  0.4778727E+02  0.7816164E-02  0.1312668E+00
        -11   -1    0    0    0    0  0.00000000000E+00  0.00000000000E+00  0.45593999997E+02  0.45594000000E+02  0.51100000000E-03 0.  1.
         11   -1    0    0    0    0 -0.00000000000E+00 -0.00000000000E+00 -0.45593999997E+02  0.45594000000E+02  0.51100000000E-03 0. -1.
    9900012    2    1    2    0    0 -0.82630923807E+01  0.12572426683E+02  0.40709692005E+02  0.47787266924E+02  0.19999981213E+02 0.  0.
         12    1    1    2    0    0  0.82630923807E+01 -0.12572426683E+02 -0.40709692005E+02  0.43400733076E+02  0.00000000000E+00 0. -1.
         11    1    3    3    0    0 -0.19782988408E+00  0.13026564603E+02  0.18149662390E+02  0.22341458483E+02  0.51100000000E-03 0. -1.
        -11    1    3    3    0    0  0.86083838999E+00 -0.20527497125E+01  0.20736444521E+01  0.30421745003E+01  0.51100000000E-03 0.  1.
        -12    1    3    3    0    0 -0.89261008867E+01  0.15986117931E+01  0.20486385163E+02  0.22403633940E+02  0.00000000000E+00 0.  1.
</event>
<event>
 7    1  0.1246400E-009  0.4778726E+02  0.7816164E-02  0.1312668E+00
        -11   -1    0    0    0    0  0.00000000000E+00  0.00000000000E+00  0.45593999997E+02  0.45594000000E+02  0.51100000000E-03 0.  1.
         11   -1    0    0    0    0 -0.00000000000E+00 -0.00000000000E+00 -0.45593999997E+02  0.45594000000E+02  0.51100000000E-03 0. -1.
    9900012    2    1    2    0    0  0.13901299447E+02 -0.41042616972E+02 -0.24252311924E+01  0.47787259447E+02  0.19999947121E+02 0.  0.
         12    1    1    2    0    0 -0.13901299447E+02  0.41042616972E+02  0.24252311924E+01  0.43400740553E+02  0.00000000000E+00 0. -1.
         11    1    3    3    0    0  0.24296008332E+01 -0.96383270445E+01  0.71012404013E+01  0.12215888176E+02  0.51100000000E-03 0. -1.
        -11    1    3    3    0    0  0.63532626995E+01 -0.13360766304E+02 -0.61682390581E+00  0.14807244684E+02  0.51100000000E-03 0.  1.
         12    1    3    3    0    0  0.51184359140E+01 -0.18043523624E+02 -0.89096476878E+01  0.20764126587E+02  0.00000000000E+00 0. -1.
</event>
<event>
 7    1  0.1246400E-009  0.4778727E+02  0.7816164E-02  0.1312668E+00
        -11   -1    0    0    0    0  0.00000000000E+00  0.00000000000E+00  0.45593999997E+02  0.45594000000E+02  0.51100000000E-03 0. -1.
         11   -1    0    0    0    0 -0.00000000000E+00 -0.00000000000E+00 -0.45593999997E+02  0.45594000000E+02  0.51100000000E-03 0.  1.
    9900012    2    1    2    0    0 -0.56472726822E+01  0.41856188098E+02 -0.99895410465E+01  0.47787273034E+02  0.20000009070E+02 0.  0.
         12    1    1    2    0    0  0.56472726822E+01 -0.41856188098E+02  0.99895410465E+01  0.43400726966E+02  0.00000000000E+00 0. -1.
         11    1    3    3    0    0  0.23959506972E+01  0.13102388993E+02  0.33445210233E+01  0.13733135047E+02  0.51100000000E-03 0. -1.
        -11    1    3    3    0    0 -0.77261479452E+01  0.14025252565E+02 -0.36468736738E+01  0.16422568600E+02  0.51100000000E-03 0.  1.
        -12    1    3    3    0    0 -0.31707543420E+00  0.14728546540E+02 -0.96871883960E+01  0.17631569387E+02  0.00000000000E+00 0.  1.
</event>
<event>
 7    1  0.1246400E-009  0.4778727E+02  0.7816164E-02  0.1312668E+00
        -11   -1    0    0    0    0  0.00000000000E+00  0.00000000000E+00  0.45593999997E+02  0.45594000000E+02  0.51100000000E-03 0. -1.
         11   -1    0    0    0    0 -0.00000000000E+00 -0.00000000000E+00 -0.45593999997E+02  0.45594000000E+02  0.51100000000E-03 0.  1.
    9900012    2    1    2    0    0  0.24783809587E+02  0.24830187481E+02 -0.25550897338E+02  0.47787265182E+02  0.19999973269E+02 0.  0.
         12    1    1    2    0    0 -0.24783809587E+02 -0.24830187481E+02  0.25550897338E+02  0.43400734818E+02  0.00000000000E+00 0. -1.
         11    1    3    3    0    0  0.23453706689E+02  0.14172654286E+02 -0.11675730316E+02  0.29786963015E+02  0.51100000000E-03 0. -1.
        -11    1    3    3    0    0  0.15228994638E+01  0.64313605976E+01 -0.54261389378E+01  0.85512926477E+01  0.51100000000E-03 0.  1.
         12    1    3    3    0    0 -0.19279656506E+00  0.42261725976E+01 -0.84490280835E+01  0.94490095193E+01  0.00000000000E+00 0. -1.
</event>
<event>
 7    1  0.1246400E-009  0.4778726E+02  0.7816164E-02  0.1312668E+00
        -11   -1    0    0    0    0  0.00000000000E+00  0.00000000000E+00  0.45593999997E+02  0.45594000000E+02  0.51100000000E-03 0.  1.
         11   -1    0    0    0    0 -0.00000000000E+00 -0.00000000000E+00 -0.45593999997E+02  0.45594000000E+02  0.51100000000E-03 0. -1.
    9900012    2    1    2    0    0  0.22773290688E+02  0.36833769987E+02  0.28766716762E+01  0.47787255534E+02  0.19999929283E+02 0.  0.
         12    1    1    2    0    0 -0.22773290688E+02 -0.36833769987E+02 -0.28766716762E+01  0.43400744466E+02  0.00000000000E+00 0. -1.
         11    1    3    3    0    0  0.16673871195E+02  0.10633387351E+02  0.13959570574E+01  0.19825125562E+02  0.51100000000E-03 0. -1.
        -11    1    3    3    0    0  0.57621348305E+01  0.17128488824E+02  0.40650555953E+01  0.18523282767E+02  0.51100000000E-03 0.  1.
         12    1    3    3    0    0  0.33728466263E+00  0.90718938122E+01 -0.25843409765E+01  0.94388472054E+01  0.00000000000E+00 0. -1.
</event>
<event>
 7    1  0.1246400E-009  0.4778727E+02  0.7816164E-02  0.1312668E+00
        -11   -1    0    0    0    0  0.00000000000E+00  0.00000000000E+00  0.45593999997E+02  0.45594000000E+02  0.51100000000E-03 0.  1.
         11   -1    0    0    0    0 -0.00000000000E+00 -0.00000000000E+00 -0.45593999997E+02  0.45594000000E+02  0.51100000000E-03 0. -1.
    9900012    2    1    2    0    0 -0.13165775913E+02 -0.53056468085E+01  0.41013847392E+02  0.47787271649E+02  0.20000002758E+02 0.  0.
         12    1    1    2    0    0  0.13165775913E+02  0.53056468085E+01 -0.41013847392E+02  0.43400728351E+02  0.00000000000E+00 0. -1.
         11    1    3    3    0    0 -0.40441986239E+01 -0.53576485538E+01  0.44634878361E+01  0.80611825720E+01  0.51100000000E-03 0. -1.
        -11    1    3    3    0    0  0.16068670534E+01  0.38503404621E+01  0.91645297140E+01  0.10069545598E+02  0.51100000000E-03 0.  1.
        -12    1    3    3    0    0 -0.10728444342E+02 -0.37983387168E+01  0.27385829842E+02  0.29656543480E+02  0.00000000000E+00 0.  1.
</event>
<event>
 7    1  0.1246400E-009  0.4778727E+02  0.7816164E-02  0.1312668E+00
        -11   -1    0    0    0    0  0.00000000000E+00  0.00000000000E+00  0.45593999997E+02  0.45594000000E+02  0.51100000000E-03 0. -1.
         11   -1    0    0    0    0 -0.00000000000E+00 -0.00000000000E+00 -0.45593999997E+02  0.45594000000E+02  0.51100000000E-03 0.  1.
    9900012    2    1    2    0    0  0.10793348891E+02 -0.41994488373E+02  0.18947051847E+01  0.47787270262E+02  0.19999996434E+02 0.  0.
         12    1    1    2    0    0 -0.10793348891E+02  0.41994488373E+02 -0.18947051847E+01  0.43400729738E+02  0.00000000000E+00 0. -1.
         11    1    3    3    0    0 -0.99306147781E+00 -0.34133896309E+01  0.41256919868E+01  0.54459833365E+01  0.51100000000E-03 0. -1.
        -11    1    3    3    0    0  0.12067311721E+01 -0.25178088744E+02 -0.12979015995E+01  0.25240382361E+02  0.51100000000E-03 0.  1.
         12    1    3    3    0    0  0.10579679197E+02 -0.13403009998E+02 -0.93308520262E+00  0.17100904564E+02  0.00000000000E+00 0. -1.
</event>
<event>
 7    1  0.1246400E-009  0.4778727E+02  0.7816164E-02  0.1312668E+00
        -11   -1    0    0    0    0  0.00000000000E+00  0.00000000000E+00  0.45593999997E+02  0.45594000000E+02  0.51100000000E-03 0.  1.
         11   -1    0    0    0    0 -0.00000000000E+00 -0.00000000000E+00 -0.45593999997E+02  0.45594000000E+02  0.51100000000E-03 0. -1.
    9900012    2    1    2    0    0  0.20128460955E+02  0.14648471044E+02  0.35551241370E+02  0.47787269507E+02  0.19999992990E+02 0.  0.
         12    1    1    2    0    0 -0.20128460955E+02 -0.14648471044E+02 -0.35551241370E+02  0.43400730493E+02  0.00000000000E+00 0. -1.
         11    1    3    3    0    0 -0.15319548198E+01  0.45065572309E+01  0.71888725541E+01  0.86218230385E+01  0.51100000000E-03 0. -1.
        -11    1    3    3    0    0 -0.81541081337E+00  0.27294356940E+01  0.58265242458E+01  0.64856070688E+01  0.51100000000E-03 0.  1.
        -12    1    3    3    0    0  0.22475826589E+02  0.74124781193E+01  0.22535844570E+02  0.32679839400E+02  0.00000000000E+00 0.  1.
</event>
<event>
 7    1  0.1246400E-009  0.4778727E+02  0.7816164E-02  0.1312668E+00
        -11   -1    0    0    0    0  0.00000000000E+00  0.00000000000E+00  0.45593999997E+02  0.45594000000E+02  0.51100000000E-03 0. -1.
         11   -1    0    0    0    0 -0.00000000000E+00 -0.00000000000E+00 -0.45593999997E+02  0.45594000000E+02  0.51100000000E-03 0.  1.
    9900012    2    1    2    0    0  0.15360215532E+02 -0.15845336859E+02 -0.37371280028E+02  0.47787268528E+02  0.19999988525E+02 0.  0.
         12    1    1    2    0    0 -0.15360215532E+02  0.15845336859E+02  0.37371280028E+02  0.43400731472E+02  0.00000000000E+00 0. -1.
         11    1    3    3    0    0  0.67787837152E+01 -0.12295232860E+02 -0.15339508107E+02  0.20794835151E+02  0.51100000000E-03 0. -1.
        -11    1    3    3    0    0  0.11822154723E+02 -0.32861054515E+01 -0.16294317830E+02  0.20397711272E+02  0.51100000000E-03 0.  1.
        -12    1    3    3    0    0 -0.32407229062E+01 -0.26399854828E+00 -0.57374540906E+01  0.65947221041E+01  0.00000000000E+00 0.  1.
</event>
<event>
 7    1  0.1246400E-009  0.4778726E+02  0.7816164E-02  0.1312668E+00
        -11   -1    0    0    0    0  0.00000000000E+00  0.00000000000E+00  0.45593999997E+02  0.45594000000E+02  0.51100000000E-03 0.  1.
         11   -1    0    0    0    0 -0.00000000000E+00 -0.00000000000E+00 -0.45593999997E+02  0.45594000000E+02  0.51100000000E-03 0. -1.
    9900012    2    1    2    0    0  0.18295610477E+02  0.19586905655E+02  0.34135726451E+02  0.47787262032E+02  0.19999958907E+02 0.  0.
         12    1    1    2    0    0 -0.18295610477E+02 -0.19586905655E+02 -0.34135726451E+02  0.43400737968E+02  0.00000000000E+00 0. -1.
         11    1    3    3    0    0 -0.18172154379E+00  0.12136203289E+02  0.17764709773E+02  0.21515235684E+02  0.51100000000E-03 0. -1.
        -11    1    3    3    0    0  0.86404952738E+01  0.51807710922E+01  0.10684601731E+02  0.14685341742E+02  0.51100000000E-03 0.  1.
         12    1    3    3    0    0  0.98368367473E+01  0.22699312744E+01  0.56864149473E+01  0.11586684605E+02  0.00000000000E+00 0. -1.
</event>
<event>
 7    1  0.1246400E-009  0.4778727E+02  0.7816164E-02  0.1312668E+00
        -11   -1    0    0    0    0  0.00000000000E+00  0.00000000000E+00  0.45593999997E+02  0.45594000000E+02  0.51100000000E-03 0.  1.
         11   -1    0    0    0    0 -0.00000000000E+00 -0.00000000000E+00 -0.45593999997E+02  0.45594000000E+02  0.51100000000E-03 0. -1.
    9900012    2    1    2    0    0 -0.42448890206E+02  0.57106697854E+01  0.70073884661E+01  0.47787268184E+02  0.19999986956E+02 0.  0.
         12    1    1    2    0    0  0.42448890206E+02 -0.57106697854E+01 -0.70073884661E+01  0.43400731816E+02  0.00000000000E+00 0. -1.
         11    1    3    3    0    0 -0.80317578646E+01  0.42728765968E+01 -0.29172120936E+01  0.95538858831E+01  0.51100000000E-03 0. -1.
        -11    1    3    3    0    0 -0.21052285468E+02 -0.56394647382E+01  0.55429678949E+01  0.22488369867E+02  0.51100000000E-03 0.  1.
        -12    1    3    3    0    0 -0.13364846873E+02  0.70772579268E+01  0.43816326648E+01  0.15745012433E+02  0.00000000000E+00 0.  1.
</event>
<event>
 7    1  0.1246400E-009  0.4778727E+02  0.7816164E-02  0.1312668E+00
        -11   -1    0    0    0    0  0.00000000000E+00  0.00000000000E+00  0.45593999997E+02  0.45594000000E+02  0.51100000000E-03 0.  1.
         11   -1    0    0    0    0 -0.00000000000E+00 -0.00000000000E+00 -0.45593999997E+02  0.45594000000E+02  0.51100000000E-03 0. -1.
    9900012    2    1    2    0    0 -0.20732312670E+02 -0.21088654409E+02  0.31765754679E+02  0.47787270700E+02  0.19999998427E+02 0.  0.
         12    1    1    2    0    0  0.20732312670E+02  0.21088654409E+02 -0.31765754679E+02  0.43400729300E+02  0.00000000000E+00 0. -1.
         11    1    3    3    0    0 -0.17567923268E+02 -0.12951372504E+02  0.13787864635E+02  0.25816180762E+02  0.51100000000E-03 0. -1.
        -11    1    3    3    0    0 -0.32600854273E+01 -0.35297967176E+01  0.17697444503E+01  0.51205095002E+01  0.51100000000E-03 0.  1.
        -12    1    3    3    0    0  0.95696024440E-01 -0.46074851880E+01  0.16208145594E+02  0.16850580438E+02  0.00000000000E+00 0.  1.
</event>
<event>
 7    1  0.1246400E-009  0.4778727E+02  0.7816164E-02  0.1312668E+00
        -11   -1    0    0    0    0  0.00000000000E+00  0.00000000000E+00  0.45593999997E+02  0.45594000000E+02  0.51100000000E-03 0.  1.
         11   -1    0    0    0    0 -0.00000000000E+00 -0.00000000000E+00 -0.45593999997E+02  0.45594000000E+02  0.51100000000E-03 0. -1.
    9900012    2    1    2    0    0  0.13513238342E+02 -0.41115973062E+02 -0.32391995294E+01  0.47787271148E+02  0.20000000470E+02 0.  0.
         12    1    1    2    0    0 -0.13513238342E+02  0.41115973062E+02  0.32391995294E+01  0.43400728852E+02  0.00000000000E+00 0. -1.
         11    1    3    3    0    0  0.10850310434E+02 -0.11408342907E+02 -0.20645123400E+01  0.15878971499E+02  0.51100000000E-03 0.  1.
        -11    1    3    3    0    0 -0.21515915739E+01 -0.35629232516E+01  0.28171772638E+01  0.50259582563E+01  0.51100000000E-03 0. -1.
         12    1    3    3    0    0  0.48145194814E+01 -0.26144706904E+02 -0.39918644532E+01  0.26882341392E+02  0.00000000000E+00 0. -1.
</event>
<event>
 7    1  0.1246400E-009  0.4778727E+02  0.7816164E-02  0.1312668E+00
        -11   -1    0    0    0    0  0.00000000000E+00  0.00000000000E+00  0.45593999997E+02  0.45594000000E+02  0.51100000000E-03 0.  1.
         11   -1    0    0    0    0 -0.00000000000E+00 -0.00000000000E+00 -0.45593999997E+02  0.45594000000E+02  0.51100000000E-03 0. -1.
    9900012    2    1    2    0    0 -0.32965256326E+02  0.20792957504E+02  0.19093661088E+02  0.47787273046E+02  0.20000009126E+02 0.  0.
         12    1    1    2    0    0  0.32965256326E+02 -0.20792957504E+02 -0.19093661088E+02  0.43400726954E+02  0.00000000000E+00 0. -1.
         11    1    3    3    0    0 -0.23592008107E+01  0.74911774294E+01  0.43917485413E+01  0.89983900369E+01  0.51100000000E-03 0. -1.
        -11    1    3    3    0    0 -0.26600287858E+02  0.13130812392E+02  0.16976836799E+02  0.34179036501E+02  0.51100000000E-03 0.  1.
         12    1    3    3    0    0 -0.40057676573E+01  0.17096768289E+00 -0.22749242522E+01  0.46098465079E+01  0.00000000000E+00 0. -1.
</event>
<event>
 7    1  0.1246400E-009  0.4778727E+02  0.7816164E-02  0.1312668E+00
        -11   -1    0    0    0    0  0.00000000000E+00  0.00000000000E+00  0.45593999997E+02  0.45594000000E+02  0.51100000000E-03 0.  1.
         11   -1    0    0    0    0 -0.00000000000E+00 -0.00000000000E+00 -0.45593999997E+02  0.45594000000E+02  0.51100000000E-03 0. -1.
    9900012    2    1    2    0    0  0.12754443199E+02 -0.16122783376E+02  0.38223071742E+02  0.47787272143E+02  0.20000005008E+02 0.  0.
         12    1    1    2    0    0 -0.12754443199E+02  0.16122783376E+02 -0.38223071742E+02  0.43400727857E+02  0.00000000000E+00 0. -1.
         11    1    3    3    0    0 -0.19660710018E+01  0.27904932676E+00  0.23310397506E+01  0.30621969713E+01  0.51100000000E-03 0. -1.
        -11    1    3    3    0    0  0.13541188211E+02 -0.77659164525E+01  0.13291694622E+02  0.20502253113E+02  0.51100000000E-03 0.  1.
        -12    1    3    3    0    0  0.11793259898E+01 -0.86359162505E+01  0.22600337369E+02  0.24222822059E+02  0.00000000000E+00 0.  1.
</event>
<event>
 7    1  0.1246400E-009  0.4778727E+02  0.7816164E-02  0.1312668E+00
        -11   -1    0    0    0    0  0.00000000000E+00  0.00000000000E+00  0.45593999997E+02  0.45594000000E+02  0.51100000000E-03 0. -1.
         11   -1    0    0    0    0 -0.00000000000E+00 -0.00000000000E+00 -0.45593999997E+02  0.45594000000E+02  0.51100000000E-03 0.  1.
    9900012    2    1    2    0    0 -0.13586715514E+02  0.41208454465E+02 -0.94231702042E+00  0.47787268218E+02  0.19999987113E+02 0.  0.
         12    1    1    2    0    0  0.13586715514E+02 -0.41208454465E+02  0.94231702042E+00  0.43400731782E+02  0.00000000000E+00 0. -1.
         11    1    3    3    0    0 -0.46696379568E+01  0.53077675343E+01  0.66466137820E+01  0.97033700267E+01  0.51100000000E-03 0. -1.
        -11    1    3    3    0    0 -0.14919496186E+01  0.89137610612E+01 -0.39327700657E+01  0.98563548318E+01  0.51100000000E-03 0.  1.
         12    1    3    3    0    0 -0.74251279391E+01  0.26986925869E+02 -0.36561607367E+01  0.28227543360E+02  0.00000000000E+00 0. -1.
</event>
<event>
 7    1  0.1246400E-009  0.4778727E+02  0.7816164E-02  0.1312668E+00
        -11   -1    0    0    0    0  0.00000000000E+00  0.00000000000E+00  0.45593999997E+02  0.45594000000E+02  0.51100000000E-03 0.  1.
         11   -1    0    0    0    0 -0.00000000000E+00 -0.00000000000E+00 -0.45593999997E+02  0.45594000000E+02  0.51100000000E-03 0. -1.
    9900012    2    1    2    0    0 -0.28334724775E+01 -0.26653601712E+02  0.34134732088E+02  0.47787274370E+02  0.20000015163E+02 0.  0.
         12    1    1    2    0    0  0.28334724775E+01  0.26653601712E+02 -0.34134732088E+02  0.43400725630E+02  0.00000000000E+00 0. -1.
         11    1    3    3    0    0  0.64599418681E+01 -0.12639703838E+02  0.17206880591E+02  0.22306270464E+02  0.51100000000E-03 0. -1.
        -11    1    3    3    0    0 -0.17647310807E+01 -0.94453567270E+00 -0.84342295560E+00  0.21720464929E+01  0.51100000000E-03 0.  1.
        -12    1    3    3    0    0 -0.75286832648E+01 -0.13069362201E+02  0.17771274452E+02  0.23308957413E+02  0.00000000000E+00 0.  1.
</event>
<event>
 7    1  0.1246400E-009  0.4778727E+02  0.7816164E-02  0.1312668E+00
        -11   -1    0    0    0    0  0.00000000000E+00  0.00000000000E+00  0.45593999997E+02  0.45594000000E+02  0.51100000000E-03 0.  1.
         11   -1    0    0    0    0 -0.00000000000E+00 -0.00000000000E+00 -0.45593999997E+02  0.45594000000E+02  0.51100000000E-03 0. -1.
    9900012    2    1    2    0    0 -0.79080663735E+01  0.26942170417E+02  0.33093884928E+02  0.47787270972E+02  0.19999999669E+02 0.  0.
         12    1    1    2    0    0  0.79080663735E+01 -0.26942170417E+02 -0.33093884928E+02  0.43400729028E+02  0.00000000000E+00 0. -1.
         11    1    3    3    0    0 -0.15355162848E+01 -0.19702118166E+01  0.34010145346E+01  0.42197683572E+01  0.51100000000E-03 0. -1.
        -11    1    3    3    0    0  0.95212631674E+00 -0.82234697743E+00  0.11360558417E+01  0.16951171673E+01  0.51100000000E-03 0.  1.
        -12    1    3    3    0    0 -0.73246764054E+01  0.29734729211E+02  0.28556814552E+02  0.41872385447E+02  0.00000000000E+00 0.  1.
</event>
<event>
 7    1  0.1246400E-009  0.4778727E+02  0.7816164E-02  0.1312668E+00
        -11   -1    0    0    0    0  0.00000000000E+00  0.00000000000E+00  0.45593999997E+02  0.45594000000E+02  0.51100000000E-03 0.  1.
         11   -1    0    0    0    0 -0.00000000000E+00 -0.00000000000E+00 -0.45593999997E+02  0.45594000000E+02  0.51100000000E-03 0. -1.
    9900012    2    1    2    0    0  0.53303825762E+01 -0.31243181918E+02  0.29649175216E+02  0.47787274364E+02  0.20000015135E+02 0.  0.
         12    1    1    2    0    0 -0.53303825762E+01  0.31243181918E+02 -0.29649175216E+02  0.43400725636E+02  0.00000000000E+00 0. -1.
         11    1    3    3    0    0  0.69801242853E+01 -0.16179468406E+02  0.24984088039E+02  0.30572896303E+02  0.51100000000E-03 0. -1.
        -11    1    3    3    0    0  0.24807921795E+01 -0.77325910774E+01  0.17342631956E+01  0.83039125538E+01  0.51100000000E-03 0.  1.
         12    1    3    3    0    0 -0.41305338886E+01 -0.73311224339E+01  0.29308239814E+01  0.89104655073E+01  0.00000000000E+00 0. -1.
</event>
<event>
 7    1  0.1246400E-009  0.4778727E+02  0.7816164E-02  0.1312668E+00
        -11   -1    0    0    0    0  0.00000000000E+00  0.00000000000E+00  0.45593999997E+02  0.45594000000E+02  0.51100000000E-03 0. -1.
         11   -1    0    0    0    0 -0.00000000000E+00 -0.00000000000E+00 -0.45593999997E+02  0.45594000000E+02  0.51100000000E-03 0.  1.
    9900012    2    1    2    0    0 -0.39207305976E+02 -0.16433393580E+02 -0.87380931688E+01  0.47787267994E+02  0.19999986090E+02 0.  0.
         12    1    1    2    0    0  0.39207305976E+02  0.16433393580E+02  0.87380931688E+01  0.43400732006E+02  0.00000000000E+00 0. -1.
         11    1    3    3    0    0 -0.22467548585E+02 -0.11037813761E+02 -0.44090638938E+01  0.25417787408E+02  0.51100000000E-03 0.  1.
        -11    1    3    3    0    0 -0.10699505651E+02 -0.85439656908E+01  0.98878654247E+00  0.13727944856E+02  0.51100000000E-03 0. -1.
        -12    1    3    3    0    0 -0.60402517407E+01  0.31483858718E+01 -0.53178158175E+01  0.86415357291E+01  0.00000000000E+00 0.  1.
</event>
<event>
 7    1  0.1246400E-009  0.4778727E+02  0.7816164E-02  0.1312668E+00
        -11   -1    0    0    0    0  0.00000000000E+00  0.00000000000E+00  0.45593999997E+02  0.45594000000E+02  0.51100000000E-03 0.  1.
         11   -1    0    0    0    0 -0.00000000000E+00 -0.00000000000E+00 -0.45593999997E+02  0.45594000000E+02  0.51100000000E-03 0. -1.
    9900012    2    1    2    0    0 -0.17624934650E+02  0.16194964307E+02  0.36203707331E+02  0.47787267117E+02  0.19999982092E+02 0.  0.
         12    1    1    2    0    0  0.17624934650E+02 -0.16194964307E+02 -0.36203707331E+02  0.43400732883E+02  0.00000000000E+00 0. -1.
         11    1    3    3    0    0 -0.98827392444E+01  0.31846716934E-01  0.14905160254E+02  0.17883885250E+02  0.51100000000E-03 0. -1.
        -11    1    3    3    0    0 -0.55095272723E+01  0.11716973956E+02  0.21301875413E+02  0.24928142045E+02  0.51100000000E-03 0.  1.
        -12    1    3    3    0    0 -0.22326681329E+01  0.44461436339E+01 -0.33283359916E-02  0.49752398216E+01  0.00000000000E+00 0.  1.
</event>
<event>
 7    1  0.1246400E-009  0.4778727E+02  0.7816164E-02  0.1312668E+00
        -11   -1    0    0    0    0  0.00000000000E+00  0.00000000000E+00  0.45593999997E+02  0.45594000000E+02  0.51100000000E-03 0.  1.
         11   -1    0    0    0    0 -0.00000000000E+00 -0.00000000000E+00 -0.45593999997E+02  0.45594000000E+02  0.51100000000E-03 0. -1.
    9900012    2    1    2    0    0  0.85963581222E+00  0.43019140107E+01  0.43178442485E+02  0.47787270360E+02  0.19999996880E+02 0.  0.
         12    1    1    2    0    0 -0.85963581222E+00 -0.43019140107E+01 -0.43178442485E+02  0.43400729640E+02  0.00000000000E+00 0. -1.
         11    1    3    3    0    0  0.10657245072E+01 -0.70583028361E+01  0.19284559374E+02  0.20563308055E+02  0.51100000000E-03 0. -1.
        -11    1    3    3    0    0  0.11849887396E+01  0.50136646026E+01  0.16944672237E+02  0.17710532136E+02  0.51100000000E-03 0.  1.
         12    1    3    3    0    0 -0.13910774346E+01  0.63465522442E+01  0.69492108738E+01  0.95134301693E+01  0.00000000000E+00 0. -1.
</event>
<event>
 7    1  0.1246400E-009  0.4778727E+02  0.7816164E-02  0.1312668E+00
        -11   -1    0    0    0    0  0.00000000000E+00  0.00000000000E+00  0.45593999997E+02  0.45594000000E+02  0.51100000000E-03 0. -1.
         11   -1    0    0    0    0 -0.00000000000E+00 -0.00000000000E+00 -0.45593999997E+02  0.45594000000E+02  0.51100000000E-03 0.  1.
    9900012    2    1    2    0    0  0.28380425666E+02  0.12364273885E+02 -0.30418738458E+02  0.47787268680E+02  0.19999989220E+02 0.  0.
         12    1    1    2    0    0 -0.28380425666E+02 -0.12364273885E+02  0.30418738458E+02  0.43400731320E+02  0.00000000000E+00 0. -1.
         11    1    3    3    0    0  0.11481427491E+02  0.67114797918E+01 -0.18221868391E+02  0.22558892396E+02  0.51100000000E-03 0. -1.
        -11    1    3    3    0    0 -0.13397861172E+01  0.33816606584E+01 -0.13084312592E+01  0.38655721788E+01  0.51100000000E-03 0.  1.
         12    1    3    3    0    0  0.18238784293E+02  0.22711334352E+01 -0.10888438808E+02  0.21362804105E+02  0.00000000000E+00 0. -1.
</event>
<event>
 7    1  0.1246400E-009  0.4778728E+02  0.7816164E-02  0.1312668E+00
        -11   -1    0    0    0    0  0.00000000000E+00  0.00000000000E+00  0.45593999997E+02  0.45594000000E+02  0.51100000000E-03 0.  1.
         11   -1    0    0    0    0 -0.00000000000E+00 -0.00000000000E+00 -0.45593999997E+02  0.45594000000E+02  0.51100000000E-03 0. -1.
    9900012    2    1    2    0    0 -0.48019367940E+01  0.28758869176E+02  0.32147962343E+02  0.47787278392E+02  0.20000033502E+02 0.  0.
         12    1    1    2    0    0  0.48019367940E+01 -0.28758869176E+02 -0.32147962343E+02  0.43400721608E+02  0.00000000000E+00 0. -1.
         11    1    3    3    0    0 -0.40820628210E+01  0.14514115599E+02  0.20662099583E+02  0.25578216278E+02  0.51100000000E-03 0. -1.
        -11    1    3    3    0    0  0.54873730043E-01  0.38592135063E+01  0.11139189000E+02  0.11788896126E+02  0.51100000000E-03 0.  1.
         12    1    3    3    0    0 -0.77474770307E+00  0.10385540070E+02  0.34667375994E+00  0.10420165989E+02  0.00000000000E+00 0. -1.
</event>
<event>
 7    1  0.1246400E-009  0.4778728E+02  0.7816164E-02  0.1312668E+00
        -11   -1    0    0    0    0  0.00000000000E+00  0.00000000000E+00  0.45593999997E+02  0.45594000000E+02  0.51100000000E-03 0.  1.
         11   -1    0    0    0    0 -0.00000000000E+00 -0.00000000000E+00 -0.45593999997E+02  0.45594000000E+02  0.51100000000E-03 0. -1.
    9900012    2    1    2    0    0 -0.33648446765E+02  0.27065718085E+02  0.43418099480E+01  0.47787281357E+02  0.20000047017E+02 0.  0.
         12    1    1    2    0    0  0.33648446765E+02 -0.27065718085E+02 -0.43418099480E+01  0.43400718643E+02  0.00000000000E+00 0. -1.
         11    1    3    3    0    0 -0.19821192644E+01  0.43432755520E+01  0.55491224353E+01  0.73202185323E+01  0.51100000000E-03 0. -1.
        -11    1    3    3    0    0 -0.16276476651E+02  0.56873364998E+01  0.17053139968E+01  0.17325633746E+02  0.51100000000E-03 0.  1.
         12    1    3    3    0    0 -0.15389850850E+02  0.17035106033E+02 -0.29126264841E+01  0.23141429078E+02  0.00000000000E+00 0. -1.
</event>
<event>
 7    1  0.1246400E-009  0.4778727E+02  0.7816164E-02  0.1312668E+00
        -11   -1    0    0    0    0  0.00000000000E+00  0.00000000000E+00  0.45593999997E+02  0.45594000000E+02  0.51100000000E-03 0.  1.
         11   -1    0    0    0    0 -0.00000000000E+00 -0.00000000000E+00 -0.45593999997E+02  0.45594000000E+02  0.51100000000E-03 0. -1.
    9900012    2    1    2    0    0 -0.62711139711E+01 -0.27021882070E+02  0.33378351132E+02  0.47787270682E+02  0.19999998348E+02 0.  0.
         12    1    1    2    0    0  0.62711139711E+01  0.27021882070E+02 -0.33378351132E+02  0.43400729318E+02  0.00000000000E+00 0. -1.
         11    1    3    3    0    0  0.10027313133E+01 -0.12267744843E+02  0.67835528953E+01  0.14054167488E+02  0.51100000000E-03 0. -1.
        -11    1    3    3    0    0 -0.89529906801E+01 -0.12650908049E+02  0.26878709651E+02  0.31026868185E+02  0.51100000000E-03 0.  1.
         12    1    3    3    0    0  0.16791453957E+01 -0.21032291781E+01 -0.28391141487E+00  0.27062350095E+01  0.00000000000E+00 0. -1.
</event>
<event>
 7    1  0.1246400E-009  0.4778727E+02  0.7816164E-02  0.1312668E+00
        -11   -1    0    0    0    0  0.00000000000E+00  0.00000000000E+00  0.45593999997E+02  0.45594000000E+02  0.51100000000E-03 0.  1.
         11   -1    0    0    0    0 -0.00000000000E+00 -0.00000000000E+00 -0.45593999997E+02  0.45594000000E+02  0.51100000000E-03 0. -1.
    9900012    2    1    2    0    0 -0.25404762342E+02  0.64806634321E+00  0.35182402414E+02  0.47787269830E+02  0.19999994464E+02 0.  0.
         12    1    1    2    0    0  0.25404762342E+02 -0.64806634321E+00 -0.35182402414E+02  0.43400730170E+02  0.00000000000E+00 0. -1.
         11    1    3    3    0    0 -0.12268573644E+02 -0.44592512397E+01  0.13114441275E+02  0.18503820986E+02  0.51100000000E-03 0. -1.
        -11    1    3    3    0    0 -0.14573522762E+02  0.71352165748E+01  0.16285942534E+02  0.22989797862E+02  0.51100000000E-03 0.  1.
        -12    1    3    3    0    0  0.14373340639E+01 -0.20278989919E+01  0.57820186047E+01  0.62936509815E+01  0.00000000000E+00 0.  1.
</event>
<event>
 7    1  0.1246400E-009  0.4778727E+02  0.7816164E-02  0.1312668E+00
        -11   -1    0    0    0    0  0.00000000000E+00  0.00000000000E+00  0.45593999997E+02  0.45594000000E+02  0.51100000000E-03 0.  1.
         11   -1    0    0    0    0 -0.00000000000E+00 -0.00000000000E+00 -0.45593999997E+02  0.45594000000E+02  0.51100000000E-03 0. -1.
    9900012    2    1    2    0    0  0.74600886882E+01  0.41858676139E+02  0.87075511986E+01  0.47787272596E+02  0.20000007073E+02 0.  0.
         12    1    1    2    0    0 -0.74600886882E+01 -0.41858676139E+02 -0.87075511986E+01  0.43400727404E+02  0.00000000000E+00 0. -1.
         11    1    3    3    0    0  0.31867730975E+01  0.92522416818E+01 -0.19162634928E+01  0.99715377424E+01  0.51100000000E-03 0.  1.
        -11    1    3    3    0    0 -0.31448702805E+01  0.13186165321E+02 -0.16784791139E+01  0.13659518928E+02  0.51100000000E-03 0. -1.
        -12    1    3    3    0    0  0.74181858712E+01  0.19420269136E+02  0.12302293805E+02  0.24156215925E+02  0.00000000000E+00 0.  1.
</event>
<event>
 7    1  0.1246400E-009  0.4778724E+02  0.7816164E-02  0.1312668E+00
        -11   -1    0    0    0    0  0.00000000000E+00  0.00000000000E+00  0.45593999997E+02  0.45594000000E+02  0.51100000000E-03 0.  1.
         11   -1    0    0    0    0 -0.00000000000E+00 -0.00000000000E+00 -0.45593999997E+02  0.45594000000E+02  0.51100000000E-03 0. -1.
    9900012    2    1    2    0    0 -0.18664192119E+02 -0.21341513586E+02  0.32860513407E+02  0.47787244119E+02  0.19999877238E+02 0.  0.
         12    1    1    2    0    0  0.18664192119E+02  0.21341513586E+02 -0.32860513407E+02  0.43400755881E+02  0.00000000000E+00 0. -1.
         11    1    3    3    0    0 -0.17033193010E+01  0.25458180556E+01  0.52523951040E+01  0.60803076241E+01  0.51100000000E-03 0. -1.
        -11    1    3    3    0    0 -0.63987421460E+01 -0.98517439636E+01  0.42752713879E+01  0.12501148182E+02  0.51100000000E-03 0.  1.
        -12    1    3    3    0    0 -0.10562130672E+02 -0.14035587678E+02  0.23332846915E+02  0.29205788313E+02  0.00000000000E+00 0.  1.
</event>
<event>
 7    1  0.1331651E-009  0.4778726E+02  0.7816164E-02  0.1312668E+00
        -11   -1    0    0    0    0  0.00000000000E+00  0.00000000000E+00  0.45593999997E+02  0.45594000000E+02  0.51100000000E-03 0.  1.
         11   -1    0    0    0    0 -0.00000000000E+00 -0.00000000000E+00 -0.45593999997E+02  0.45594000000E+02  0.51100000000E-03 0. -1.
    9900012    2    1    2    0    0  0.94696919806E+01  0.42345376598E+02  0.90464991693E+00  0.47787258337E+02  0.19999942063E+02 0.  0.
         12    1    1    2    0    0 -0.94696919806E+01 -0.42345376598E+02 -0.90464991693E+00  0.43400741663E+02  0.00000000000E+00 0. -1.
         11    1    3    3    0    0 -0.58891771196E+01  0.11322819288E+02 -0.15575401573E+01  0.12857471578E+02  0.51100000000E-03 0. -1.
        -11    1    3    3    0    0  0.46365387316E+01  0.13546734148E+02  0.40644490815E+00  0.14323990199E+02  0.51100000000E-03 0.  1.
         12    1    3    3    0    0  0.10722330369E+02  0.17475823161E+02  0.20557451661E+01  0.20605796560E+02  0.00000000000E+00 0. -1.
</event>
<event>
 7    1  0.1246400E-009  0.4778727E+02  0.7816164E-02  0.1312668E+00
        -11   -1    0    0    0    0  0.00000000000E+00  0.00000000000E+00  0.45593999997E+02  0.45594000000E+02  0.51100000000E-03 0.  1.
         11   -1    0    0    0    0 -0.00000000000E+00 -0.00000000000E+00 -0.45593999997E+02  0.45594000000E+02  0.51100000000E-03 0. -1.
    9900012    2    1    2    0    0 -0.38319769913E+02 -0.10782827275E+02  0.17290146611E+02  0.47787270743E+02  0.19999998626E+02 0.  0.
         12    1    1    2    0    0  0.38319769913E+02  0.10782827275E+02 -0.17290146611E+02  0.43400729257E+02  0.00000000000E+00 0. -1.
         11    1    3    3    0    0 -0.11431972347E+01 -0.43507875602E+01  0.44740941930E+01  0.63445859928E+01  0.51100000000E-03 0. -1.
        -11    1    3    3    0    0 -0.92362811779E-01  0.13202973381E+01  0.12755416320E+01  0.18381302092E+01  0.51100000000E-03 0.  1.
        -12    1    3    3    0    0 -0.37084209866E+02 -0.77523370525E+01  0.11540510786E+02  0.39604554541E+02  0.00000000000E+00 0.  1.
</event>
<event>
 7    1  0.1246400E-009  0.4778727E+02  0.7816164E-02  0.1312668E+00
        -11   -1    0    0    0    0  0.00000000000E+00  0.00000000000E+00  0.45593999997E+02  0.45594000000E+02  0.51100000000E-03 0.  1.
         11   -1    0    0    0    0 -0.00000000000E+00 -0.00000000000E+00 -0.45593999997E+02  0.45594000000E+02  0.51100000000E-03 0. -1.
    9900012    2    1    2    0    0 -0.18214864195E+02 -0.87305913917E+01  0.38413781040E+02  0.47787273307E+02  0.20000010316E+02 0.  0.
         12    1    1    2    0    0  0.18214864195E+02  0.87305913917E+01 -0.38413781040E+02  0.43400726693E+02  0.00000000000E+00 0. -1.
         11    1    3    3    0    0 -0.16165085907E+02 -0.79094866349E+01  0.40338701439E+02  0.44171040459E+02  0.51100000000E-03 0.  1.
        -11    1    3    3    0    0 -0.14823590535E+01 -0.15299727242E+01 -0.11408516586E+01  0.24165569864E+01  0.51100000000E-03 0. -1.
        -12    1    3    3    0    0 -0.56741923439E+00  0.70886796739E+00 -0.78406874045E+00  0.11996758614E+01  0.00000000000E+00 0.  1.
</event>
<event>
 7    1  0.1246400E-009  0.4778726E+02  0.7816164E-02  0.1312668E+00
        -11   -1    0    0    0    0  0.00000000000E+00  0.00000000000E+00  0.45593999997E+02  0.45594000000E+02  0.51100000000E-03 0. -1.
         11   -1    0    0    0    0 -0.00000000000E+00 -0.00000000000E+00 -0.45593999997E+02  0.45594000000E+02  0.51100000000E-03 0.  1.
    9900012    2    1    2    0    0  0.53080203714E+01  0.36987443795E+02  0.22076638143E+02  0.47787262328E+02  0.19999960258E+02 0.  0.
         12    1    1    2    0    0 -0.53080203714E+01 -0.36987443795E+02 -0.22076638143E+02  0.43400737672E+02  0.00000000000E+00 0. -1.
         11    1    3    3    0    0  0.80208847823E-01  0.14992897834E+02  0.82722605166E+01  0.17123776255E+02  0.51100000000E-03 0. -1.
        -11    1    3    3    0    0  0.10735474881E+02  0.13546260745E+02  0.82975183193E+01  0.19172908272E+02  0.51100000000E-03 0.  1.
         12    1    3    3    0    0 -0.55076633576E+01  0.84482852168E+01  0.55068593072E+01  0.11490577801E+02  0.00000000000E+00 0. -1.
</event>
<event>
 7    1  0.1246400E-009  0.4778727E+02  0.7816164E-02  0.1312668E+00
        -11   -1    0    0    0    0  0.00000000000E+00  0.00000000000E+00  0.45593999997E+02  0.45594000000E+02  0.51100000000E-03 0. -1.
         11   -1    0    0    0    0 -0.00000000000E+00 -0.00000000000E+00 -0.45593999997E+02  0.45594000000E+02  0.51100000000E-03 0.  1.
    9900012    2    1    2    0    0 -0.32271336570E+02 -0.12909029362E+02 -0.25991177312E+02  0.47787268426E+02  0.19999988062E+02 0.  0.
         12    1    1    2    0    0  0.32271336570E+02  0.12909029362E+02  0.25991177312E+02  0.43400731574E+02  0.00000000000E+00 0. -1.
         11    1    3    3    0    0  0.33350656625E+00  0.16008417197E+01  0.13398465002E+01  0.21140269030E+01  0.51100000000E-03 0. -1.
        -11    1    3    3    0    0 -0.14237773061E+02 -0.10738455462E+02 -0.13844396422E+02  0.22576446133E+02  0.51100000000E-03 0.  1.
         12    1    3    3    0    0 -0.18367070075E+02 -0.37714156195E+01 -0.13486627391E+02  0.23096795390E+02  0.00000000000E+00 0. -1.
</event>
<event>
 7    1  0.1246400E-009  0.4778727E+02  0.7816164E-02  0.1312668E+00
        -11   -1    0    0    0    0  0.00000000000E+00  0.00000000000E+00  0.45593999997E+02  0.45594000000E+02  0.51100000000E-03 0. -1.
         11   -1    0    0    0    0 -0.00000000000E+00 -0.00000000000E+00 -0.45593999997E+02  0.45594000000E+02  0.51100000000E-03 0.  1.
    9900012    2    1    2    0    0  0.34219268920E+02 -0.88997880955E+00  0.26680948189E+02  0.47787269315E+02  0.19999992116E+02 0.  0.
         12    1    1    2    0    0 -0.34219268920E+02  0.88997880955E+00 -0.26680948189E+02  0.43400730685E+02  0.00000000000E+00 0. -1.
         11    1    3    3    0    0  0.65487985804E+01  0.52332059110E+01  0.47965481382E+01  0.96581613808E+01  0.51100000000E-03 0. -1.
        -11    1    3    3    0    0  0.67518626055E+01 -0.30773518331E+01  0.13466621822E+02  0.15375553535E+02  0.51100000000E-03 0.  1.
        -12    1    3    3    0    0  0.20918607734E+02 -0.30458328874E+01  0.84177782290E+01  0.22753554400E+02  0.00000000000E+00 0.  1.
</event>
<event>
 7    1  0.1246400E-009  0.4778728E+02  0.7816164E-02  0.1312668E+00
        -11   -1    0    0    0    0  0.00000000000E+00  0.00000000000E+00  0.45593999997E+02  0.45594000000E+02  0.51100000000E-03 0.  1.
         11   -1    0    0    0    0 -0.00000000000E+00 -0.00000000000E+00 -0.45593999997E+02  0.45594000000E+02  0.51100000000E-03 0. -1.
    9900012    2    1    2    0    0 -0.15122538865E+02  0.31696946638E+02  0.25499710620E+02  0.47787275932E+02  0.20000022286E+02 0.  0.
         12    1    1    2    0    0  0.15122538865E+02 -0.31696946638E+02 -0.25499710620E+02  0.43400724068E+02  0.00000000000E+00 0. -1.
         11    1    3    3    0    0 -0.39738224268E+01  0.47672087870E+01 -0.82734973988E+00  0.62611542188E+01  0.51100000000E-03 0. -1.
        -11    1    3    3    0    0 -0.13766159716E+02  0.24793093647E+02  0.21290063556E+02  0.35460843932E+02  0.51100000000E-03 0.  1.
         12    1    3    3    0    0  0.26174432775E+01  0.21366442046E+01  0.50369968037E+01  0.60652777816E+01  0.00000000000E+00 0. -1.
</event>
<event>
 7    1  0.1246400E-009  0.4778727E+02  0.7816164E-02  0.1312668E+00
        -11   -1    0    0    0    0  0.00000000000E+00  0.00000000000E+00  0.45593999997E+02  0.45594000000E+02  0.51100000000E-03 0. -1.
         11   -1    0    0    0    0 -0.00000000000E+00 -0.00000000000E+00 -0.45593999997E+02  0.45594000000E+02  0.51100000000E-03 0.  1.
    9900012    2    1    2    0    0  0.83251581555E+01  0.32691201650E+01 -0.42469140707E+02  0.47787270543E+02  0.19999997715E+02 0.  0.
         12    1    1    2    0    0 -0.83251581555E+01 -0.32691201650E+01  0.42469140707E+02  0.43400729457E+02  0.00000000000E+00 0. -1.
         11    1    3    3    0    0 -0.47303507031E+01 -0.33340650181E+01 -0.92145004267E+01  0.10881140827E+02  0.51100000000E-03 0. -1.
        -11    1    3    3    0    0  0.31202056597E+01  0.37123739949E+01 -0.16645355511E+02  0.17337394971E+02  0.51100000000E-03 0.  1.
        -12    1    3    3    0    0  0.99353031988E+01  0.28908111882E+01 -0.16609284770E+02  0.19568734746E+02  0.00000000000E+00 0.  1.
</event>
<event>
 7    1  0.1246400E-009  0.4778727E+02  0.7816164E-02  0.1312668E+00
        -11   -1    0    0    0    0  0.00000000000E+00  0.00000000000E+00  0.45593999997E+02  0.45594000000E+02  0.51100000000E-03 0. -1.
         11   -1    0    0    0    0 -0.00000000000E+00 -0.00000000000E+00 -0.45593999997E+02  0.45594000000E+02  0.51100000000E-03 0.  1.
    9900012    2    1    2    0    0 -0.18968830618E+02  0.38984481990E+02 -0.20041395033E+01  0.47787274819E+02  0.20000017211E+02 0.  0.
         12    1    1    2    0    0  0.18968830618E+02 -0.38984481990E+02  0.20041395033E+01  0.43400725181E+02  0.00000000000E+00 0. -1.
         11    1    3    3    0    0 -0.76058951320E+00  0.53241334622E+01  0.24407365816E+01  0.59061060651E+01  0.51100000000E-03 0. -1.
        -11    1    3    3    0    0  0.27768861344E+01  0.68255781880E+01  0.80699559657E+00  0.74128844829E+01  0.51100000000E-03 0.  1.
         12    1    3    3    0    0 -0.20985127239E+02  0.26834770340E+02 -0.52518716815E+01  0.34468284271E+02  0.00000000000E+00 0. -1.
</event>
<event>
 7    1  0.1246400E-009  0.4778727E+02  0.7816164E-02  0.1312668E+00
        -11   -1    0    0    0    0  0.00000000000E+00  0.00000000000E+00  0.45593999997E+02  0.45594000000E+02  0.51100000000E-03 0.  1.
         11   -1    0    0    0    0 -0.00000000000E+00 -0.00000000000E+00 -0.45593999997E+02  0.45594000000E+02  0.51100000000E-03 0. -1.
    9900012    2    1    2    0    0 -0.25030827386E+02 -0.23341070871E+02  0.26688497243E+02  0.47787265051E+02  0.19999972672E+02 0.  0.
         12    1    1    2    0    0  0.25030827386E+02  0.23341070871E+02 -0.26688497243E+02  0.43400734949E+02  0.00000000000E+00 0. -1.
         11    1    3    3    0    0 -0.92682903877E+01 -0.13272783598E+02  0.16994718139E+02  0.23471012676E+02  0.51100000000E-03 0. -1.
        -11    1    3    3    0    0 -0.80929811678E+01  0.14220781275E+01  0.18236932240E+01  0.84169179407E+01  0.51100000000E-03 0.  1.
        -12    1    3    3    0    0 -0.76695558309E+01 -0.11490365401E+02  0.78700858798E+01  0.15899334434E+02  0.00000000000E+00 0.  1.
</event>
<event>
 7    1  0.1246400E-009  0.4778724E+02  0.7816164E-02  0.1312668E+00
        -11   -1    0    0    0    0  0.00000000000E+00  0.00000000000E+00  0.45593999997E+02  0.45594000000E+02  0.51100000000E-03 0. -1.
         11   -1    0    0    0    0 -0.00000000000E+00 -0.00000000000E+00 -0.45593999997E+02  0.45594000000E+02  0.51100000000E-03 0.  1.
    9900012    2    1    2    0    0 -0.11803447087E+02 -0.23824729548E+02 -0.34302871473E+02  0.47787238573E+02  0.19999851950E+02 0.  0.
         12    1    1    2    0    0  0.11803447087E+02  0.23824729548E+02  0.34302871473E+02  0.43400761427E+02  0.00000000000E+00 0. -1.
         11    1    3    3    0    0 -0.43247756792E+01 -0.40941695247E+01  0.71664251764E-01  0.59557572817E+01  0.51100000000E-03 0. -1.
        -11    1    3    3    0    0 -0.22769997317E+01 -0.81463529155E+00 -0.11247004041E+02  0.11504062699E+02  0.51100000000E-03 0.  1.
        -12    1    3    3    0    0 -0.52016716758E+01 -0.18915924731E+02 -0.23127531684E+02  0.30327418592E+02  0.00000000000E+00 0.  1.
</event>
<event>
 7    1  0.1246400E-009  0.4778727E+02  0.7816164E-02  0.1312668E+00
        -11   -1    0    0    0    0  0.00000000000E+00  0.00000000000E+00  0.45593999997E+02  0.45594000000E+02  0.51100000000E-03 0. -1.
         11   -1    0    0    0    0 -0.00000000000E+00 -0.00000000000E+00 -0.45593999997E+02  0.45594000000E+02  0.51100000000E-03 0.  1.
    9900012    2    1    2    0    0  0.13872094826E+02 -0.35898554517E+01 -0.40967076403E+02  0.47787269292E+02  0.19999992008E+02 0.  0.
         12    1    1    2    0    0 -0.13872094826E+02  0.35898554517E+01  0.40967076403E+02  0.43400730708E+02  0.00000000000E+00 0. -1.
         11    1    3    3    0    0  0.30553470181E+01 -0.17514796751E+01 -0.42649356724E+01  0.55310489968E+01  0.51100000000E-03 0. -1.
        -11    1    3    3    0    0  0.14349373939E+02 -0.56873980350E+01 -0.24163899555E+02  0.28673072225E+02  0.51100000000E-03 0.  1.
         12    1    3    3    0    0 -0.35326261305E+01  0.38490222584E+01 -0.12538241175E+02  0.13583148070E+02  0.00000000000E+00 0. -1.
</event>
<event>
 7    1  0.1246400E-009  0.4778727E+02  0.7816164E-02  0.1312668E+00
        -11   -1    0    0    0    0  0.00000000000E+00  0.00000000000E+00  0.45593999997E+02  0.45594000000E+02  0.51100000000E-03 0.  1.
         11   -1    0    0    0    0 -0.00000000000E+00 -0.00000000000E+00 -0.45593999997E+02  0.45594000000E+02  0.51100000000E-03 0. -1.
    9900012    2    1    2    0    0 -0.22709836342E+00  0.28892591039E+01  0.43303859921E+02  0.47787266413E+02  0.19999978884E+02 0.  0.
         12    1    1    2    0    0  0.22709836342E+00 -0.28892591039E+01 -0.43303859921E+02  0.43400733587E+02  0.00000000000E+00 0. -1.
         11    1    3    3    0    0  0.22567611988E+01  0.74974775486E+01  0.33376818908E+02  0.34282899256E+02  0.51100000000E-03 0. -1.
        -11    1    3    3    0    0 -0.37805539905E+01  0.54267475536E+00  0.36694366919E+01  0.52963997453E+01  0.51100000000E-03 0.  1.
         12    1    3    3    0    0  0.12966944284E+01 -0.51508932001E+01  0.62576043205E+01  0.82079674117E+01  0.00000000000E+00 0. -1.
</event>
<event>
 7    1  0.1246400E-009  0.4778727E+02  0.7816164E-02  0.1312668E+00
        -11   -1    0    0    0    0  0.00000000000E+00  0.00000000000E+00  0.45593999997E+02  0.45594000000E+02  0.51100000000E-03 0. -1.
         11   -1    0    0    0    0 -0.00000000000E+00 -0.00000000000E+00 -0.45593999997E+02  0.45594000000E+02  0.51100000000E-03 0.  1.
    9900012    2    1    2    0    0 -0.53969040802E+01  0.24565595690E+02 -0.35369877151E+02  0.47787271032E+02  0.19999999945E+02 0.  0.
         12    1    1    2    0    0  0.53969040802E+01 -0.24565595690E+02  0.35369877151E+02  0.43400728968E+02  0.00000000000E+00 0. -1.
         11    1    3    3    0    0 -0.30598640358E+01  0.18273895306E+02 -0.11548284568E+02  0.21832564995E+02  0.51100000000E-03 0. -1.
        -11    1    3    3    0    0 -0.25607906036E+01  0.80185522006E+01 -0.17863779416E+02  0.19747643991E+02  0.51100000000E-03 0.  1.
        -12    1    3    3    0    0  0.22375055914E+00 -0.17268518161E+01 -0.59578131675E+01  0.62070620462E+01  0.00000000000E+00 0.  1.
</event>
<event>
 7    1  0.1246400E-009  0.4778727E+02  0.7816164E-02  0.1312668E+00
        -11   -1    0    0    0    0  0.00000000000E+00  0.00000000000E+00  0.45593999997E+02  0.45594000000E+02  0.51100000000E-03 0. -1.
         11   -1    0    0    0    0 -0.00000000000E+00 -0.00000000000E+00 -0.45593999997E+02  0.45594000000E+02  0.51100000000E-03 0.  1.
    9900012    2    1    2    0    0  0.36757402627E+02 -0.15615233686E+02  0.16990617287E+02  0.47787271357E+02  0.20000001425E+02 0.  0.
         12    1    1    2    0    0 -0.36757402627E+02  0.15615233686E+02 -0.16990617287E+02  0.43400728643E+02  0.00000000000E+00 0. -1.
         11    1    3    3    0    0  0.93923206997E+01 -0.47276034912E+01 -0.23959897276E+01  0.10784557939E+02  0.51100000000E-03 0.  1.
        -11    1    3    3    0    0  0.70191624117E+00 -0.97112854755E+00 -0.13458104206E+01  0.18019386823E+01  0.51100000000E-03 0. -1.
        -12    1    3    3    0    0  0.26663165686E+02 -0.99165016474E+01  0.20732417435E+02  0.35200774736E+02  0.00000000000E+00 0.  1.
</event>
<event>
 7    1  0.1246400E-009  0.4778729E+02  0.7816164E-02  0.1312668E+00
        -11   -1    0    0    0    0  0.00000000000E+00  0.00000000000E+00  0.45593999997E+02  0.45594000000E+02  0.51100000000E-03 0.  1.
         11   -1    0    0    0    0 -0.00000000000E+00 -0.00000000000E+00 -0.45593999997E+02  0.45594000000E+02  0.51100000000E-03 0. -1.
    9900012    2    1    2    0    0  0.55814180460E+01  0.33884155997E+02  0.26539285872E+02  0.47787286301E+02  0.20000069559E+02 0.  0.
         12    1    1    2    0    0 -0.55814180460E+01 -0.33884155997E+02 -0.26539285872E+02  0.43400713699E+02  0.00000000000E+00 0. -1.
         11    1    3    3    0    0 -0.19372781567E+01  0.25791083469E+01  0.32173022182E+01  0.45558621956E+01  0.51100000000E-03 0. -1.
        -11    1    3    3    0    0 -0.47946975973E+01  0.11498970464E+02  0.12034585654E+02  0.17321856104E+02  0.51100000000E-03 0.  1.
         12    1    3    3    0    0  0.12313393800E+02  0.19806077186E+02  0.11287398000E+02  0.25909568001E+02  0.00000000000E+00 0. -1.
</event>
<event>
 7    1  0.1246400E-009  0.4778727E+02  0.7816164E-02  0.1312668E+00
        -11   -1    0    0    0    0  0.00000000000E+00  0.00000000000E+00  0.45593999997E+02  0.45594000000E+02  0.51100000000E-03 0. -1.
         11   -1    0    0    0    0 -0.00000000000E+00 -0.00000000000E+00 -0.45593999997E+02  0.45594000000E+02  0.51100000000E-03 0.  1.
    9900012    2    1    2    0    0  0.28177964898E+02 -0.69780987534E+00 -0.33002102243E+02  0.47787269627E+02  0.19999993538E+02 0.  0.
         12    1    1    2    0    0 -0.28177964898E+02  0.69780987534E+00  0.33002102243E+02  0.43400730373E+02  0.00000000000E+00 0. -1.
         11    1    3    3    0    0  0.11287425799E+02 -0.41502768205E+01 -0.49013610152E+01  0.12986690068E+02  0.51100000000E-03 0. -1.
        -11    1    3    3    0    0  0.14043480307E+02 -0.18523829053E+01 -0.16623831699E+02  0.21840385578E+02  0.51100000000E-03 0.  1.
        -12    1    3    3    0    0  0.28470587921E+01  0.53048498504E+01 -0.11476909529E+02  0.12960193982E+02  0.00000000000E+00 0.  1.
</event>
<event>
 7    1  0.1246400E-009  0.4778729E+02  0.7816164E-02  0.1312668E+00
        -11   -1    0    0    0    0  0.00000000000E+00  0.00000000000E+00  0.45593999997E+02  0.45594000000E+02  0.51100000000E-03 0. -1.
         11   -1    0    0    0    0 -0.00000000000E+00 -0.00000000000E+00 -0.45593999997E+02  0.45594000000E+02  0.51100000000E-03 0.  1.
    9900012    2    1    2    0    0  0.27565565672E+02  0.41124334850E+01 -0.33269342979E+02  0.47787289151E+02  0.20000082553E+02 0.  0.
         12    1    1    2    0    0 -0.27565565672E+02 -0.41124334850E+01  0.33269342979E+02  0.43400710849E+02  0.00000000000E+00 0. -1.
         11    1    3    3    0    0  0.13493882745E+02  0.10350486261E+02 -0.20371956049E+02  0.26537408142E+02  0.51100000000E-03 0. -1.
        -11    1    3    3    0    0  0.10956230763E+02 -0.12907357951E+01 -0.80836796698E+01  0.13676654148E+02  0.51100000000E-03 0.  1.
         12    1    3    3    0    0  0.31154521640E+01 -0.49473169806E+01 -0.48137072607E+01  0.75732268608E+01  0.00000000000E+00 0. -1.
</event>
<event>
 7    1  0.1246400E-009  0.4778727E+02  0.7816164E-02  0.1312668E+00
        -11   -1    0    0    0    0  0.00000000000E+00  0.00000000000E+00  0.45593999997E+02  0.45594000000E+02  0.51100000000E-03 0. -1.
         11   -1    0    0    0    0 -0.00000000000E+00 -0.00000000000E+00 -0.45593999997E+02  0.45594000000E+02  0.51100000000E-03 0.  1.
    9900012    2    1    2    0    0  0.58854099448E+01 -0.23918253223E+02  0.35733768337E+02  0.47787273197E+02  0.20000009816E+02 0.  0.
         12    1    1    2    0    0 -0.58854099448E+01  0.23918253223E+02 -0.35733768337E+02  0.43400726803E+02  0.00000000000E+00 0. -1.
         11    1    3    3    0    0  0.29036729765E+01 -0.10348721623E+02  0.38191426240E+01  0.11406717610E+02  0.51100000000E-03 0. -1.
        -11    1    3    3    0    0  0.62463108831E+01 -0.45911995210E+01  0.11892472862E+02  0.14196000272E+02  0.51100000000E-03 0.  1.
         12    1    3    3    0    0 -0.32645739148E+01 -0.89783320786E+01  0.20022152851E+02  0.22184555315E+02  0.00000000000E+00 0. -1.
</event>
<event>
 7    1  0.1246400E-009  0.4778727E+02  0.7816164E-02  0.1312668E+00
        -11   -1    0    0    0    0  0.00000000000E+00  0.00000000000E+00  0.45593999997E+02  0.45594000000E+02  0.51100000000E-03 0.  1.
         11   -1    0    0    0    0 -0.00000000000E+00 -0.00000000000E+00 -0.45593999997E+02  0.45594000000E+02  0.51100000000E-03 0. -1.
    9900012    2    1    2    0    0 -0.41891874350E+01  0.14326211237E+02  0.40753329763E+02  0.47787268364E+02  0.19999987780E+02 0.  0.
         12    1    1    2    0    0  0.41891874350E+01 -0.14326211237E+02 -0.40753329763E+02  0.43400731636E+02  0.00000000000E+00 0. -1.
         11    1    3    3    0    0 -0.47522801742E+01 -0.11879429017E+01  0.30494517557E+01  0.57701413729E+01  0.51100000000E-03 0. -1.
        -11    1    3    3    0    0 -0.46304925777E+01  0.85718517551E+01  0.22421191637E+02  0.24446429979E+02  0.51100000000E-03 0.  1.
         12    1    3    3    0    0  0.51935853169E+01  0.69423023831E+01  0.15282686370E+02  0.17570697012E+02  0.00000000000E+00 0. -1.
</event>
<event>
 7    1  0.1246400E-009  0.4778728E+02  0.7816164E-02  0.1312668E+00
        -11   -1    0    0    0    0  0.00000000000E+00  0.00000000000E+00  0.45593999997E+02  0.45594000000E+02  0.51100000000E-03 0.  1.
         11   -1    0    0    0    0 -0.00000000000E+00 -0.00000000000E+00 -0.45593999997E+02  0.45594000000E+02  0.51100000000E-03 0. -1.
    9900012    2    1    2    0    0  0.32055486105E+02  0.23236067268E+02  0.17780715046E+02  0.47787276054E+02  0.20000022840E+02 0.  0.
         12    1    1    2    0    0 -0.32055486105E+02 -0.23236067268E+02 -0.17780715046E+02  0.43400723946E+02  0.00000000000E+00 0. -1.
         11    1    3    3    0    0  0.17963553384E+02  0.89827507941E+01  0.89593055263E+01  0.21992003496E+02  0.51100000000E-03 0.  1.
        -11    1    3    3    0    0  0.56474589875E+01  0.59876526625E+00 -0.24437027170E+01  0.61825557894E+01  0.51100000000E-03 0. -1.
         12    1    3    3    0    0  0.84444737335E+01  0.13654551208E+02  0.11265112237E+02  0.19612716768E+02  0.00000000000E+00 0. -1.
</event>
<event>
 7    1  0.1246400E-009  0.4778727E+02  0.7816164E-02  0.1312668E+00
        -11   -1    0    0    0    0  0.00000000000E+00  0.00000000000E+00  0.45593999997E+02  0.45594000000E+02  0.51100000000E-03 0.  1.
         11   -1    0    0    0    0 -0.00000000000E+00 -0.00000000000E+00 -0.45593999997E+02  0.45594000000E+02  0.51100000000E-03 0. -1.
    9900012    2    1    2    0    0 -0.18858178787E+02 -0.28307025875E+02  0.26957458830E+02  0.47787271808E+02  0.20000003479E+02 0.  0.
         12    1    1    2    0    0  0.18858178787E+02  0.28307025875E+02 -0.26957458830E+02  0.43400728192E+02  0.00000000000E+00 0. -1.
         11    1    3    3    0    0 -0.42906951455E+01 -0.18882368486E+02  0.90347899838E+01  0.21367763916E+02  0.51100000000E-03 0. -1.
        -11    1    3    3    0    0 -0.11892259430E+02 -0.97427577773E+01  0.10754625123E+02  0.18761906226E+02  0.51100000000E-03 0.  1.
        -12    1    3    3    0    0 -0.26752242117E+01  0.31810038793E+00  0.71680437232E+01  0.76576016649E+01  0.00000000000E+00 0.  1.
</event>
<event>
 7    1  0.1246400E-009  0.4778727E+02  0.7816164E-02  0.1312668E+00
        -11   -1    0    0    0    0  0.00000000000E+00  0.00000000000E+00  0.45593999997E+02  0.45594000000E+02  0.51100000000E-03 0.  1.
         11   -1    0    0    0    0 -0.00000000000E+00 -0.00000000000E+00 -0.45593999997E+02  0.45594000000E+02  0.51100000000E-03 0. -1.
    9900012    2    1    2    0    0  0.42204795733E+02  0.44637526106E+01 -0.90803892077E+01  0.47787270301E+02  0.19999996611E+02 0.  0.
         12    1    1    2    0    0 -0.42204795733E+02 -0.44637526106E+01  0.90803892077E+01  0.43400729699E+02  0.00000000000E+00 0. -1.
         11    1    3    3    0    0  0.18313612237E+02 -0.10273192328E+01 -0.81498338527E+01  0.20071461582E+02  0.51100000000E-03 0. -1.
        -11    1    3    3    0    0  0.19681044078E+02  0.84562913715E+01 -0.38977548028E+01  0.21772571105E+02  0.51100000000E-03 0.  1.
        -12    1    3    3    0    0  0.42101394181E+01 -0.29652195281E+01  0.29671994478E+01  0.59432376137E+01  0.00000000000E+00 0.  1.
</event>
<event>
 7    1  0.1246400E-009  0.4778726E+02  0.7816164E-02  0.1312668E+00
        -11   -1    0    0    0    0  0.00000000000E+00  0.00000000000E+00  0.45593999997E+02  0.45594000000E+02  0.51100000000E-03 0.  1.
         11   -1    0    0    0    0 -0.00000000000E+00 -0.00000000000E+00 -0.45593999997E+02  0.45594000000E+02  0.51100000000E-03 0. -1.
    9900012    2    1    2    0    0  0.32321488521E+02 -0.49873730309E+01  0.28531937715E+02  0.47787262913E+02  0.19999962924E+02 0.  0.
         12    1    1    2    0    0 -0.32321488521E+02  0.49873730309E+01 -0.28531937715E+02  0.43400737087E+02  0.00000000000E+00 0. -1.
         11    1    3    3    0    0  0.20739517164E+02 -0.45416661426E+01  0.17726593589E+02  0.27658387951E+02  0.51100000000E-03 0. -1.
        -11    1    3    3    0    0  0.11223540711E+02  0.20955838040E+00  0.13370029271E+02  0.17457647716E+02  0.51100000000E-03 0.  1.
         12    1    3    3    0    0  0.35843064547E+00 -0.65526526862E+00 -0.25646851451E+01  0.26712272448E+01  0.00000000000E+00 0. -1.
</event>
<event>
 7    1  0.1246400E-009  0.4778726E+02  0.7816164E-02  0.1312668E+00
        -11   -1    0    0    0    0  0.00000000000E+00  0.00000000000E+00  0.45593999997E+02  0.45594000000E+02  0.51100000000E-03 0.  1.
         11   -1    0    0    0    0 -0.00000000000E+00 -0.00000000000E+00 -0.45593999997E+02  0.45594000000E+02  0.51100000000E-03 0. -1.
    9900012    2    1    2    0    0  0.22502672182E+02 -0.25095472460E+02  0.27339914591E+02  0.47787263564E+02  0.19999965892E+02 0.  0.
         12    1    1    2    0    0 -0.22502672182E+02  0.25095472460E+02 -0.27339914591E+02  0.43400736436E+02  0.00000000000E+00 0. -1.
         11    1    3    3    0    0  0.19651690579E+02 -0.17105038818E+02  0.17083326740E+02  0.31154636065E+02  0.51100000000E-03 0.  1.
        -11    1    3    3    0    0  0.13540909216E+01 -0.43644858266E+01 -0.10294942511E+01  0.46842456627E+01  0.51100000000E-03 0. -1.
        -12    1    3    3    0    0  0.14968906821E+01 -0.36259478160E+01  0.11286082102E+02  0.11948381836E+02  0.00000000000E+00 0.  1.
</event>
<event>
 7    1  0.1246400E-009  0.4778728E+02  0.7816164E-02  0.1312668E+00
        -11   -1    0    0    0    0  0.00000000000E+00  0.00000000000E+00  0.45593999997E+02  0.45594000000E+02  0.51100000000E-03 0. -1.
         11   -1    0    0    0    0 -0.00000000000E+00 -0.00000000000E+00 -0.45593999997E+02  0.45594000000E+02  0.51100000000E-03 0.  1.
    9900012    2    1    2    0    0 -0.37929901188E+02 -0.14598892125E+02 -0.15225558182E+02  0.47787277916E+02  0.20000031332E+02 0.  0.
         12    1    1    2    0    0  0.37929901188E+02  0.14598892125E+02  0.15225558182E+02  0.43400722084E+02  0.00000000000E+00 0. -1.
         11    1    3    3    0    0 -0.57909401418E+00  0.11175263321E+01  0.58272780319E+00  0.13870064650E+01  0.51100000000E-03 0. -1.
        -11    1    3    3    0    0 -0.31762334735E+02 -0.10653337261E+02 -0.18648775093E+02  0.38342095865E+02  0.51100000000E-03 0.  1.
         12    1    3    3    0    0 -0.55884724393E+01 -0.50630811962E+01  0.28404891080E+01  0.80581755862E+01  0.00000000000E+00 0. -1.
</event>
<event>
 7    1  0.1246400E-009  0.4778727E+02  0.7816164E-02  0.1312668E+00
        -11   -1    0    0    0    0  0.00000000000E+00  0.00000000000E+00  0.45593999997E+02  0.45594000000E+02  0.51100000000E-03 0.  1.
         11   -1    0    0    0    0 -0.00000000000E+00 -0.00000000000E+00 -0.45593999997E+02  0.45594000000E+02  0.51100000000E-03 0. -1.
    9900012    2    1    2    0    0  0.15562483112E+02 -0.99028147644E+01  0.39285705598E+02  0.47787270914E+02  0.19999999404E+02 0.  0.
         12    1    1    2    0    0 -0.15562483112E+02  0.99028147644E+01 -0.39285705598E+02  0.43400729086E+02  0.00000000000E+00 0. -1.
         11    1    3    3    0    0  0.72272342329E+01 -0.48521413638E+01  0.57158479719E+01  0.10413794158E+02  0.51100000000E-03 0.  1.
        -11    1    3    3    0    0  0.47088784784E+00  0.11797626432E+01 -0.84516513247E+00  0.15257390412E+01  0.51100000000E-03 0. -1.
        -12    1    3    3    0    0  0.78643610310E+01 -0.62304360439E+01  0.34415022759E+02  0.35847737714E+02  0.00000000000E+00 0.  1.
</event>
<event>
 7    1  0.1246400E-009  0.4778727E+02  0.7816164E-02  0.1312668E+00
        -11   -1    0    0    0    0  0.00000000000E+00  0.00000000000E+00  0.45593999997E+02  0.45594000000E+02  0.51100000000E-03 0. -1.
         11   -1    0    0    0    0 -0.00000000000E+00 -0.00000000000E+00 -0.45593999997E+02  0.45594000000E+02  0.51100000000E-03 0.  1.
    9900012    2    1    2    0    0  0.11760667635E+02  0.25728490487E+02 -0.32914353876E+02  0.47787271699E+02  0.20000002985E+02 0.  0.
         12    1    1    2    0    0 -0.11760667635E+02 -0.25728490487E+02  0.32914353876E+02  0.43400728301E+02  0.00000000000E+00 0. -1.
         11    1    3    3    0    0  0.90252943374E+01  0.16292524257E+02 -0.13338725070E+02  0.22909034709E+02  0.51100000000E-03 0.  1.
        -11    1    3    3    0    0  0.17591874582E+01 -0.11400392647E+01  0.50995050196E+00  0.21574243471E+01  0.51100000000E-03 0. -1.
        -12    1    3    3    0    0  0.97618583943E+00  0.10576005494E+02 -0.20085579308E+02  0.22720812643E+02  0.00000000000E+00 0.  1.
</event>
<event>
 7    1  0.1246400E-009  0.4778726E+02  0.7816164E-02  0.1312668E+00
        -11   -1    0    0    0    0  0.00000000000E+00  0.00000000000E+00  0.45593999997E+02  0.45594000000E+02  0.51100000000E-03 0. -1.
         11   -1    0    0    0    0 -0.00000000000E+00 -0.00000000000E+00 -0.45593999997E+02  0.45594000000E+02  0.51100000000E-03 0.  1.
    9900012    2    1    2    0    0  0.21750800967E+02 -0.33339792925E+02 -0.17291175069E+02  0.47787264173E+02  0.19999968672E+02 0.  0.
         12    1    1    2    0    0 -0.21750800967E+02  0.33339792925E+02  0.17291175069E+02  0.43400735827E+02  0.00000000000E+00 0. -1.
         11    1    3    3    0    0 -0.20348520867E+01 -0.92253753780E+00  0.51762431626E+00  0.22933891334E+01  0.51100000000E-03 0. -1.
        -11    1    3    3    0    0  0.75416290412E+01 -0.13147911592E+02 -0.12709054807E+02  0.19780389839E+02  0.51100000000E-03 0.  1.
         12    1    3    3    0    0  0.16244024013E+02 -0.19269343795E+02 -0.50997445784E+01  0.25713485201E+02  0.00000000000E+00 0. -1.
</event>
<event>
 7    1  0.1246400E-009  0.4778731E+02  0.7816164E-02  0.1312668E+00
        -11   -1    0    0    0    0  0.00000000000E+00  0.00000000000E+00  0.45593999997E+02  0.45594000000E+02  0.51100000000E-03 0.  1.
         11   -1    0    0    0    0 -0.00000000000E+00 -0.00000000000E+00 -0.45593999997E+02  0.45594000000E+02  0.51100000000E-03 0. -1.
    9900012    2    1    2    0    0 -0.20698348620E+02 -0.20559034846E+02  0.32132922577E+02  0.47787305735E+02  0.20000158167E+02 0.  0.
         12    1    1    2    0    0  0.20698348620E+02  0.20559034846E+02 -0.32132922577E+02  0.43400694265E+02  0.00000000000E+00 0. -1.
         11    1    3    3    0    0 -0.96100875782E+00 -0.70319887655E+01  0.22678986062E+01  0.74508904286E+01  0.51100000000E-03 0. -1.
        -11    1    3    3    0    0 -0.75434905841E+01 -0.25925811113E+01  0.19201895424E+02  0.20792751505E+02  0.51100000000E-03 0.  1.
         12    1    3    3    0    0 -0.12193849278E+02 -0.10934464969E+02  0.10663128546E+02  0.19543663801E+02  0.00000000000E+00 0. -1.
</event>
<event>
 7    1  0.1246400E-009  0.4778727E+02  0.7816164E-02  0.1312668E+00
        -11   -1    0    0    0    0  0.00000000000E+00  0.00000000000E+00  0.45593999997E+02  0.45594000000E+02  0.51100000000E-03 0. -1.
         11   -1    0    0    0    0 -0.00000000000E+00 -0.00000000000E+00 -0.45593999997E+02  0.45594000000E+02  0.51100000000E-03 0.  1.
    9900012    2    1    2    0    0  0.13956784807E+02 -0.28721004268E+02 -0.29392781860E+02  0.47787267820E+02  0.19999985297E+02 0.  0.
         12    1    1    2    0    0 -0.13956784807E+02  0.28721004268E+02  0.29392781860E+02  0.43400732180E+02  0.00000000000E+00 0. -1.
         11    1    3    3    0    0  0.96007820106E+01 -0.50710515763E+01 -0.97749003005E+01  0.14609560413E+02  0.51100000000E-03 0.  1.
        -11    1    3    3    0    0 -0.27731470193E+01 -0.14614981111E+02 -0.13759342657E+02  0.20263453010E+02  0.51100000000E-03 0. -1.
         12    1    3    3    0    0  0.71291498159E+01 -0.90349715811E+01 -0.58585389026E+01  0.12914254397E+02  0.00000000000E+00 0. -1.
</event>
<event>
 7    1  0.1246400E-009  0.4778728E+02  0.7816164E-02  0.1312668E+00
        -11   -1    0    0    0    0  0.00000000000E+00  0.00000000000E+00  0.45593999997E+02  0.45594000000E+02  0.51100000000E-03 0.  1.
         11   -1    0    0    0    0 -0.00000000000E+00 -0.00000000000E+00 -0.45593999997E+02  0.45594000000E+02  0.51100000000E-03 0. -1.
    9900012    2    1    2    0    0 -0.36019138553E+02 -0.24180684516E+02  0.12403131566E+01  0.47787283157E+02  0.20000055227E+02 0.  0.
         12    1    1    2    0    0  0.36019138553E+02  0.24180684516E+02 -0.12403131566E+01  0.43400716843E+02  0.00000000000E+00 0. -1.
         11    1    3    3    0    0 -0.32575428525E-01 -0.19881179981E+01  0.11135006886E+01  0.22789379933E+01  0.51100000000E-03 0.  1.
        -11    1    3    3    0    0 -0.35538748238E+02 -0.16531096174E+02 -0.24500808005E+01  0.39271906794E+02  0.51100000000E-03 0. -1.
         12    1    3    3    0    0 -0.44781488640E+00 -0.56614703438E+01  0.25768932684E+01  0.62364383700E+01  0.00000000000E+00 0. -1.
</event>
<event>
 7    1  0.1246400E-009  0.4778727E+02  0.7816164E-02  0.1312668E+00
        -11   -1    0    0    0    0  0.00000000000E+00  0.00000000000E+00  0.45593999997E+02  0.45594000000E+02  0.51100000000E-03 0.  1.
         11   -1    0    0    0    0 -0.00000000000E+00 -0.00000000000E+00 -0.45593999997E+02  0.45594000000E+02  0.51100000000E-03 0. -1.
    9900012    2    1    2    0    0 -0.25099918187E+02  0.29024002973E+02  0.20278674046E+02  0.47787271174E+02  0.20000000591E+02 0.  0.
         12    1    1    2    0    0  0.25099918187E+02 -0.29024002973E+02 -0.20278674046E+02  0.43400728826E+02  0.00000000000E+00 0. -1.
         11    1    3    3    0    0 -0.13856185046E+02  0.13428680802E+02  0.12518473191E+02  0.23000771800E+02  0.51100000000E-03 0. -1.
        -11    1    3    3    0    0 -0.54361261970E+01  0.82017830978E+01  0.11077576328E+02  0.14816659933E+02  0.51100000000E-03 0.  1.
         12    1    3    3    0    0 -0.58076069443E+01  0.73935390730E+01 -0.33173754733E+01  0.99698394407E+01  0.00000000000E+00 0. -1.
</event>
<event>
 7    1  0.1246400E-009  0.4778727E+02  0.7816164E-02  0.1312668E+00
        -11   -1    0    0    0    0  0.00000000000E+00  0.00000000000E+00  0.45593999997E+02  0.45594000000E+02  0.51100000000E-03 0.  1.
         11   -1    0    0    0    0 -0.00000000000E+00 -0.00000000000E+00 -0.45593999997E+02  0.45594000000E+02  0.51100000000E-03 0. -1.
    9900012    2    1    2    0    0 -0.13901509706E+02  0.77292686759E+01  0.40381061518E+02  0.47787266185E+02  0.19999977843E+02 0.  0.
         12    1    1    2    0    0  0.13901509706E+02 -0.77292686759E+01 -0.40381061518E+02  0.43400733815E+02  0.00000000000E+00 0. -1.
         11    1    3    3    0    0 -0.69470852627E+01  0.13026381265E+01  0.11202876970E+02  0.13246256543E+02  0.51100000000E-03 0. -1.
        -11    1    3    3    0    0 -0.97211503076E+01  0.12128866560E+01  0.82851597500E+01  0.12830266158E+02  0.51100000000E-03 0.  1.
         12    1    3    3    0    0  0.27667258646E+01  0.52137438934E+01  0.20893024798E+02  0.21710743483E+02  0.00000000000E+00 0. -1.
</event>
<event>
 7    1  0.1246400E-009  0.4778727E+02  0.7816164E-02  0.1312668E+00
        -11   -1    0    0    0    0  0.00000000000E+00  0.00000000000E+00  0.45593999997E+02  0.45594000000E+02  0.51100000000E-03 0.  1.
         11   -1    0    0    0    0 -0.00000000000E+00 -0.00000000000E+00 -0.45593999997E+02  0.45594000000E+02  0.51100000000E-03 0. -1.
    9900012    2    1    2    0    0  0.29675823098E+01  0.40513350755E+02  0.15280219317E+02  0.47787271474E+02  0.20000001959E+02 0.  0.
         12    1    1    2    0    0 -0.29675823098E+01 -0.40513350755E+02 -0.15280219317E+02  0.43400728526E+02  0.00000000000E+00 0. -1.
         11    1    3    3    0    0  0.15740623830E+01  0.44684556922E+01  0.90410419727E+01  0.10207115600E+02  0.51100000000E-03 0. -1.
        -11    1    3    3    0    0 -0.19148671622E+01  0.23613694715E+02  0.69708178722E+01  0.24695457000E+02  0.51100000000E-03 0.  1.
        -12    1    3    3    0    0  0.33083870889E+01  0.12431200348E+02 -0.73164052799E+00  0.12884698874E+02  0.00000000000E+00 0.  1.
</event>
<event>
 7    1  0.1246400E-009  0.4778727E+02  0.7816164E-02  0.1312668E+00
        -11   -1    0    0    0    0  0.00000000000E+00  0.00000000000E+00  0.45593999997E+02  0.45594000000E+02  0.51100000000E-03 0. -1.
         11   -1    0    0    0    0 -0.00000000000E+00 -0.00000000000E+00 -0.45593999997E+02  0.45594000000E+02  0.51100000000E-03 0.  1.
    9900012    2    1    2    0    0 -0.47876217748E+01  0.35557828124E+02 -0.24420134419E+02  0.47787269266E+02  0.19999991892E+02 0.  0.
         12    1    1    2    0    0  0.47876217748E+01 -0.35557828124E+02  0.24420134419E+02  0.43400730734E+02  0.00000000000E+00 0. -1.
         11    1    3    3    0    0  0.30439032030E+01  0.79905388110E+00 -0.76456043838E+00  0.32385778884E+01  0.51100000000E-03 0. -1.
        -11    1    3    3    0    0 -0.56992120556E+00  0.26937031495E+02 -0.18594764235E+02  0.32736733697E+02  0.51100000000E-03 0.  1.
         12    1    3    3    0    0 -0.72616037723E+01  0.78217427487E+01 -0.50608097460E+01  0.11811957681E+02  0.00000000000E+00 0. -1.
</event>
<event>
 7    1  0.1246400E-009  0.4778727E+02  0.7816164E-02  0.1312668E+00
        -11   -1    0    0    0    0  0.00000000000E+00  0.00000000000E+00  0.45593999997E+02  0.45594000000E+02  0.51100000000E-03 0.  1.
         11   -1    0    0    0    0 -0.00000000000E+00 -0.00000000000E+00 -0.45593999997E+02  0.45594000000E+02  0.51100000000E-03 0. -1.
    9900012    2    1    2    0    0  0.26791436417E+02 -0.33022766264E+02 -0.86797930073E+01  0.47787274618E+02  0.20000016292E+02 0.  0.
         12    1    1    2    0    0 -0.26791436417E+02  0.33022766264E+02  0.86797930073E+01  0.43400725382E+02  0.00000000000E+00 0. -1.
         11    1    3    3    0    0  0.20123343388E+02 -0.34200331610E+02 -0.88080365764E+01  0.40647178745E+02  0.51100000000E-03 0. -1.
        -11    1    3    3    0    0  0.37787359936E+01 -0.47629862844E+00  0.13086046882E+00  0.38108832069E+01  0.51100000000E-03 0.  1.
         12    1    3    3    0    0  0.28893570357E+01  0.16538639742E+01 -0.26168996768E-02  0.33292126656E+01  0.00000000000E+00 0. -1.
</event>
<event>
 7    1  0.1246400E-009  0.4778727E+02  0.7816164E-02  0.1312668E+00
        -11   -1    0    0    0    0  0.00000000000E+00  0.00000000000E+00  0.45593999997E+02  0.45594000000E+02  0.51100000000E-03 0. -1.
         11   -1    0    0    0    0 -0.00000000000E+00 -0.00000000000E+00 -0.45593999997E+02  0.45594000000E+02  0.51100000000E-03 0.  1.
    9900012    2    1    2    0    0 -0.14185328808E+01 -0.37477919466E+02 -0.21840714379E+02  0.47787268582E+02  0.19999988771E+02 0.  0.
         12    1    1    2    0    0  0.14185328808E+01  0.37477919466E+02  0.21840714379E+02  0.43400731418E+02  0.00000000000E+00 0. -1.
         11    1    3    3    0    0  0.17116307224E+01 -0.20485752049E+01  0.31075668068E+01  0.40967440510E+01  0.51100000000E-03 0. -1.
        -11    1    3    3    0    0 -0.34616773797E+01 -0.15249143736E+02 -0.97862407067E+01  0.18446953742E+02  0.51100000000E-03 0.  1.
         12    1    3    3    0    0  0.33151377648E+00 -0.20180200526E+02 -0.15162040479E+02  0.25243570788E+02  0.00000000000E+00 0. -1.
</event>
<event>
 7    1  0.1246400E-009  0.4778728E+02  0.7816164E-02  0.1312668E+00
        -11   -1    0    0    0    0  0.00000000000E+00  0.00000000000E+00  0.45593999997E+02  0.45594000000E+02  0.51100000000E-03 0. -1.
         11   -1    0    0    0    0 -0.00000000000E+00 -0.00000000000E+00 -0.45593999997E+02  0.45594000000E+02  0.51100000000E-03 0.  1.
    9900012    2    1    2    0    0  0.42041361860E+02 -0.10569133964E+02  0.21071842906E+01  0.47787275059E+02  0.20000018304E+02 0.  0.
         12    1    1    2    0    0 -0.42041361860E+02  0.10569133964E+02 -0.21071842906E+01  0.43400724941E+02  0.00000000000E+00 0. -1.
         11    1    3    3    0    0  0.28993279018E+01  0.30962177300E+01 -0.94720393355E+00  0.43462468943E+01  0.51100000000E-03 0. -1.
        -11    1    3    3    0    0  0.29239258417E+02 -0.41152661581E+01  0.30399204623E+01  0.29683509984E+02  0.51100000000E-03 0.  1.
         12    1    3    3    0    0  0.99027755412E+01 -0.95500855363E+01  0.14467761866E-01  0.13757518181E+02  0.00000000000E+00 0. -1.
</event>
<event>
 7    1  0.1246400E-009  0.4778727E+02  0.7816164E-02  0.1312668E+00
        -11   -1    0    0    0    0  0.00000000000E+00  0.00000000000E+00  0.45593999997E+02  0.45594000000E+02  0.51100000000E-03 0.  1.
         11   -1    0    0    0    0 -0.00000000000E+00 -0.00000000000E+00 -0.45593999997E+02  0.45594000000E+02  0.51100000000E-03 0. -1.
    9900012    2    1    2    0    0 -0.23183163878E+01 -0.28286826907E+02  0.32834495426E+02  0.47787271236E+02  0.20000000874E+02 0.  0.
         12    1    1    2    0    0  0.23183163878E+01  0.28286826907E+02 -0.32834495426E+02  0.43400728764E+02  0.00000000000E+00 0. -1.
         11    1    3    3    0    0  0.58438010779E+01 -0.13091868646E+02  0.11347501939E+02  0.18284223697E+02  0.51100000000E-03 0. -1.
        -11    1    3    3    0    0 -0.53700323286E+01 -0.39012496684E+01  0.22252203763E+01  0.70006144137E+01  0.51100000000E-03 0.  1.
        -12    1    3    3    0    0 -0.27920851371E+01 -0.11293708592E+02  0.19261773111E+02  0.22502433125E+02  0.00000000000E+00 0.  1.
</event>
<event>
 7    1  0.1246400E-009  0.4778727E+02  0.7816164E-02  0.1312668E+00
        -11   -1    0    0    0    0  0.00000000000E+00  0.00000000000E+00  0.45593999997E+02  0.45594000000E+02  0.51100000000E-03 0. -1.
         11   -1    0    0    0    0 -0.00000000000E+00 -0.00000000000E+00 -0.45593999997E+02  0.45594000000E+02  0.51100000000E-03 0.  1.
    9900012    2    1    2    0    0  0.55396502656E+01 -0.38890735560E+02 -0.18451185044E+02  0.47787271124E+02  0.20000000362E+02 0.  0.
         12    1    1    2    0    0 -0.55396502656E+01  0.38890735560E+02  0.18451185044E+02  0.43400728876E+02  0.00000000000E+00 0. -1.
         11    1    3    3    0    0  0.54006846698E+01 -0.14907657375E+02 -0.40355133936E+01  0.16361265597E+02  0.51100000000E-03 0. -1.
        -11    1    3    3    0    0  0.10231128403E+01 -0.23039612598E+01 -0.86015821955E+01  0.89633818338E+01  0.51100000000E-03 0.  1.
         12    1    3    3    0    0 -0.88414724453E+00 -0.21679116925E+02 -0.58140894545E+01  0.22462623693E+02  0.00000000000E+00 0. -1.
</event>
<event>
 7    1  0.1246400E-009  0.4778727E+02  0.7816164E-02  0.1312668E+00
        -11   -1    0    0    0    0  0.00000000000E+00  0.00000000000E+00  0.45593999997E+02  0.45594000000E+02  0.51100000000E-03 0. -1.
         11   -1    0    0    0    0 -0.00000000000E+00 -0.00000000000E+00 -0.45593999997E+02  0.45594000000E+02  0.51100000000E-03 0.  1.
    9900012    2    1    2    0    0  0.58120307431E+01  0.42115726473E+02 -0.87240593432E+01  0.47787270408E+02  0.19999997096E+02 0.  0.
         12    1    1    2    0    0 -0.58120307431E+01 -0.42115726473E+02  0.87240593432E+01  0.43400729592E+02  0.00000000000E+00 0. -1.
         11    1    3    3    0    0  0.82240190894E+01  0.31354975683E+02 -0.29377958865E+01  0.32548419854E+02  0.51100000000E-03 0. -1.
        -11    1    3    3    0    0 -0.34786428332E+01  0.11981130777E+02 -0.50677239184E+01  0.13465893087E+02  0.51100000000E-03 0.  1.
        -12    1    3    3    0    0  0.10666544869E+01 -0.12203799873E+01 -0.71853953818E+00  0.17729574659E+01  0.00000000000E+00 0.  1.
</event>
<event>
 7    1  0.1246400E-009  0.4778728E+02  0.7816164E-02  0.1312668E+00
        -11   -1    0    0    0    0  0.00000000000E+00  0.00000000000E+00  0.45593999997E+02  0.45594000000E+02  0.51100000000E-03 0.  1.
         11   -1    0    0    0    0 -0.00000000000E+00 -0.00000000000E+00 -0.45593999997E+02  0.45594000000E+02  0.51100000000E-03 0. -1.
    9900012    2    1    2    0    0 -0.30777140527E+02 -0.19149157722E+02  0.23868379774E+02  0.47787283722E+02  0.20000057800E+02 0.  0.
         12    1    1    2    0    0  0.30777140527E+02  0.19149157722E+02 -0.23868379774E+02  0.43400716278E+02  0.00000000000E+00 0. -1.
         11    1    3    3    0    0 -0.50167596632E+00  0.22262541235E+00  0.46054155614E+01  0.46380053475E+01  0.51100000000E-03 0. -1.
        -11    1    3    3    0    0 -0.18153156173E+02 -0.18937157626E+02  0.10853668502E+02  0.28389349028E+02  0.51100000000E-03 0.  1.
        -12    1    3    3    0    0 -0.12122308387E+02 -0.43462550800E+00  0.84092957101E+01  0.14759929346E+02  0.00000000000E+00 0.  1.
</event>
<event>
 7    1  0.1246400E-009  0.4778727E+02  0.7816164E-02  0.1312668E+00
        -11   -1    0    0    0    0  0.00000000000E+00  0.00000000000E+00  0.45593999997E+02  0.45594000000E+02  0.51100000000E-03 0.  1.
         11   -1    0    0    0    0 -0.00000000000E+00 -0.00000000000E+00 -0.45593999997E+02  0.45594000000E+02  0.51100000000E-03 0. -1.
    9900012    2    1    2    0    0  0.24548716970E+02 -0.32375629306E+01  0.35644103801E+02  0.47787268965E+02  0.19999990518E+02 0.  0.
         12    1    1    2    0    0 -0.24548716970E+02  0.32375629306E+01 -0.35644103801E+02  0.43400731035E+02  0.00000000000E+00 0. -1.
         11    1    3    3    0    0  0.85566873316E+01 -0.56309695997E+01  0.52978758419E+01  0.11532224652E+02  0.51100000000E-03 0. -1.
        -11    1    3    3    0    0  0.80109836088E+01 -0.34615318633E+01  0.20561298577E+02  0.22336630468E+02  0.51100000000E-03 0.  1.
         12    1    3    3    0    0  0.79810460301E+01  0.58549385324E+01  0.97849293820E+01  0.13918413845E+02  0.00000000000E+00 0. -1.
</event>
<event>
 7    1  0.1246400E-009  0.4778727E+02  0.7816164E-02  0.1312668E+00
        -11   -1    0    0    0    0  0.00000000000E+00  0.00000000000E+00  0.45593999997E+02  0.45594000000E+02  0.51100000000E-03 0. -1.
         11   -1    0    0    0    0 -0.00000000000E+00 -0.00000000000E+00 -0.45593999997E+02  0.45594000000E+02  0.51100000000E-03 0.  1.
    9900012    2    1    2    0    0 -0.38222469599E+02 -0.66946820809E+01 -0.19438299739E+02  0.47787269048E+02  0.19999990896E+02 0.  0.
         12    1    1    2    0    0  0.38222469599E+02  0.66946820809E+01  0.19438299739E+02  0.43400730952E+02  0.00000000000E+00 0. -1.
         11    1    3    3    0    0 -0.54368514380E+00  0.23266889499E+01 -0.12609038925E+01  0.27016576194E+01  0.51100000000E-03 0. -1.
        -11    1    3    3    0    0 -0.24802625016E+02 -0.15369515559E+01 -0.53271017864E+01  0.25414768177E+02  0.51100000000E-03 0.  1.
         12    1    3    3    0    0 -0.12876159439E+02 -0.74844194749E+01 -0.12850294060E+02  0.19670843251E+02  0.00000000000E+00 0. -1.
</event>
<event>
 7    1  0.1246400E-009  0.4778727E+02  0.7816164E-02  0.1312668E+00
        -11   -1    0    0    0    0  0.00000000000E+00  0.00000000000E+00  0.45593999997E+02  0.45594000000E+02  0.51100000000E-03 0.  1.
         11   -1    0    0    0    0 -0.00000000000E+00 -0.00000000000E+00 -0.45593999997E+02  0.45594000000E+02  0.51100000000E-03 0. -1.
    9900012    2    1    2    0    0 -0.30609094716E+02  0.98561402729E+01  0.29147265218E+02  0.47787271318E+02  0.20000001249E+02 0.  0.
         12    1    1    2    0    0  0.30609094716E+02 -0.98561402729E+01 -0.29147265218E+02  0.43400728682E+02  0.00000000000E+00 0. -1.
         11    1    3    3    0    0 -0.13185620222E+02  0.98061153958E+01  0.10536688112E+02  0.19520304209E+02  0.51100000000E-03 0. -1.
        -11    1    3    3    0    0  0.13692526352E+01 -0.22588244810E+00  0.46552508501E+01  0.48576986730E+01  0.51100000000E-03 0.  1.
        -12    1    3    3    0    0 -0.18792727130E+02  0.27590732516E+00  0.13955326255E+02  0.23409268436E+02  0.00000000000E+00 0.  1.
</event>
<event>
 7    1  0.1246400E-009  0.4778726E+02  0.7816164E-02  0.1312668E+00
        -11   -1    0    0    0    0  0.00000000000E+00  0.00000000000E+00  0.45593999997E+02  0.45594000000E+02  0.51100000000E-03 0.  1.
         11   -1    0    0    0    0 -0.00000000000E+00 -0.00000000000E+00 -0.45593999997E+02  0.45594000000E+02  0.51100000000E-03 0. -1.
    9900012    2    1    2    0    0  0.98965274784E+01 -0.42174681342E+02  0.26417657645E+01  0.47787263499E+02  0.19999965598E+02 0.  0.
         12    1    1    2    0    0 -0.98965274784E+01  0.42174681342E+02 -0.26417657645E+01  0.43400736501E+02  0.00000000000E+00 0. -1.
         11    1    3    3    0    0 -0.30368194617E+01 -0.25535532424E+01  0.42783161059E+00  0.39907326086E+01  0.51100000000E-03 0. -1.
        -11    1    3    3    0    0 -0.27678973022E+01 -0.58057447815E+01 -0.20766711317E+00  0.64351420990E+01  0.51100000000E-03 0.  1.
        -12    1    3    3    0    0  0.15701244242E+02 -0.33815383319E+02  0.24216012670E+01  0.37361388792E+02  0.00000000000E+00 0.  1.
</event>
<event>
 7    1  0.1246400E-009  0.4778727E+02  0.7816164E-02  0.1312668E+00
        -11   -1    0    0    0    0  0.00000000000E+00  0.00000000000E+00  0.45593999997E+02  0.45594000000E+02  0.51100000000E-03 0. -1.
         11   -1    0    0    0    0 -0.00000000000E+00 -0.00000000000E+00 -0.45593999997E+02  0.45594000000E+02  0.51100000000E-03 0.  1.
    9900012    2    1    2    0    0  0.38007123911E+02 -0.13128122255E+02 -0.16332002388E+02  0.47787270007E+02  0.19999995270E+02 0.  0.
         12    1    1    2    0    0 -0.38007123911E+02  0.13128122255E+02  0.16332002388E+02  0.43400729993E+02  0.00000000000E+00 0. -1.
         11    1    3    3    0    0  0.20410522312E+02 -0.12092830731E+02 -0.11438465874E+02  0.26337510854E+02  0.51100000000E-03 0. -1.
        -11    1    3    3    0    0 -0.15049035925E+01 -0.89406443082E+00 -0.74522774992E+00  0.19024853980E+01  0.51100000000E-03 0.  1.
        -12    1    3    3    0    0  0.19101505191E+02 -0.14122709252E+00 -0.41483087638E+01  0.19547273755E+02  0.00000000000E+00 0.  1.
</event>
<event>
 7    1  0.1246400E-009  0.4778727E+02  0.7816164E-02  0.1312668E+00
        -11   -1    0    0    0    0  0.00000000000E+00  0.00000000000E+00  0.45593999997E+02  0.45594000000E+02  0.51100000000E-03 0. -1.
         11   -1    0    0    0    0 -0.00000000000E+00 -0.00000000000E+00 -0.45593999997E+02  0.45594000000E+02  0.51100000000E-03 0.  1.
    9900012    2    1    2    0    0  0.65099366461E+01 -0.25037849145E+02 -0.34847525578E+02  0.47787271851E+02  0.20000003677E+02 0.  0.
         12    1    1    2    0    0 -0.65099366461E+01  0.25037849145E+02  0.34847525578E+02  0.43400728149E+02  0.00000000000E+00 0. -1.
         11    1    3    3    0    0  0.13665344858E+01 -0.75977774930E+01 -0.20440964947E+02  0.21850095825E+02  0.51100000000E-03 0.  1.
        -11    1    3    3    0    0 -0.34364504866E+00 -0.61994217656E+01 -0.11540343421E+02  0.13104596471E+02  0.51100000000E-03 0. -1.
         12    1    3    3    0    0  0.54870472089E+01 -0.11240649886E+02 -0.28662172110E+01  0.12832579555E+02  0.00000000000E+00 0. -1.
</event>
<event>
 7    1  0.1246400E-009  0.4778727E+02  0.7816164E-02  0.1312668E+00
        -11   -1    0    0    0    0  0.00000000000E+00  0.00000000000E+00  0.45593999997E+02  0.45594000000E+02  0.51100000000E-03 0.  1.
         11   -1    0    0    0    0 -0.00000000000E+00 -0.00000000000E+00 -0.45593999997E+02  0.45594000000E+02  0.51100000000E-03 0. -1.
    9900012    2    1    2    0    0 -0.18554839329E+02 -0.28599143303E+02  0.26859451283E+02  0.47787272087E+02  0.20000004752E+02 0.  0.
         12    1    1    2    0    0  0.18554839329E+02  0.28599143303E+02 -0.26859451283E+02  0.43400727913E+02  0.00000000000E+00 0. -1.
         11    1    3    3    0    0 -0.24093421722E+01 -0.10054975917E+02  0.12971069855E+01  0.10420650517E+02  0.51100000000E-03 0. -1.
        -11    1    3    3    0    0 -0.26298995167E+01 -0.11857816670E+02  0.10537489527E+02  0.16079890343E+02  0.51100000000E-03 0.  1.
         12    1    3    3    0    0 -0.13515597640E+02 -0.66863507154E+01  0.15024854770E+02  0.21286731227E+02  0.00000000000E+00 0. -1.
</event>
<event>
 7    1  0.1246400E-009  0.4778733E+02  0.7816164E-02  0.1312668E+00
        -11   -1    0    0    0    0  0.00000000000E+00  0.00000000000E+00  0.45593999997E+02  0.45594000000E+02  0.51100000000E-03 0.  1.
         11   -1    0    0    0    0 -0.00000000000E+00 -0.00000000000E+00 -0.45593999997E+02  0.45594000000E+02  0.51100000000E-03 0. -1.
    9900012    2    1    2    0    0 -0.20716822279E+02 -0.56032814466E+01  0.37723135423E+02  0.47787326797E+02  0.20000254197E+02 0.  0.
         12    1    1    2    0    0  0.20716822279E+02  0.56032814466E+01 -0.37723135423E+02  0.43400673203E+02  0.00000000000E+00 0. -1.
         11    1    3    3    0    0 -0.19142830807E+02 -0.89626930412E+01  0.30138186273E+02  0.36811521429E+02  0.51100000000E-03 0.  1.
        -11    1    3    3    0    0  0.11600198524E+00 -0.21352510092E+01  0.15500881656E+01  0.26411222833E+01  0.51100000000E-03 0. -1.
         12    1    3    3    0    0 -0.16899934573E+01  0.54946626037E+01  0.60348609852E+01  0.83346830849E+01  0.00000000000E+00 0. -1.
</event>
<event>
 7    1  0.1246400E-009  0.4778727E+02  0.7816164E-02  0.1312668E+00
        -11   -1    0    0    0    0  0.00000000000E+00  0.00000000000E+00  0.45593999997E+02  0.45594000000E+02  0.51100000000E-03 0. -1.
         11   -1    0    0    0    0 -0.00000000000E+00 -0.00000000000E+00 -0.45593999997E+02  0.45594000000E+02  0.51100000000E-03 0.  1.
    9900012    2    1    2    0    0  0.28907490497E+01  0.37144460674E+02  0.22261087892E+02  0.47787269326E+02  0.19999992167E+02 0.  0.
         12    1    1    2    0    0 -0.28907490497E+01 -0.37144460674E+02 -0.22261087892E+02  0.43400730674E+02  0.00000000000E+00 0. -1.
         11    1    3    3    0    0  0.80824769354E+00  0.28793924186E+02  0.14589281164E+02  0.32289169384E+02  0.51100000000E-03 0.  1.
        -11    1    3    3    0    0  0.21518074719E+01  0.11453139839E+01  0.79216458352E+01  0.82882140728E+01  0.51100000000E-03 0. -1.
         12    1    3    3    0    0 -0.69306115734E-01  0.72052225039E+01 -0.24983910701E+00  0.72098858693E+01  0.00000000000E+00 0. -1.
</event>
<event>
 7    1  0.1246400E-009  0.4778732E+02  0.7816164E-02  0.1312668E+00
        -11   -1    0    0    0    0  0.00000000000E+00  0.00000000000E+00  0.45593999997E+02  0.45594000000E+02  0.51100000000E-03 0.  1.
         11   -1    0    0    0    0 -0.00000000000E+00 -0.00000000000E+00 -0.45593999997E+02  0.45594000000E+02  0.51100000000E-03 0. -1.
    9900012    2    1    2    0    0 -0.25271483589E+02  0.29574885296E+02 -0.19243109418E+02  0.47787320476E+02  0.20000225376E+02 0.  0.
         12    1    1    2    0    0  0.25271483589E+02 -0.29574885296E+02  0.19243109418E+02  0.43400679524E+02  0.00000000000E+00 0. -1.
         11    1    3    3    0    0 -0.14128501560E+01  0.41710387647E+01  0.22176183940E+01  0.49306735384E+01  0.51100000000E-03 0. -1.
        -11    1    3    3    0    0 -0.37513188813E+01  0.14788177375E+01  0.12526287363E+01  0.42223659555E+01  0.51100000000E-03 0.  1.
        -12    1    3    3    0    0 -0.20107314552E+02  0.23925028794E+02 -0.22713356549E+02  0.38634280982E+02  0.00000000000E+00 0.  1.
</event>
<event>
 7    1  0.1246400E-009  0.4778727E+02  0.7816164E-02  0.1312668E+00
        -11   -1    0    0    0    0  0.00000000000E+00  0.00000000000E+00  0.45593999997E+02  0.45594000000E+02  0.51100000000E-03 0.  1.
         11   -1    0    0    0    0 -0.00000000000E+00 -0.00000000000E+00 -0.45593999997E+02  0.45594000000E+02  0.51100000000E-03 0. -1.
    9900012    2    1    2    0    0 -0.19279692716E+02 -0.51272156840E+01  0.38543849784E+02  0.47787271342E+02  0.20000001357E+02 0.  0.
         12    1    1    2    0    0  0.19279692716E+02  0.51272156840E+01 -0.38543849784E+02  0.43400728658E+02  0.00000000000E+00 0. -1.
         11    1    3    3    0    0 -0.42992949245E+01 -0.91081786036E+01  0.21663328953E+02  0.23890221345E+02  0.51100000000E-03 0. -1.
        -11    1    3    3    0    0 -0.11939927430E+02  0.38134325614E+00  0.13871082223E+02  0.18306124987E+02  0.51100000000E-03 0.  1.
        -12    1    3    3    0    0 -0.30404703617E+01  0.35996196635E+01  0.30094386073E+01  0.55909250105E+01  0.00000000000E+00 0.  1.
</event>
<event>
 7    1  0.1246400E-009  0.4778727E+02  0.7816164E-02  0.1312668E+00
        -11   -1    0    0    0    0  0.00000000000E+00  0.00000000000E+00  0.45593999997E+02  0.45594000000E+02  0.51100000000E-03 0.  1.
         11   -1    0    0    0    0 -0.00000000000E+00 -0.00000000000E+00 -0.45593999997E+02  0.45594000000E+02  0.51100000000E-03 0. -1.
    9900012    2    1    2    0    0  0.15389390760E+01 -0.29193621865E+02  0.32077831324E+02  0.47787272431E+02  0.20000006322E+02 0.  0.
         12    1    1    2    0    0 -0.15389390760E+01  0.29193621865E+02 -0.32077831324E+02  0.43400727569E+02  0.00000000000E+00 0. -1.
         11    1    3    3    0    0 -0.36976840379E+01 -0.43861242809E+01  0.11227195823E+02  0.12607968899E+02  0.51100000000E-03 0. -1.
        -11    1    3    3    0    0 -0.15612066994E+01 -0.80684578345E+01  0.90514488586E+00  0.82678090030E+01  0.51100000000E-03 0.  1.
        -12    1    3    3    0    0  0.67978298132E+01 -0.16739039749E+02  0.19945490615E+02  0.26911494529E+02  0.00000000000E+00 0.  1.
</event>
<event>
 7    1  0.1246400E-009  0.4778727E+02  0.7816164E-02  0.1312668E+00
        -11   -1    0    0    0    0  0.00000000000E+00  0.00000000000E+00  0.45593999997E+02  0.45594000000E+02  0.51100000000E-03 0.  1.
         11   -1    0    0    0    0 -0.00000000000E+00 -0.00000000000E+00 -0.45593999997E+02  0.45594000000E+02  0.51100000000E-03 0. -1.
    9900012    2    1    2    0    0 -0.40534333092E+02 -0.15305736683E+02 -0.25150993465E+01  0.47787268907E+02  0.19999990257E+02 0.  0.
         12    1    1    2    0    0  0.40534333092E+02  0.15305736683E+02  0.25150993465E+01  0.43400731093E+02  0.00000000000E+00 0. -1.
         11    1    3    3    0    0 -0.51669837171E+01  0.51961601305E+00 -0.29114185841E+01  0.59534930895E+01  0.51100000000E-03 0. -1.
        -11    1    3    3    0    0 -0.27354352577E+02 -0.79044119940E+01  0.62282784624E+01  0.29146728577E+02  0.51100000000E-03 0.  1.
        -12    1    3    3    0    0 -0.80129967982E+01 -0.79209407020E+01 -0.58319592248E+01  0.12687047241E+02  0.00000000000E+00 0.  1.
</event>
<event>
 7    1  0.1246400E-009  0.4778726E+02  0.7816164E-02  0.1312668E+00
        -11   -1    0    0    0    0  0.00000000000E+00  0.00000000000E+00  0.45593999997E+02  0.45594000000E+02  0.51100000000E-03 0.  1.
         11   -1    0    0    0    0 -0.00000000000E+00 -0.00000000000E+00 -0.45593999997E+02  0.45594000000E+02  0.51100000000E-03 0. -1.
    9900012    2    1    2    0    0 -0.15043612848E+02 -0.27795437506E+02  0.29744370574E+02  0.47787260208E+02  0.19999950592E+02 0.  0.
         12    1    1    2    0    0  0.15043612848E+02  0.27795437506E+02 -0.29744370574E+02  0.43400739792E+02  0.00000000000E+00 0. -1.
         11    1    3    3    0    0 -0.28236874263E-01  0.19704858712E+01 -0.86371769531E+00  0.21516552716E+01  0.51100000000E-03 0.  1.
        -11    1    3    3    0    0 -0.12287109913E+01 -0.22040713812E+01  0.54191001284E+00  0.25809548769E+01  0.51100000000E-03 0. -1.
        -12    1    3    3    0    0 -0.13786664982E+02 -0.27561851996E+02  0.30066178257E+02  0.43054650059E+02  0.00000000000E+00 0.  1.
</event>
<event>
 7    1  0.1246400E-009  0.4778727E+02  0.7816164E-02  0.1312668E+00
        -11   -1    0    0    0    0  0.00000000000E+00  0.00000000000E+00  0.45593999997E+02  0.45594000000E+02  0.51100000000E-03 0. -1.
         11   -1    0    0    0    0 -0.00000000000E+00 -0.00000000000E+00 -0.45593999997E+02  0.45594000000E+02  0.51100000000E-03 0.  1.
    9900012    2    1    2    0    0  0.53736544663E+01 -0.20754391855E+02 -0.37735955579E+02  0.47787270893E+02  0.19999999309E+02 0.  0.
         12    1    1    2    0    0 -0.53736544663E+01  0.20754391855E+02  0.37735955579E+02  0.43400729107E+02  0.00000000000E+00 0. -1.
         11    1    3    3    0    0  0.44949107683E+00 -0.16135789612E+02 -0.19828501087E+02  0.25568246014E+02  0.51100000000E-03 0. -1.
        -11    1    3    3    0    0 -0.11173445741E+01 -0.66730510451E+01 -0.88790077308E+01  0.11163102064E+02  0.51100000000E-03 0.  1.
         12    1    3    3    0    0  0.60415079637E+01  0.20544488026E+01 -0.90284467615E+01  0.11055922815E+02  0.00000000000E+00 0. -1.
</event>
<event>
 7    1  0.1246400E-009  0.4778727E+02  0.7816164E-02  0.1312668E+00
        -11   -1    0    0    0    0  0.00000000000E+00  0.00000000000E+00  0.45593999997E+02  0.45594000000E+02  0.51100000000E-03 0. -1.
         11   -1    0    0    0    0 -0.00000000000E+00 -0.00000000000E+00 -0.45593999997E+02  0.45594000000E+02  0.51100000000E-03 0.  1.
    9900012    2    1    2    0    0  0.89480866510E+01 -0.24324204624E+02 -0.34812183546E+02  0.47787270645E+02  0.19999998180E+02 0.  0.
         12    1    1    2    0    0 -0.89480866510E+01  0.24324204624E+02  0.34812183546E+02  0.43400729355E+02  0.00000000000E+00 0. -1.
         11    1    3    3    0    0 -0.32785596006E+01 -0.48241955801E+01 -0.83914274044E+01  0.10219484830E+02  0.51100000000E-03 0. -1.
        -11    1    3    3    0    0  0.20663382632E+01  0.16523935779E+01 -0.56120674266E+01  0.62044709216E+01  0.51100000000E-03 0.  1.
         12    1    3    3    0    0  0.10160307988E+02 -0.21152402621E+02 -0.20808688715E+02  0.31363314894E+02  0.00000000000E+00 0. -1.
</event>
<event>
 7    1  0.1246400E-009  0.4778727E+02  0.7816164E-02  0.1312668E+00
        -11   -1    0    0    0    0  0.00000000000E+00  0.00000000000E+00  0.45593999997E+02  0.45594000000E+02  0.51100000000E-03 0. -1.
         11   -1    0    0    0    0 -0.00000000000E+00 -0.00000000000E+00 -0.45593999997E+02  0.45594000000E+02  0.51100000000E-03 0.  1.
    9900012    2    1    2    0    0 -0.20407073757E+01 -0.36052370622E+02 -0.24076656403E+02  0.47787270771E+02  0.19999998755E+02 0.  0.
         12    1    1    2    0    0  0.20407073757E+01  0.36052370622E+02  0.24076656403E+02  0.43400729229E+02  0.00000000000E+00 0. -1.
         11    1    3    3    0    0 -0.15821522300E+01 -0.19501397629E+02 -0.10579958697E+02  0.22242824493E+02  0.51100000000E-03 0.  1.
        -11    1    3    3    0    0 -0.19928854214E+01 -0.12085037299E+02 -0.11221909615E+01  0.12299554124E+02  0.51100000000E-03 0. -1.
         12    1    3    3    0    0  0.15343302757E+01 -0.44659356939E+01 -0.12374506744E+02  0.13244892155E+02  0.00000000000E+00 0. -1.
</event>
<event>
 7    1  0.1246400E-009  0.4778727E+02  0.7816164E-02  0.1312668E+00
        -11   -1    0    0    0    0  0.00000000000E+00  0.00000000000E+00  0.45593999997E+02  0.45594000000E+02  0.51100000000E-03 0.  1.
         11   -1    0    0    0    0 -0.00000000000E+00 -0.00000000000E+00 -0.45593999997E+02  0.45594000000E+02  0.51100000000E-03 0. -1.
    9900012    2    1    2    0    0 -0.74575839319E+01  0.38940479678E+02  0.17653516948E+02  0.47787272168E+02  0.20000005125E+02 0.  0.
         12    1    1    2    0    0  0.74575839319E+01 -0.38940479678E+02 -0.17653516948E+02  0.43400727832E+02  0.00000000000E+00 0. -1.
         11    1    3    3    0    0 -0.55882817267E+01  0.84505535091E+01  0.13278855907E+02  0.16702357969E+02  0.51100000000E-03 0. -1.
        -11    1    3    3    0    0  0.10797773730E+01  0.95771636819E+01  0.87822986361E+00  0.96777720225E+01  0.51100000000E-03 0.  1.
         12    1    3    3    0    0 -0.29490795781E+01  0.20912762487E+02  0.34964311773E+01  0.21407142177E+02  0.00000000000E+00 0. -1.
</event>
<event>
 7    1  0.1246400E-009  0.4778726E+02  0.7816164E-02  0.1312668E+00
        -11   -1    0    0    0    0  0.00000000000E+00  0.00000000000E+00  0.45593999997E+02  0.45594000000E+02  0.51100000000E-03 0.  1.
         11   -1    0    0    0    0 -0.00000000000E+00 -0.00000000000E+00 -0.45593999997E+02  0.45594000000E+02  0.51100000000E-03 0. -1.
    9900012    2    1    2    0    0  0.82025775624E+01  0.10796035802E+02  0.41228474821E+02  0.47787264940E+02  0.19999972166E+02 0.  0.
         12    1    1    2    0    0 -0.82025775624E+01 -0.10796035802E+02 -0.41228474821E+02  0.43400735060E+02  0.00000000000E+00 0. -1.
         11    1    3    3    0    0  0.59980901495E+01  0.12951060177E+01  0.35299551371E+01  0.70791926496E+01  0.51100000000E-03 0. -1.
        -11    1    3    3    0    0 -0.30936989538E+01 -0.10152532283E+01  0.12110651694E+02  0.12540717565E+02  0.51100000000E-03 0.  1.
         12    1    3    3    0    0  0.52981863668E+01  0.10516183013E+02  0.25587867990E+02  0.28167354725E+02  0.00000000000E+00 0. -1.
</event>
<event>
 7    1 -0.1246400E-009  0.4778728E+02  0.7816164E-02  0.1312668E+00
        -11   -1    0    0    0    0  0.00000000000E+00  0.00000000000E+00  0.45593999997E+02  0.45594000000E+02  0.51100000000E-03 0.  1.
         11   -1    0    0    0    0 -0.00000000000E+00 -0.00000000000E+00 -0.45593999997E+02  0.45594000000E+02  0.51100000000E-03 0. -1.
    9900012    2    1    2    0    0  0.70587652608E+01 -0.65795502750E+01  0.42314372663E+02  0.47787276703E+02  0.20000025798E+02 0.  0.
         12    1    1    2    0    0 -0.70587652608E+01  0.65795502750E+01 -0.42314372663E+02  0.43400723297E+02  0.00000000000E+00 0. -1.
         11    1    3    3    0    0  0.11271858897E+02 -0.11345930864E+01  0.18184020092E+02  0.21424301422E+02  0.51100000000E-03 0. -1.
        -11    1    3    3    0    0  0.91548674397E+00 -0.27999000626E+01  0.16685858315E+02  0.16943890471E+02  0.51100000000E-03 0.  1.
         12    1    3    3    0    0 -0.51285803797E+01 -0.26450571260E+01  0.74444942563E+01  0.94190848092E+01  0.00000000000E+00 0. -1.
</event>
<event>
 7    1  0.1246400E-009  0.4778727E+02  0.7816164E-02  0.1312668E+00
        -11   -1    0    0    0    0  0.00000000000E+00  0.00000000000E+00  0.45593999997E+02  0.45594000000E+02  0.51100000000E-03 0. -1.
         11   -1    0    0    0    0 -0.00000000000E+00 -0.00000000000E+00 -0.45593999997E+02  0.45594000000E+02  0.51100000000E-03 0.  1.
    9900012    2    1    2    0    0  0.25136804263E+02  0.15434401858E+02 -0.31836203037E+02  0.47787268289E+02  0.19999987435E+02 0.  0.
         12    1    1    2    0    0 -0.25136804263E+02 -0.15434401858E+02  0.31836203037E+02  0.43400731711E+02  0.00000000000E+00 0. -1.
         11    1    3    3    0    0  0.36109756189E+01  0.11083172207E+02 -0.46569553638E+01  0.12552413497E+02  0.51100000000E-03 0. -1.
        -11    1    3    3    0    0  0.31497158086E+01  0.21585714055E+01 -0.59696516883E+01  0.70863870716E+01  0.51100000000E-03 0.  1.
        -12    1    3    3    0    0  0.18376112836E+02  0.21926582455E+01 -0.21209595984E+02  0.28148467720E+02  0.00000000000E+00 0.  1.
</event>
<event>
 7    1  0.1246400E-009  0.4778727E+02  0.7816164E-02  0.1312668E+00
        -11   -1    0    0    0    0  0.00000000000E+00  0.00000000000E+00  0.45593999997E+02  0.45594000000E+02  0.51100000000E-03 0. -1.
         11   -1    0    0    0    0 -0.00000000000E+00 -0.00000000000E+00 -0.45593999997E+02  0.45594000000E+02  0.51100000000E-03 0.  1.
    9900012    2    1    2    0    0  0.22140475956E+01  0.36131975829E+02 -0.23941623655E+02  0.47787273885E+02  0.20000012953E+02 0.  0.
         12    1    1    2    0    0 -0.22140475956E+01 -0.36131975829E+02  0.23941623655E+02  0.43400726115E+02  0.00000000000E+00 0. -1.
         11    1    3    3    0    0 -0.40890131684E+01  0.70949907986E+01  0.48491761896E+00  0.82032961962E+01  0.51100000000E-03 0. -1.
        -11    1    3    3    0    0  0.16725825913E+01  0.20146346384E+02 -0.11608103346E+02  0.23311389249E+02  0.51100000000E-03 0.  1.
         12    1    3    3    0    0  0.46304781727E+01  0.88906386461E+01 -0.12818437928E+02  0.16272588440E+02  0.00000000000E+00 0. -1.
</event>
<event>
 7    1  0.1246400E-009  0.4778727E+02  0.7816164E-02  0.1312668E+00
        -11   -1    0    0    0    0  0.00000000000E+00  0.00000000000E+00  0.45593999997E+02  0.45594000000E+02  0.51100000000E-03 0.  1.
         11   -1    0    0    0    0 -0.00000000000E+00 -0.00000000000E+00 -0.45593999997E+02  0.45594000000E+02  0.51100000000E-03 0. -1.
    9900012    2    1    2    0    0  0.16082931806E+02 -0.38288029599E+02  0.12609086400E+02  0.47787274592E+02  0.20000016177E+02 0.  0.
         12    1    1    2    0    0 -0.16082931806E+02  0.38288029599E+02 -0.12609086400E+02  0.43400725408E+02  0.00000000000E+00 0. -1.
         11    1    3    3    0    0  0.96202022808E+01 -0.85123577136E+01  0.32265173066E+01  0.13244581532E+02  0.51100000000E-03 0. -1.
        -11    1    3    3    0    0  0.45315005632E+01 -0.30559139019E+02  0.76347640263E+01  0.31822713538E+02  0.51100000000E-03 0.  1.
        -12    1    3    3    0    0  0.19312289616E+01  0.78346713298E+00  0.17478050667E+01  0.27199795223E+01  0.00000000000E+00 0.  1.
</event>
<event>
 7    1  0.2295890E-009  0.4778727E+02  0.7816164E-02  0.1312668E+00
        -11   -1    0    0    0    0  0.00000000000E+00  0.00000000000E+00  0.45593999997E+02  0.45594000000E+02  0.51100000000E-03 0. -1.
         11   -1    0    0    0    0 -0.00000000000E+00 -0.00000000000E+00 -0.45593999997E+02  0.45594000000E+02  0.51100000000E-03 0.  1.
    9900012    2    1    2    0    0 -0.10238241009E+02  0.90036207177E+01 -0.41203594956E+02  0.47787274174E+02  0.20000014267E+02 0.  0.
         12    1    1    2    0    0  0.10238241009E+02 -0.90036207177E+01  0.41203594956E+02  0.43400725826E+02  0.00000000000E+00 0. -1.
         11    1    3    3    0    0 -0.84386846862E-02  0.21198660817E+01  0.30191744957E+00  0.21412748126E+01  0.51100000000E-03 0. -1.
        -11    1    3    3    0    0 -0.12615333899E+02  0.89677233921E+01 -0.30629733170E+02  0.34318322607E+02  0.51100000000E-03 0.  1.
        -12    1    3    3    0    0  0.23855315750E+01 -0.20839687561E+01 -0.10875779236E+02  0.11327676754E+02  0.00000000000E+00 0.  1.
</event>
<event>
 7    1  0.1246400E-009  0.4778727E+02  0.7816164E-02  0.1312668E+00
        -11   -1    0    0    0    0  0.00000000000E+00  0.00000000000E+00  0.45593999997E+02  0.45594000000E+02  0.51100000000E-03 0. -1.
         11   -1    0    0    0    0 -0.00000000000E+00 -0.00000000000E+00 -0.45593999997E+02  0.45594000000E+02  0.51100000000E-03 0.  1.
    9900012    2    1    2    0    0  0.21591200004E+01  0.37227382090E+02 -0.22205481701E+02  0.47787271964E+02  0.20000004193E+02 0.  0.
         12    1    1    2    0    0 -0.21591200004E+01 -0.37227382090E+02  0.22205481701E+02  0.43400728036E+02  0.00000000000E+00 0. -1.
         11    1    3    3    0    0 -0.41567091357E+00  0.38374890187E+01 -0.58811466211E+01  0.70346990069E+01  0.51100000000E-03 0. -1.
        -11    1    3    3    0    0  0.21743990134E+01  0.18811628441E+02 -0.17932691351E+02  0.26080391005E+02  0.51100000000E-03 0.  1.
        -12    1    3    3    0    0  0.40039190059E+00  0.14578264631E+02  0.16083562710E+01  0.14672181952E+02  0.00000000000E+00 0.  1.
</event>
<event>
 7    1  0.1246400E-009  0.4778727E+02  0.7816164E-02  0.1312668E+00
        -11   -1    0    0    0    0  0.00000000000E+00  0.00000000000E+00  0.45593999997E+02  0.45594000000E+02  0.51100000000E-03 0.  1.
         11   -1    0    0    0    0 -0.00000000000E+00 -0.00000000000E+00 -0.45593999997E+02  0.45594000000E+02  0.51100000000E-03 0. -1.
    9900012    2    1    2    0    0 -0.17151638993E+02 -0.19148228151E+01  0.39821826969E+02  0.47787272244E+02  0.20000005471E+02 0.  0.
         12    1    1    2    0    0  0.17151638993E+02  0.19148228151E+01 -0.39821826969E+02  0.43400727756E+02  0.00000000000E+00 0. -1.
         11    1    3    3    0    0 -0.11785723218E+02 -0.36069879312E+01  0.17129593095E+02  0.21102999635E+02  0.51100000000E-03 0. -1.
        -11    1    3    3    0    0 -0.56852339836E+01 -0.45335580223E+01  0.15788368412E+02  0.17382393712E+02  0.51100000000E-03 0.  1.
         12    1    3    3    0    0  0.31931820821E+00  0.62257231384E+01  0.69038654612E+01  0.93018788973E+01  0.00000000000E+00 0. -1.
</event>
<event>
 7    1  0.1246400E-009  0.4778727E+02  0.7816164E-02  0.1312668E+00
        -11   -1    0    0    0    0  0.00000000000E+00  0.00000000000E+00  0.45593999997E+02  0.45594000000E+02  0.51100000000E-03 0.  1.
         11   -1    0    0    0    0 -0.00000000000E+00 -0.00000000000E+00 -0.45593999997E+02  0.45594000000E+02  0.51100000000E-03 0. -1.
    9900012    2    1    2    0    0 -0.50853628194E+01  0.34288147954E+02  0.26116762477E+02  0.47787270889E+02  0.19999999289E+02 0.  0.
         12    1    1    2    0    0  0.50853628194E+01 -0.34288147954E+02 -0.26116762477E+02  0.43400729111E+02  0.00000000000E+00 0. -1.
         11    1    3    3    0    0  0.30038868526E+01  0.96242088272E+01  0.10964207679E+01  0.10141541822E+02  0.51100000000E-03 0. -1.
        -11    1    3    3    0    0  0.62308991609E-01  0.12056342968E+02  0.16330542072E+02  0.20298913587E+02  0.51100000000E-03 0.  1.
        -12    1    3    3    0    0 -0.81515586636E+01  0.12607596158E+02  0.86897996374E+01  0.17346815479E+02  0.00000000000E+00 0.  1.
</event>
