<event>
 7    1  0.2353206E-008  0.4614232E+02  0.7816164E-02  0.1320468E+00
        -11   -1    0    0    0    0  0.00000000000E+00  0.00000000000E+00  0.45593999997E+02  0.45594000000E+02  0.51100000000E-03 0. -1.
         11   -1    0    0    0    0 -0.00000000000E+00 -0.00000000000E+00 -0.45593999997E+02  0.45594000000E+02  0.51100000000E-03 0.  1.
    9900012    2    1    2    0    0 -0.23464797466E+02 -0.38109822666E+02 -0.51145071708E+01  0.46142317773E+02  0.10000000106E+02 0.  0.
         12    1    1    2    0    0  0.23464797466E+02  0.38109822666E+02  0.51145071708E+01  0.45045682227E+02  0.00000000000E+00 0. -1.
         11    1    3    3    0    0 -0.37876530424E+01 -0.30053510200E+01  0.87086193273E+00  0.49129269372E+01  0.51100000000E-03 0. -1.
        -11    1    3    3    0    0 -0.45643067131E+01 -0.14415415339E+02 -0.32179800517E+01  0.15459381975E+02  0.51100000000E-03 0.  1.
        -12    1    3    3    0    0 -0.15112837710E+02 -0.20689056306E+02 -0.27673890518E+01  0.25770008860E+02  0.00000000000E+00 0.  1.
</event>
<event>
 7    1  0.2353206E-008  0.4614232E+02  0.7816164E-02  0.1320468E+00
        -11   -1    0    0    0    0  0.00000000000E+00  0.00000000000E+00  0.45593999997E+02  0.45594000000E+02  0.51100000000E-03 0. -1.
         11   -1    0    0    0    0 -0.00000000000E+00 -0.00000000000E+00 -0.45593999997E+02  0.45594000000E+02  0.51100000000E-03 0.  1.
    9900012    2    1    2    0    0 -0.92888614373E+01 -0.39886544794E+02 -0.18758838938E+02  0.46142318290E+02  0.10000004822E+02 0.  0.
         12    1    1    2    0    0  0.92888614373E+01  0.39886544794E+02  0.18758838938E+02  0.45045681710E+02  0.00000000000E+00 0. -1.
         11    1    3    3    0    0 -0.40898479577E+01 -0.15567772403E+02 -0.51773526691E+01  0.16908204365E+02  0.51100000000E-03 0. -1.
        -11    1    3    3    0    0 -0.62600965613E+01 -0.12196564787E+02 -0.75984083260E+01  0.15674208462E+02  0.51100000000E-03 0.  1.
         12    1    3    3    0    0  0.10610830817E+01 -0.12122207604E+02 -0.59830779425E+01  0.13559905463E+02  0.00000000000E+00 0. -1.
</event>
<event>
 7    1  0.2353206E-008  0.4614232E+02  0.7816164E-02  0.1320468E+00
        -11   -1    0    0    0    0  0.00000000000E+00  0.00000000000E+00  0.45593999997E+02  0.45594000000E+02  0.51100000000E-03 0.  1.
         11   -1    0    0    0    0 -0.00000000000E+00 -0.00000000000E+00 -0.45593999997E+02  0.45594000000E+02  0.51100000000E-03 0. -1.
    9900012    2    1    2    0    0 -0.58864251438E+01  0.26113680122E+02  0.36228982402E+02  0.46142318116E+02  0.10000003236E+02 0.  0.
         12    1    1    2    0    0  0.58864251438E+01 -0.26113680122E+02 -0.36228982402E+02  0.45045681884E+02  0.00000000000E+00 0. -1.
         11    1    3    3    0    0 -0.17207875923E+01  0.69008718166E+01  0.69656346489E+01  0.99550594217E+01  0.51100000000E-03 0.  1.
        -11    1    3    3    0    0 -0.32897824567E+01  0.93358670730E+01  0.80058127536E+01  0.12730833465E+02  0.51100000000E-03 0. -1.
        -12    1    3    3    0    0 -0.87585509485E+00  0.98769412329E+01  0.21257534999E+02  0.23456425229E+02  0.00000000000E+00 0.  1.
</event>
<event>
 7    1  0.2353206E-008  0.4614230E+02  0.7816164E-02  0.1320468E+00
        -11   -1    0    0    0    0  0.00000000000E+00  0.00000000000E+00  0.45593999997E+02  0.45594000000E+02  0.51100000000E-03 0.  1.
         11   -1    0    0    0    0 -0.00000000000E+00 -0.00000000000E+00 -0.45593999997E+02  0.45594000000E+02  0.51100000000E-03 0. -1.
    9900012    2    1    2    0    0  0.15123175304E+01  0.37185193929E+02  0.25378912802E+02  0.46142301350E+02  0.99998503516E+01 0.  0.
         12    1    1    2    0    0 -0.15123175304E+01 -0.37185193929E+02 -0.25378912802E+02  0.45045698650E+02  0.00000000000E+00 0. -1.
         11    1    3    3    0    0  0.26070064024E+01  0.33511328756E+01  0.27642963497E+01  0.50663506099E+01  0.51100000000E-03 0. -1.
        -11    1    3    3    0    0 -0.14626076338E+01  0.67729279564E+01  0.69103665229E+01  0.97859562606E+01  0.51100000000E-03 0.  1.
         12    1    3    3    0    0  0.36791876175E+00  0.27061133097E+02  0.15704249929E+02  0.31289994480E+02  0.00000000000E+00 0. -1.
</event>
<event>
 7    1  0.2353206E-008  0.4614232E+02  0.7816164E-02  0.1320468E+00
        -11   -1    0    0    0    0  0.00000000000E+00  0.00000000000E+00  0.45593999997E+02  0.45594000000E+02  0.51100000000E-03 0. -1.
         11   -1    0    0    0    0 -0.00000000000E+00 -0.00000000000E+00 -0.45593999997E+02  0.45594000000E+02  0.51100000000E-03 0.  1.
    9900012    2    1    2    0    0  0.13037877187E+02 -0.42106236017E+02  0.92839756577E+01  0.46142316998E+02  0.99999930428E+01 0.  0.
         12    1    1    2    0    0 -0.13037877187E+02  0.42106236017E+02 -0.92839756577E+01  0.45045683002E+02  0.00000000000E+00 0. -1.
         11    1    3    3    0    0  0.15765878987E+01 -0.19416822036E+01 -0.13915957524E+01  0.28622191009E+01  0.51100000000E-03 0. -1.
        -11    1    3    3    0    0  0.58215296874E+01 -0.19206080475E+02  0.70743785357E+01  0.21279346020E+02  0.51100000000E-03 0.  1.
        -12    1    3    3    0    0  0.56397596010E+01 -0.20958473339E+02  0.36011928744E+01  0.22000751878E+02  0.00000000000E+00 0.  1.
</event>
<event>
 7    1  0.2353206E-008  0.4614232E+02  0.7816164E-02  0.1320468E+00
        -11   -1    0    0    0    0  0.00000000000E+00  0.00000000000E+00  0.45593999997E+02  0.45594000000E+02  0.51100000000E-03 0.  1.
         11   -1    0    0    0    0 -0.00000000000E+00 -0.00000000000E+00 -0.45593999997E+02  0.45594000000E+02  0.51100000000E-03 0. -1.
    9900012    2    1    2    0    0 -0.41884192114E+02  0.18863879663E+01  0.16470265701E+02  0.46142315846E+02  0.99999825374E+01 0.  0.
         12    1    1    2    0    0  0.41884192114E+02 -0.18863879663E+01 -0.16470265701E+02  0.45045684154E+02  0.00000000000E+00 0. -1.
         11    1    3    3    0    0 -0.75821654300E+00  0.54390223441E+00  0.16805931253E+00  0.94813826013E+00  0.51100000000E-03 0. -1.
        -11    1    3    3    0    0 -0.21637478125E+02 -0.12187435489E+01  0.12973560212E+02  0.25258247372E+02  0.51100000000E-03 0.  1.
         12    1    3    3    0    0 -0.19488497446E+02  0.25612292807E+01  0.33286461764E+01  0.19935930214E+02  0.00000000000E+00 0. -1.
</event>
<event>
 7    1  0.2353206E-008  0.4614232E+02  0.7816164E-02  0.1320468E+00
        -11   -1    0    0    0    0  0.00000000000E+00  0.00000000000E+00  0.45593999997E+02  0.45594000000E+02  0.51100000000E-03 0.  1.
         11   -1    0    0    0    0 -0.00000000000E+00 -0.00000000000E+00 -0.45593999997E+02  0.45594000000E+02  0.51100000000E-03 0. -1.
    9900012    2    1    2    0    0  0.21155640903E+02 -0.30586617476E+02  0.25416748672E+02  0.46142318479E+02  0.10000006542E+02 0.  0.
         12    1    1    2    0    0 -0.21155640903E+02  0.30586617476E+02 -0.25416748672E+02  0.45045681521E+02  0.00000000000E+00 0. -1.
         11    1    3    3    0    0  0.20727907833E+01 -0.21690867885E+01  0.18624338893E+01  0.35312971244E+01  0.51100000000E-03 0. -1.
        -11    1    3    3    0    0  0.98708366237E+01 -0.69879157669E+01  0.66284126680E+01  0.13791310205E+02  0.51100000000E-03 0.  1.
         12    1    3    3    0    0  0.92120134961E+01 -0.21429614921E+02  0.16925902115E+02  0.28819711149E+02  0.00000000000E+00 0. -1.
</event>
<event>
 7    1  0.2353206E-008  0.4614232E+02  0.7816164E-02  0.1320468E+00
        -11   -1    0    0    0    0  0.00000000000E+00  0.00000000000E+00  0.45593999997E+02  0.45594000000E+02  0.51100000000E-03 0.  1.
         11   -1    0    0    0    0 -0.00000000000E+00 -0.00000000000E+00 -0.45593999997E+02  0.45594000000E+02  0.51100000000E-03 0. -1.
    9900012    2    1    2    0    0 -0.39267639168E+02  0.12833523166E+02  0.17957356548E+02  0.46142318110E+02  0.10000003185E+02 0.  0.
         12    1    1    2    0    0  0.39267639168E+02 -0.12833523166E+02 -0.17957356548E+02  0.45045681890E+02  0.00000000000E+00 0. -1.
         11    1    3    3    0    0 -0.62372718533E+01  0.13346112629E+01  0.64965876997E+00  0.64114588179E+01  0.51100000000E-03 0. -1.
        -11    1    3    3    0    0 -0.44525584081E+01 -0.79374540879E+00  0.33785972495E+01  0.56453722452E+01  0.51100000000E-03 0.  1.
        -12    1    3    3    0    0 -0.28577808907E+02  0.12292657312E+02  0.13929100529E+02  0.34085487047E+02  0.00000000000E+00 0.  1.
</event>
<event>
 7    1  0.2353206E-008  0.4614232E+02  0.7816164E-02  0.1320468E+00
        -11   -1    0    0    0    0  0.00000000000E+00  0.00000000000E+00  0.45593999997E+02  0.45594000000E+02  0.51100000000E-03 0. -1.
         11   -1    0    0    0    0 -0.00000000000E+00 -0.00000000000E+00 -0.45593999997E+02  0.45594000000E+02  0.51100000000E-03 0.  1.
    9900012    2    1    2    0    0  0.37453871990E+02 -0.15493351817E+02 -0.19653928794E+02  0.46142318801E+02  0.10000009487E+02 0.  0.
         12    1    1    2    0    0 -0.37453871990E+02  0.15493351817E+02  0.19653928794E+02  0.45045681199E+02  0.00000000000E+00 0. -1.
         11    1    3    3    0    0  0.15105857747E+02 -0.21349112840E+01 -0.59069308825E+01  0.16359603209E+02  0.51100000000E-03 0. -1.
        -11    1    3    3    0    0  0.10052514539E+02 -0.34472638965E+01 -0.56049217325E+01  0.12014650424E+02  0.51100000000E-03 0.  1.
        -12    1    3    3    0    0  0.12295499705E+02 -0.99111766369E+01 -0.81420761788E+01  0.17768065168E+02  0.00000000000E+00 0.  1.
</event>
<event>
 7    1  0.2353206E-008  0.4614232E+02  0.7816164E-02  0.1320468E+00
        -11   -1    0    0    0    0  0.00000000000E+00  0.00000000000E+00  0.45593999997E+02  0.45594000000E+02  0.51100000000E-03 0.  1.
         11   -1    0    0    0    0 -0.00000000000E+00 -0.00000000000E+00 -0.45593999997E+02  0.45594000000E+02  0.51100000000E-03 0. -1.
    9900012    2    1    2    0    0  0.17627532444E+02  0.14271639775E+02  0.38919197265E+02  0.46142317436E+02  0.99999970314E+01 0.  0.
         12    1    1    2    0    0 -0.17627532444E+02 -0.14271639775E+02 -0.38919197265E+02  0.45045682564E+02  0.00000000000E+00 0. -1.
         11    1    3    3    0    0  0.24385787649E+01  0.17967358876E+00  0.10370789827E+01  0.26560274977E+01  0.51100000000E-03 0. -1.
        -11    1    3    3    0    0  0.38560504515E+01  0.28636452550E+01  0.49708264648E+01  0.69122142064E+01  0.51100000000E-03 0.  1.
        -12    1    3    3    0    0  0.11332903228E+02  0.11228320932E+02  0.32911291817E+02  0.36574075731E+02  0.00000000000E+00 0.  1.
</event>
<event>
 7    1  0.2353206E-008  0.4614232E+02  0.7816164E-02  0.1320468E+00
        -11   -1    0    0    0    0  0.00000000000E+00  0.00000000000E+00  0.45593999997E+02  0.45594000000E+02  0.51100000000E-03 0.  1.
         11   -1    0    0    0    0 -0.00000000000E+00 -0.00000000000E+00 -0.45593999997E+02  0.45594000000E+02  0.51100000000E-03 0. -1.
    9900012    2    1    2    0    0  0.25809022548E+02  0.30796815131E+00  0.36917651914E+02  0.46142317498E+02  0.99999975971E+01 0.  0.
         12    1    1    2    0    0 -0.25809022548E+02 -0.30796815131E+00 -0.36917651914E+02  0.45045682502E+02  0.00000000000E+00 0. -1.
         11    1    3    3    0    0  0.82318988461E+01  0.14585276868E+01  0.10076385099E+02  0.13092936972E+02  0.51100000000E-03 0. -1.
        -11    1    3    3    0    0  0.16280953504E+02  0.77939836359E+00  0.19866531469E+02  0.25697392507E+02  0.51100000000E-03 0.  1.
         12    1    3    3    0    0  0.12961701978E+01 -0.19299578990E+01  0.69747353464E+01  0.73519880186E+01  0.00000000000E+00 0. -1.
</event>
<event>
 7    1  0.2353206E-008  0.4614232E+02  0.7816164E-02  0.1320468E+00
        -11   -1    0    0    0    0  0.00000000000E+00  0.00000000000E+00  0.45593999997E+02  0.45594000000E+02  0.51100000000E-03 0.  1.
         11   -1    0    0    0    0 -0.00000000000E+00 -0.00000000000E+00 -0.45593999997E+02  0.45594000000E+02  0.51100000000E-03 0. -1.
    9900012    2    1    2    0    0  0.84343672413E+01 -0.45210169107E+00  0.44246699833E+02  0.46142318822E+02  0.10000009673E+02 0.  0.
         12    1    1    2    0    0 -0.84343672413E+01  0.45210169107E+00 -0.44246699833E+02  0.45045681178E+02  0.00000000000E+00 0. -1.
         11    1    3    3    0    0  0.68392427339E+00  0.47988963402E+00  0.96013621419E+01  0.96376450294E+01  0.51100000000E-03 0. -1.
        -11    1    3    3    0    0  0.27205323602E+01 -0.73917965387E+00  0.28132383648E+02  0.28273285852E+02  0.51100000000E-03 0.  1.
         12    1    3    3    0    0  0.50299106078E+01 -0.19281167122E+00  0.65129540428E+01  0.82313879405E+01  0.00000000000E+00 0. -1.
</event>
<event>
 7    1  0.2353206E-008  0.4614232E+02  0.7816164E-02  0.1320468E+00
        -11   -1    0    0    0    0  0.00000000000E+00  0.00000000000E+00  0.45593999997E+02  0.45594000000E+02  0.51100000000E-03 0.  1.
         11   -1    0    0    0    0 -0.00000000000E+00 -0.00000000000E+00 -0.45593999997E+02  0.45594000000E+02  0.51100000000E-03 0. -1.
    9900012    2    1    2    0    0 -0.19317390860E+01  0.40283066044E+02 -0.20066300667E+02  0.46142318206E+02  0.10000004057E+02 0.  0.
         12    1    1    2    0    0  0.19317390860E+01 -0.40283066044E+02  0.20066300667E+02  0.45045681794E+02  0.00000000000E+00 0. -1.
         11    1    3    3    0    0  0.13723797868E+01  0.89806563004E+01 -0.31549376789E+01  0.96171329347E+01  0.51100000000E-03 0. -1.
        -11    1    3    3    0    0 -0.23999775473E+01  0.28246483804E+02 -0.12257603285E+02  0.30884827636E+02  0.51100000000E-03 0.  1.
         12    1    3    3    0    0 -0.90414132546E+00  0.30559259397E+01 -0.46537597031E+01  0.56403576357E+01  0.00000000000E+00 0. -1.
</event>
<event>
 7    1  0.2353206E-008  0.4614232E+02  0.7816164E-02  0.1320468E+00
        -11   -1    0    0    0    0  0.00000000000E+00  0.00000000000E+00  0.45593999997E+02  0.45594000000E+02  0.51100000000E-03 0.  1.
         11   -1    0    0    0    0 -0.00000000000E+00 -0.00000000000E+00 -0.45593999997E+02  0.45594000000E+02  0.51100000000E-03 0. -1.
    9900012    2    1    2    0    0 -0.43443871574E+01  0.13218334588E+02  0.42842915777E+02  0.46142317617E+02  0.99999986877E+01 0.  0.
         12    1    1    2    0    0  0.43443871574E+01 -0.13218334588E+02 -0.42842915777E+02  0.45045682383E+02  0.00000000000E+00 0. -1.
         11    1    3    3    0    0 -0.14083098736E+00  0.46536018512E+01  0.20881016135E+02  0.21393753262E+02  0.51100000000E-03 0. -1.
        -11    1    3    3    0    0 -0.39176042499E+01  0.13552384064E+01  0.91365747858E+01  0.10033010180E+02  0.51100000000E-03 0.  1.
        -12    1    3    3    0    0 -0.28595192017E+00  0.72094943307E+01  0.12825324856E+02  0.14715554175E+02  0.00000000000E+00 0.  1.
</event>
<event>
 7    1  0.2353206E-008  0.4614232E+02  0.7816164E-02  0.1320468E+00
        -11   -1    0    0    0    0  0.00000000000E+00  0.00000000000E+00  0.45593999997E+02  0.45594000000E+02  0.51100000000E-03 0.  1.
         11   -1    0    0    0    0 -0.00000000000E+00 -0.00000000000E+00 -0.45593999997E+02  0.45594000000E+02  0.51100000000E-03 0. -1.
    9900012    2    1    2    0    0 -0.60113559624E+01  0.73854176162E+01  0.44027635753E+02  0.46142317589E+02  0.99999984270E+01 0.  0.
         12    1    1    2    0    0  0.60113559624E+01 -0.73854176162E+01 -0.44027635753E+02  0.45045682411E+02  0.00000000000E+00 0. -1.
         11    1    3    3    0    0 -0.54722725501E+01  0.77080546224E+01  0.32684995256E+02  0.34024532151E+02  0.51100000000E-03 0. -1.
        -11    1    3    3    0    0  0.67883549817E+00 -0.79001949330E+00  0.10528847186E+02  0.10580244409E+02  0.51100000000E-03 0.  1.
         12    1    3    3    0    0 -0.12179189105E+01  0.46738248714E+00  0.81379331190E+00  0.15375410292E+01  0.00000000000E+00 0. -1.
</event>
<event>
 7    1  0.2353206E-008  0.4614232E+02  0.7816164E-02  0.1320468E+00
        -11   -1    0    0    0    0  0.00000000000E+00  0.00000000000E+00  0.45593999997E+02  0.45594000000E+02  0.51100000000E-03 0.  1.
         11   -1    0    0    0    0 -0.00000000000E+00 -0.00000000000E+00 -0.45593999997E+02  0.45594000000E+02  0.51100000000E-03 0. -1.
    9900012    2    1    2    0    0 -0.51473856701E+01 -0.42187432317E+02  0.14927776825E+02  0.46142317125E+02  0.99999942030E+01 0.  0.
         12    1    1    2    0    0  0.51473856701E+01  0.42187432317E+02 -0.14927776825E+02  0.45045682875E+02  0.00000000000E+00 0. -1.
         11    1    3    3    0    0  0.72118346230E+00 -0.52108233979E+01  0.42003608796E+01  0.67317024482E+01  0.51100000000E-03 0. -1.
        -11    1    3    3    0    0 -0.30578318264E+01 -0.79374518445E+01  0.43208680736E+01  0.95406172984E+01  0.51100000000E-03 0.  1.
         12    1    3    3    0    0 -0.28107373059E+01 -0.29039157074E+02  0.64065478716E+01  0.29869997379E+02  0.00000000000E+00 0. -1.
</event>
<event>
 7    1  0.2353206E-008  0.4614232E+02  0.7816164E-02  0.1320468E+00
        -11   -1    0    0    0    0  0.00000000000E+00  0.00000000000E+00  0.45593999997E+02  0.45594000000E+02  0.51100000000E-03 0.  1.
         11   -1    0    0    0    0 -0.00000000000E+00 -0.00000000000E+00 -0.45593999997E+02  0.45594000000E+02  0.51100000000E-03 0. -1.
    9900012    2    1    2    0    0  0.12036836847E+02 -0.41223326246E+02  0.13596522716E+02  0.46142317653E+02  0.99999990161E+01 0.  0.
         12    1    1    2    0    0 -0.12036836847E+02  0.41223326246E+02 -0.13596522716E+02  0.45045682347E+02  0.00000000000E+00 0. -1.
         11    1    3    3    0    0  0.80203747681E+01 -0.27864601737E+02  0.71507381792E+01  0.29864619505E+02  0.51100000000E-03 0. -1.
        -11    1    3    3    0    0  0.83564335180E+00  0.31649704970E+00  0.55365758227E+00  0.10511932141E+01  0.51100000000E-03 0.  1.
        -12    1    3    3    0    0  0.31808187274E+01 -0.13675221559E+02  0.58921269548E+01  0.15226504934E+02  0.00000000000E+00 0.  1.
</event>
<event>
 7    1  0.2353206E-008  0.4614232E+02  0.7816164E-02  0.1320468E+00
        -11   -1    0    0    0    0  0.00000000000E+00  0.00000000000E+00  0.45593999997E+02  0.45594000000E+02  0.51100000000E-03 0.  1.
         11   -1    0    0    0    0 -0.00000000000E+00 -0.00000000000E+00 -0.45593999997E+02  0.45594000000E+02  0.51100000000E-03 0. -1.
    9900012    2    1    2    0    0  0.32712495916E+01  0.33198356002E+01  0.44803918534E+02  0.46142317651E+02  0.99999989927E+01 0.  0.
         12    1    1    2    0    0 -0.32712495916E+01 -0.33198356002E+01 -0.44803918534E+02  0.45045682349E+02  0.00000000000E+00 0. -1.
         11    1    3    3    0    0 -0.28534942823E+00 -0.27623959950E+01  0.11113761164E+02  0.11455476568E+02  0.51100000000E-03 0. -1.
        -11    1    3    3    0    0  0.38403272600E+01  0.23289906128E+01  0.18350729372E+02  0.18892368287E+02  0.51100000000E-03 0.  1.
         12    1    3    3    0    0 -0.28372824014E+00  0.37532409825E+01  0.15339427998E+02  0.15794472796E+02  0.00000000000E+00 0. -1.
</event>
<event>
 7    1  0.2353206E-008  0.4614232E+02  0.7816164E-02  0.1320468E+00
        -11   -1    0    0    0    0  0.00000000000E+00  0.00000000000E+00  0.45593999997E+02  0.45594000000E+02  0.51100000000E-03 0. -1.
         11   -1    0    0    0    0 -0.00000000000E+00 -0.00000000000E+00 -0.45593999997E+02  0.45594000000E+02  0.51100000000E-03 0.  1.
    9900012    2    1    2    0    0 -0.89514399227E+01  0.27379386640E+02 -0.34631692515E+02  0.46142320785E+02  0.10000027578E+02 0.  0.
         12    1    1    2    0    0  0.89514399227E+01 -0.27379386640E+02  0.34631692515E+02  0.45045679215E+02  0.00000000000E+00 0. -1.
         11    1    3    3    0    0 -0.42512070650E+01  0.44759919256E+01 -0.75053612119E+01  0.97179067916E+01  0.51100000000E-03 0. -1.
        -11    1    3    3    0    0 -0.63252359240E+01  0.15747287806E+02 -0.18948620368E+02  0.25436900300E+02  0.51100000000E-03 0.  1.
        -12    1    3    3    0    0  0.16250030663E+01  0.71561069081E+01 -0.81777109345E+01  0.10987513694E+02  0.00000000000E+00 0.  1.
</event>
<event>
 7    1  0.2353206E-008  0.4614232E+02  0.7816164E-02  0.1320468E+00
        -11   -1    0    0    0    0  0.00000000000E+00  0.00000000000E+00  0.45593999997E+02  0.45594000000E+02  0.51100000000E-03 0.  1.
         11   -1    0    0    0    0 -0.00000000000E+00 -0.00000000000E+00 -0.45593999997E+02  0.45594000000E+02  0.51100000000E-03 0. -1.
    9900012    2    1    2    0    0 -0.42076751871E+02 -0.97775095630E+01 -0.12769520205E+02  0.46142318881E+02  0.10000010209E+02 0.  0.
         12    1    1    2    0    0  0.42076751871E+02  0.97775095630E+01  0.12769520205E+02  0.45045681119E+02  0.00000000000E+00 0. -1.
         11    1    3    3    0    0 -0.14263272415E+02  0.10899703407E+01 -0.48766641129E+01  0.15113266637E+02  0.51100000000E-03 0. -1.
        -11    1    3    3    0    0 -0.14632726694E+02 -0.41705117419E+01 -0.43714108182E+01  0.15830953588E+02  0.51100000000E-03 0.  1.
         12    1    3    3    0    0 -0.13180752762E+02 -0.66969681618E+01 -0.35214452744E+01  0.15198098656E+02  0.00000000000E+00 0. -1.
</event>
<event>
 7    1  0.2353206E-008  0.4614232E+02  0.7816164E-02  0.1320468E+00
        -11   -1    0    0    0    0  0.00000000000E+00  0.00000000000E+00  0.45593999997E+02  0.45594000000E+02  0.51100000000E-03 0. -1.
         11   -1    0    0    0    0 -0.00000000000E+00 -0.00000000000E+00 -0.45593999997E+02  0.45594000000E+02  0.51100000000E-03 0.  1.
    9900012    2    1    2    0    0  0.16128586133E+02 -0.76973741477E+01 -0.41348911010E+02  0.46142319840E+02  0.10000018955E+02 0.  0.
         12    1    1    2    0    0 -0.16128586133E+02  0.76973741477E+01  0.41348911010E+02  0.45045680160E+02  0.00000000000E+00 0. -1.
         11    1    3    3    0    0  0.77018836743E+01 -0.37162912184E+01 -0.12667141874E+02  0.15283530877E+02  0.51100000000E-03 0. -1.
        -11    1    3    3    0    0  0.85044405530E+01 -0.42813824600E+01 -0.19787104494E+02  0.21958716934E+02  0.51100000000E-03 0.  1.
         12    1    3    3    0    0 -0.77738094566E-01  0.30029953067E+00 -0.88946646425E+01  0.89000720290E+01  0.00000000000E+00 0. -1.
</event>
<event>
 7    1  0.2353206E-008  0.4614232E+02  0.7816164E-02  0.1320468E+00
        -11   -1    0    0    0    0  0.00000000000E+00  0.00000000000E+00  0.45593999997E+02  0.45594000000E+02  0.51100000000E-03 0.  1.
         11   -1    0    0    0    0 -0.00000000000E+00 -0.00000000000E+00 -0.45593999997E+02  0.45594000000E+02  0.51100000000E-03 0. -1.
    9900012    2    1    2    0    0  0.18440734465E+02  0.84579676100E+01  0.40218348989E+02  0.46142317642E+02  0.99999989113E+01 0.  0.
         12    1    1    2    0    0 -0.18440734465E+02 -0.84579676100E+01 -0.40218348989E+02  0.45045682358E+02  0.00000000000E+00 0. -1.
         11    1    3    3    0    0  0.41032822866E+00  0.31636095711E+01  0.82895912463E+01  0.88822360960E+01  0.51100000000E-03 0. -1.
        -11    1    3    3    0    0  0.87556002533E+01  0.45422945744E+01  0.17582626231E+02  0.20160399828E+02  0.51100000000E-03 0.  1.
         12    1    3    3    0    0  0.92748059831E+01  0.75206346447E+00  0.14346131512E+02  0.17099681718E+02  0.00000000000E+00 0. -1.
</event>
<event>
 7    1  0.2353206E-008  0.4614232E+02  0.7816164E-02  0.1320468E+00
        -11   -1    0    0    0    0  0.00000000000E+00  0.00000000000E+00  0.45593999997E+02  0.45594000000E+02  0.51100000000E-03 0. -1.
         11   -1    0    0    0    0 -0.00000000000E+00 -0.00000000000E+00 -0.45593999997E+02  0.45594000000E+02  0.51100000000E-03 0.  1.
    9900012    2    1    2    0    0 -0.45991580610E+01  0.13712045745E+02 -0.42660766951E+02  0.46142317741E+02  0.99999998128E+01 0.  0.
         12    1    1    2    0    0  0.45991580610E+01 -0.13712045745E+02  0.42660766951E+02  0.45045682259E+02  0.00000000000E+00 0. -1.
         11    1    3    3    0    0  0.13861991643E+01  0.15702315002E+00 -0.83299042167E+00  0.16248315902E+01  0.51100000000E-03 0. -1.
        -11    1    3    3    0    0 -0.28209951163E+01  0.10103382659E+02 -0.26919307481E+02  0.28890923663E+02  0.51100000000E-03 0.  1.
         12    1    3    3    0    0 -0.31643621090E+01  0.34516399362E+01 -0.14908469048E+02  0.15626562487E+02  0.00000000000E+00 0. -1.
</event>
<event>
 7    1  0.2353206E-008  0.4614232E+02  0.7816164E-02  0.1320468E+00
        -11   -1    0    0    0    0  0.00000000000E+00  0.00000000000E+00  0.45593999997E+02  0.45594000000E+02  0.51100000000E-03 0. -1.
         11   -1    0    0    0    0 -0.00000000000E+00 -0.00000000000E+00 -0.45593999997E+02  0.45594000000E+02  0.51100000000E-03 0.  1.
    9900012    2    1    2    0    0  0.20212652367E+02  0.40234174690E+02  0.13317095373E+01  0.46142316756E+02  0.99999908309E+01 0.  0.
         12    1    1    2    0    0 -0.20212652367E+02 -0.40234174690E+02 -0.13317095373E+01  0.45045683244E+02  0.00000000000E+00 0. -1.
         11    1    3    3    0    0  0.69875158655E+01  0.16500660318E+02  0.31112776943E+01  0.18187281766E+02  0.51100000000E-03 0. -1.
        -11    1    3    3    0    0  0.83210807491E+01  0.20218445887E+02 -0.13055190325E+01  0.21902746840E+02  0.51100000000E-03 0.  1.
        -12    1    3    3    0    0  0.49040557521E+01  0.35150684851E+01 -0.47404912454E+00  0.60522881497E+01  0.00000000000E+00 0.  1.
</event>
<event>
 7    1  0.2353206E-008  0.4614232E+02  0.7816164E-02  0.1320468E+00
        -11   -1    0    0    0    0  0.00000000000E+00  0.00000000000E+00  0.45593999997E+02  0.45594000000E+02  0.51100000000E-03 0.  1.
         11   -1    0    0    0    0 -0.00000000000E+00 -0.00000000000E+00 -0.45593999997E+02  0.45594000000E+02  0.51100000000E-03 0. -1.
    9900012    2    1    2    0    0  0.38669006245E+02  0.68144383427E+01  0.22076794087E+02  0.46142318175E+02  0.10000003777E+02 0.  0.
         12    1    1    2    0    0 -0.38669006245E+02 -0.68144383427E+01 -0.22076794087E+02  0.45045681825E+02  0.00000000000E+00 0. -1.
         11    1    3    3    0    0  0.33075381631E+01  0.25002834368E+01  0.34807728818E+01  0.54135945618E+01  0.51100000000E-03 0. -1.
        -11    1    3    3    0    0  0.18586762885E+02  0.26495316446E+01  0.60848800439E+01  0.19736097332E+02  0.51100000000E-03 0.  1.
         12    1    3    3    0    0  0.16774705196E+02  0.16646232613E+01  0.12511141162E+02  0.20992626282E+02  0.00000000000E+00 0. -1.
</event>
<event>
 7    1  0.2353206E-008  0.4614232E+02  0.7816164E-02  0.1320468E+00
        -11   -1    0    0    0    0  0.00000000000E+00  0.00000000000E+00  0.45593999997E+02  0.45594000000E+02  0.51100000000E-03 0. -1.
         11   -1    0    0    0    0 -0.00000000000E+00 -0.00000000000E+00 -0.45593999997E+02  0.45594000000E+02  0.51100000000E-03 0.  1.
    9900012    2    1    2    0    0 -0.11230578065E+02  0.38206473025E+02  0.21053580599E+02  0.46142315182E+02  0.99999764821E+01 0.  0.
         12    1    1    2    0    0  0.11230578065E+02 -0.38206473025E+02 -0.21053580599E+02  0.45045684818E+02  0.00000000000E+00 0. -1.
         11    1    3    3    0    0 -0.39199697582E+01  0.37543306457E+01  0.13955212092E+01  0.56043412823E+01  0.51100000000E-03 0.  1.
        -11    1    3    3    0    0 -0.11382935917E+01  0.12907425642E+02  0.85554466946E+01  0.15527170296E+02  0.51100000000E-03 0. -1.
        -12    1    3    3    0    0 -0.61723147153E+01  0.21544716737E+02  0.11102612695E+02  0.25010803604E+02  0.00000000000E+00 0.  1.
</event>
<event>
 7    1  0.2353206E-008  0.4614233E+02  0.7816164E-02  0.1320468E+00
        -11   -1    0    0    0    0  0.00000000000E+00  0.00000000000E+00  0.45593999997E+02  0.45594000000E+02  0.51100000000E-03 0.  1.
         11   -1    0    0    0    0 -0.00000000000E+00 -0.00000000000E+00 -0.45593999997E+02  0.45594000000E+02  0.51100000000E-03 0. -1.
    9900012    2    1    2    0    0 -0.17251461911E+02  0.37624283223E+02  0.17773942000E+02  0.46142327174E+02  0.10000085833E+02 0.  0.
         12    1    1    2    0    0  0.17251461911E+02 -0.37624283223E+02 -0.17773942000E+02  0.45045672826E+02  0.00000000000E+00 0. -1.
         11    1    3    3    0    0 -0.21169978166E+01  0.15277604340E+02  0.73598694671E+01  0.17089603651E+02  0.51100000000E-03 0. -1.
        -11    1    3    3    0    0 -0.60341299454E+01  0.84087790512E+01  0.53672401394E+01  0.11658711606E+02  0.51100000000E-03 0.  1.
        -12    1    3    3    0    0 -0.91003341492E+01  0.13937899833E+02  0.50468323934E+01  0.17394011917E+02  0.00000000000E+00 0.  1.
</event>
<event>
 7    1  0.2353206E-008  0.4614232E+02  0.7816164E-02  0.1320468E+00
        -11   -1    0    0    0    0  0.00000000000E+00  0.00000000000E+00  0.45593999997E+02  0.45594000000E+02  0.51100000000E-03 0.  1.
         11   -1    0    0    0    0 -0.00000000000E+00 -0.00000000000E+00 -0.45593999997E+02  0.45594000000E+02  0.51100000000E-03 0. -1.
    9900012    2    1    2    0    0 -0.30586473354E+02 -0.16129684809E+02  0.28868917092E+02  0.46142318095E+02  0.10000003042E+02 0.  0.
         12    1    1    2    0    0  0.30586473354E+02  0.16129684809E+02 -0.28868917092E+02  0.45045681905E+02  0.00000000000E+00 0. -1.
         11    1    3    3    0    0 -0.62870979510E+01 -0.18436264434E+01  0.63724015681E+01  0.91396969925E+01  0.51100000000E-03 0. -1.
        -11    1    3    3    0    0 -0.15614661136E+02 -0.13375901087E+02  0.17057420433E+02  0.26714938974E+02  0.51100000000E-03 0.  1.
        -12    1    3    3    0    0 -0.86847142668E+01 -0.91015727792E+00  0.54390950909E+01  0.10287682128E+02  0.00000000000E+00 0.  1.
</event>
<event>
 7    1  0.2353206E-008  0.4614232E+02  0.7816164E-02  0.1320468E+00
        -11   -1    0    0    0    0  0.00000000000E+00  0.00000000000E+00  0.45593999997E+02  0.45594000000E+02  0.51100000000E-03 0. -1.
         11   -1    0    0    0    0 -0.00000000000E+00 -0.00000000000E+00 -0.45593999997E+02  0.45594000000E+02  0.51100000000E-03 0.  1.
    9900012    2    1    2    0    0  0.19490280086E+02 -0.30942684222E+02  0.26301953003E+02  0.46142318115E+02  0.10000003229E+02 0.  0.
         12    1    1    2    0    0 -0.19490280086E+02  0.30942684222E+02 -0.26301953003E+02  0.45045681885E+02  0.00000000000E+00 0. -1.
         11    1    3    3    0    0  0.89870170136E+01 -0.89972585669E+01  0.55516151507E+01  0.13875790701E+02  0.51100000000E-03 0. -1.
        -11    1    3    3    0    0  0.20099030770E+01 -0.29898430529E+01  0.13590127487E+01  0.38504269597E+01  0.51100000000E-03 0.  1.
        -12    1    3    3    0    0  0.84933599954E+01 -0.18955582602E+02  0.19391325103E+02  0.28416100455E+02  0.00000000000E+00 0.  1.
</event>
<event>
 7    1  0.2353206E-008  0.4614232E+02  0.7816164E-02  0.1320468E+00
        -11   -1    0    0    0    0  0.00000000000E+00  0.00000000000E+00  0.45593999997E+02  0.45594000000E+02  0.51100000000E-03 0. -1.
         11   -1    0    0    0    0 -0.00000000000E+00 -0.00000000000E+00 -0.45593999997E+02  0.45594000000E+02  0.51100000000E-03 0.  1.
    9900012    2    1    2    0    0 -0.28268204812E+02  0.34834386458E+02 -0.40727825444E+01  0.46142318289E+02  0.10000004813E+02 0.  0.
         12    1    1    2    0    0  0.28268204812E+02 -0.34834386458E+02  0.40727825444E+01  0.45045681711E+02  0.00000000000E+00 0. -1.
         11    1    3    3    0    0 -0.83015888334E+01  0.15248199102E+02 -0.24078190868E+01  0.17527736478E+02  0.51100000000E-03 0. -1.
        -11    1    3    3    0    0 -0.19724983569E+02  0.19640476476E+02 -0.23024196135E+01  0.27930707641E+02  0.51100000000E-03 0.  1.
         12    1    3    3    0    0 -0.24163240934E+00 -0.54289120213E-01  0.63745615587E+00  0.68387417006E+00  0.00000000000E+00 0. -1.
</event>
<event>
 7    1  0.2353206E-008  0.4614231E+02  0.7816164E-02  0.1320468E+00
        -11   -1    0    0    0    0  0.00000000000E+00  0.00000000000E+00  0.45593999997E+02  0.45594000000E+02  0.51100000000E-03 0. -1.
         11   -1    0    0    0    0 -0.00000000000E+00 -0.00000000000E+00 -0.45593999997E+02  0.45594000000E+02  0.51100000000E-03 0.  1.
    9900012    2    1    2    0    0  0.37272051696E+02  0.25801466855E+01 -0.25164491252E+02  0.46142305261E+02  0.99998860159E+01 0.  0.
         12    1    1    2    0    0 -0.37272051696E+02 -0.25801466855E+01  0.25164491252E+02  0.45045694739E+02  0.00000000000E+00 0. -1.
         11    1    3    3    0    0  0.10561790672E+02  0.18987452659E+01 -0.37002060124E+01  0.11351131247E+02  0.51100000000E-03 0. -1.
        -11    1    3    3    0    0  0.20975944370E+02  0.12985944064E+01 -0.13577209617E+02  0.25020335947E+02  0.51100000000E-03 0.  1.
        -12    1    3    3    0    0  0.57343166527E+01 -0.61719298674E+00 -0.78870756223E+01  0.97708380668E+01  0.00000000000E+00 0.  1.
</event>
<event>
 7    1  0.2353206E-008  0.4614231E+02  0.7816164E-02  0.1320468E+00
        -11   -1    0    0    0    0  0.00000000000E+00  0.00000000000E+00  0.45593999997E+02  0.45594000000E+02  0.51100000000E-03 0.  1.
         11   -1    0    0    0    0 -0.00000000000E+00 -0.00000000000E+00 -0.45593999997E+02  0.45594000000E+02  0.51100000000E-03 0. -1.
    9900012    2    1    2    0    0  0.44613474358E+02 -0.52427135470E+01  0.33564386715E+01  0.46142314078E+02  0.99999664142E+01 0.  0.
         12    1    1    2    0    0 -0.44613474358E+02  0.52427135470E+01 -0.33564386715E+01  0.45045685922E+02  0.00000000000E+00 0. -1.
         11    1    3    3    0    0  0.17004496600E+01 -0.21018622895E+01  0.13921257580E+01  0.30409486213E+01  0.51100000000E-03 0. -1.
        -11    1    3    3    0    0  0.92890079198E+01 -0.11981742221E+01  0.82092136176E+00  0.94018722467E+01  0.51100000000E-03 0.  1.
         12    1    3    3    0    0  0.33624016778E+02 -0.19426770354E+01  0.11433915517E+01  0.33699493210E+02  0.00000000000E+00 0. -1.
</event>
<event>
 7    1  0.2353206E-008  0.4614232E+02  0.7816164E-02  0.1320468E+00
        -11   -1    0    0    0    0  0.00000000000E+00  0.00000000000E+00  0.45593999997E+02  0.45594000000E+02  0.51100000000E-03 0. -1.
         11   -1    0    0    0    0 -0.00000000000E+00 -0.00000000000E+00 -0.45593999997E+02  0.45594000000E+02  0.51100000000E-03 0.  1.
    9900012    2    1    2    0    0  0.30767062942E+02 -0.15653903073E+02  0.28938841479E+02  0.46142318857E+02  0.10000009997E+02 0.  0.
         12    1    1    2    0    0 -0.30767062942E+02  0.15653903073E+02 -0.28938841479E+02  0.45045681143E+02  0.00000000000E+00 0. -1.
         11    1    3    3    0    0 -0.39305865017E+00 -0.15598989297E+01  0.72212234667E+00  0.17633039210E+01  0.51100000000E-03 0. -1.
        -11    1    3    3    0    0  0.16867864946E+02 -0.83356605355E+01  0.14587924533E+02  0.23807890432E+02  0.51100000000E-03 0.  1.
        -12    1    3    3    0    0  0.14292256646E+02 -0.57583436082E+01  0.13628794599E+02  0.20571124504E+02  0.00000000000E+00 0.  1.
</event>
<event>
 7    1  0.2353206E-008  0.4614232E+02  0.7816164E-02  0.1320468E+00
        -11   -1    0    0    0    0  0.00000000000E+00  0.00000000000E+00  0.45593999997E+02  0.45594000000E+02  0.51100000000E-03 0. -1.
         11   -1    0    0    0    0 -0.00000000000E+00 -0.00000000000E+00 -0.45593999997E+02  0.45594000000E+02  0.51100000000E-03 0.  1.
    9900012    2    1    2    0    0  0.25802916273E+02  0.33644631164E+02  0.15210585612E+02  0.46142316422E+02  0.99999877877E+01 0.  0.
         12    1    1    2    0    0 -0.25802916273E+02 -0.33644631164E+02 -0.15210585612E+02  0.45045683578E+02  0.00000000000E+00 0. -1.
         11    1    3    3    0    0  0.43176829247E+01  0.40534447316E+01  0.28298498803E+01  0.65636004324E+01  0.51100000000E-03 0. -1.
        -11    1    3    3    0    0  0.99691741646E+01  0.19912792280E+02  0.97396999072E+01  0.24305667743E+02  0.51100000000E-03 0.  1.
        -12    1    3    3    0    0  0.11516059184E+02  0.96783941525E+01  0.26410358241E+01  0.15273048246E+02  0.00000000000E+00 0.  1.
</event>
<event>
 7    1  0.2353206E-008  0.4614232E+02  0.7816164E-02  0.1320468E+00
        -11   -1    0    0    0    0  0.00000000000E+00  0.00000000000E+00  0.45593999997E+02  0.45594000000E+02  0.51100000000E-03 0. -1.
         11   -1    0    0    0    0 -0.00000000000E+00 -0.00000000000E+00 -0.45593999997E+02  0.45594000000E+02  0.51100000000E-03 0.  1.
    9900012    2    1    2    0    0 -0.31116078096E+02 -0.31887512326E+02 -0.66400088787E+01  0.46142317894E+02  0.10000001214E+02 0.  0.
         12    1    1    2    0    0  0.31116078096E+02  0.31887512326E+02  0.66400088787E+01  0.45045682106E+02  0.00000000000E+00 0. -1.
         11    1    3    3    0    0 -0.19417840800E+02 -0.22843939780E+02 -0.64257078353E+01  0.30662482735E+02  0.51100000000E-03 0. -1.
        -11    1    3    3    0    0 -0.10010126738E+02 -0.70394713527E+01 -0.18709839255E+01  0.12379716287E+02  0.51100000000E-03 0.  1.
        -12    1    3    3    0    0 -0.16881105586E+01 -0.20041011933E+01  0.16566828820E+01  0.31001188723E+01  0.00000000000E+00 0.  1.
</event>
<event>
 7    1  0.2353206E-008  0.4614232E+02  0.7816164E-02  0.1320468E+00
        -11   -1    0    0    0    0  0.00000000000E+00  0.00000000000E+00  0.45593999997E+02  0.45594000000E+02  0.51100000000E-03 0.  1.
         11   -1    0    0    0    0 -0.00000000000E+00 -0.00000000000E+00 -0.45593999997E+02  0.45594000000E+02  0.51100000000E-03 0. -1.
    9900012    2    1    2    0    0  0.32548294310E+02 -0.89398309368E+01  0.29829540169E+02  0.46142317561E+02  0.99999981767E+01 0.  0.
         12    1    1    2    0    0 -0.32548294310E+02  0.89398309368E+01 -0.29829540169E+02  0.45045682439E+02  0.00000000000E+00 0. -1.
         11    1    3    3    0    0  0.28033771159E+01 -0.24152354759E+01  0.97619393957E+00  0.38269100495E+01  0.51100000000E-03 0. -1.
        -11    1    3    3    0    0  0.61000627994E+01 -0.36808219799E+01  0.71677215372E+01  0.10106208433E+02  0.51100000000E-03 0.  1.
        -12    1    3    3    0    0  0.23644854395E+02 -0.28437734810E+01  0.21685624693E+02  0.32209199078E+02  0.00000000000E+00 0.  1.
</event>
<event>
 7    1  0.2353206E-008  0.4614232E+02  0.7816164E-02  0.1320468E+00
        -11   -1    0    0    0    0  0.00000000000E+00  0.00000000000E+00  0.45593999997E+02  0.45594000000E+02  0.51100000000E-03 0.  1.
         11   -1    0    0    0    0 -0.00000000000E+00 -0.00000000000E+00 -0.45593999997E+02  0.45594000000E+02  0.51100000000E-03 0. -1.
    9900012    2    1    2    0    0 -0.28600634661E+02  0.61526421674E+01  0.34252913089E+02  0.46142319145E+02  0.10000012619E+02 0.  0.
         12    1    1    2    0    0  0.28600634661E+02 -0.61526421674E+01 -0.34252913089E+02  0.45045680855E+02  0.00000000000E+00 0. -1.
         11    1    3    3    0    0 -0.47281708719E+01  0.38487961572E+01  0.52479498613E+01  0.80442407759E+01  0.51100000000E-03 0. -1.
        -11    1    3    3    0    0 -0.18490738102E+02  0.42606670122E+01  0.22305577191E+02  0.29284799010E+02  0.51100000000E-03 0.  1.
        -12    1    3    3    0    0 -0.53817256864E+01 -0.19568210020E+01  0.66993860362E+01  0.88132793590E+01  0.00000000000E+00 0.  1.
</event>
<event>
 7    1  0.2353206E-008  0.4614232E+02  0.7816164E-02  0.1320468E+00
        -11   -1    0    0    0    0  0.00000000000E+00  0.00000000000E+00  0.45593999997E+02  0.45594000000E+02  0.51100000000E-03 0.  1.
         11   -1    0    0    0    0 -0.00000000000E+00 -0.00000000000E+00 -0.45593999997E+02  0.45594000000E+02  0.51100000000E-03 0. -1.
    9900012    2    1    2    0    0 -0.17568325735E+02  0.17582470278E+02  0.37567593536E+02  0.46142318584E+02  0.10000007500E+02 0.  0.
         12    1    1    2    0    0  0.17568325735E+02 -0.17582470278E+02 -0.37567593536E+02  0.45045681416E+02  0.00000000000E+00 0. -1.
         11    1    3    3    0    0 -0.33306759227E+01  0.81913381584E+01  0.87538094109E+01  0.12442692731E+02  0.51100000000E-03 0. -1.
        -11    1    3    3    0    0 -0.21151628722E+01  0.29189907697E+01  0.77817893053E+01  0.85761685002E+01  0.51100000000E-03 0.  1.
        -12    1    3    3    0    0 -0.12122486940E+02  0.64721413497E+01  0.21031994819E+02  0.25123457353E+02  0.00000000000E+00 0.  1.
</event>
<event>
 7    1  0.2353206E-008  0.4614232E+02  0.7816164E-02  0.1320468E+00
        -11   -1    0    0    0    0  0.00000000000E+00  0.00000000000E+00  0.45593999997E+02  0.45594000000E+02  0.51100000000E-03 0. -1.
         11   -1    0    0    0    0 -0.00000000000E+00 -0.00000000000E+00 -0.45593999997E+02  0.45594000000E+02  0.51100000000E-03 0.  1.
    9900012    2    1    2    0    0 -0.49703396500E+01  0.44145543851E+02 -0.74552107963E+01  0.46142317786E+02  0.10000000228E+02 0.  0.
         12    1    1    2    0    0  0.49703396500E+01 -0.44145543851E+02  0.74552107963E+01  0.45045682214E+02  0.00000000000E+00 0. -1.
         11    1    3    3    0    0 -0.46595045752E+01  0.33571869842E+02 -0.40174559592E+01  0.34130944614E+02  0.51100000000E-03 0.  1.
        -11    1    3    3    0    0 -0.15959668713E+01  0.33657601682E+01  0.39745217900E+00  0.37461206947E+01  0.51100000000E-03 0. -1.
        -12    1    3    3    0    0  0.12851317965E+01  0.72079138401E+01 -0.38352070160E+01  0.82652524775E+01  0.00000000000E+00 0.  1.
</event>
<event>
 7    1  0.2353206E-008  0.4614232E+02  0.7816164E-02  0.1320468E+00
        -11   -1    0    0    0    0  0.00000000000E+00  0.00000000000E+00  0.45593999997E+02  0.45594000000E+02  0.51100000000E-03 0. -1.
         11   -1    0    0    0    0 -0.00000000000E+00 -0.00000000000E+00 -0.45593999997E+02  0.45594000000E+02  0.51100000000E-03 0.  1.
    9900012    2    1    2    0    0 -0.23212703414E+02  0.37788760655E+02 -0.78926155182E+01  0.46142318616E+02  0.10000007796E+02 0.  0.
         12    1    1    2    0    0  0.23212703414E+02 -0.37788760655E+02  0.78926155182E+01  0.45045681384E+02  0.00000000000E+00 0. -1.
         11    1    3    3    0    0 -0.76253815915E+01  0.83938991884E+01 -0.16782456491E+01  0.11463877909E+02  0.51100000000E-03 0. -1.
        -11    1    3    3    0    0 -0.12416763040E+02  0.15481310593E+02 -0.37634782636E+01  0.20199276001E+02  0.51100000000E-03 0.  1.
        -12    1    3    3    0    0 -0.31705587820E+01  0.13913550874E+02 -0.24508916055E+01  0.14479164705E+02  0.00000000000E+00 0.  1.
</event>
<event>
 7    1  0.2353206E-008  0.4614232E+02  0.7816164E-02  0.1320468E+00
        -11   -1    0    0    0    0  0.00000000000E+00  0.00000000000E+00  0.45593999997E+02  0.45594000000E+02  0.51100000000E-03 0.  1.
         11   -1    0    0    0    0 -0.00000000000E+00 -0.00000000000E+00 -0.45593999997E+02  0.45594000000E+02  0.51100000000E-03 0. -1.
    9900012    2    1    2    0    0 -0.57612459822E+01 -0.32759910661E+02  0.30376133493E+02  0.46142321097E+02  0.10000030422E+02 0.  0.
         12    1    1    2    0    0  0.57612459822E+01  0.32759910661E+02 -0.30376133493E+02  0.45045678903E+02  0.00000000000E+00 0. -1.
         11    1    3    3    0    0  0.20007472745E+00 -0.69005879807E+01  0.53892905351E+01  0.87580018902E+01  0.51100000000E-03 0.  1.
        -11    1    3    3    0    0  0.90419162452E+00 -0.49476589170E+00 -0.12390492174E+00  0.10381273873E+01  0.51100000000E-03 0. -1.
        -12    1    3    3    0    0 -0.68655123342E+01 -0.25364556789E+02  0.25110747880E+02  0.36346191820E+02  0.00000000000E+00 0.  1.
</event>
<event>
 7    1  0.2353206E-008  0.4614232E+02  0.7816164E-02  0.1320468E+00
        -11   -1    0    0    0    0  0.00000000000E+00  0.00000000000E+00  0.45593999997E+02  0.45594000000E+02  0.51100000000E-03 0.  1.
         11   -1    0    0    0    0 -0.00000000000E+00 -0.00000000000E+00 -0.45593999997E+02  0.45594000000E+02  0.51100000000E-03 0. -1.
    9900012    2    1    2    0    0 -0.22182635691E+02  0.86186351165E+01  0.38246089711E+02  0.46142316792E+02  0.99999911616E+01 0.  0.
         12    1    1    2    0    0  0.22182635691E+02 -0.86186351165E+01 -0.38246089711E+02  0.45045683208E+02  0.00000000000E+00 0. -1.
         11    1    3    3    0    0 -0.52799027023E+01  0.36930479754E+00  0.10777728002E+02  0.12007213654E+02  0.51100000000E-03 0. -1.
        -11    1    3    3    0    0 -0.25313972008E+01  0.15628845537E+01  0.10507628785E+02  0.10920661284E+02  0.51100000000E-03 0.  1.
        -12    1    3    3    0    0 -0.14371335788E+02  0.66864457652E+01  0.16960732924E+02  0.23214441855E+02  0.00000000000E+00 0.  1.
</event>
<event>
 7    1  0.2353206E-008  0.4614232E+02  0.7816164E-02  0.1320468E+00
        -11   -1    0    0    0    0  0.00000000000E+00  0.00000000000E+00  0.45593999997E+02  0.45594000000E+02  0.51100000000E-03 0.  1.
         11   -1    0    0    0    0 -0.00000000000E+00 -0.00000000000E+00 -0.45593999997E+02  0.45594000000E+02  0.51100000000E-03 0. -1.
    9900012    2    1    2    0    0 -0.41971578697E+02  0.86154238113E+01 -0.13902318663E+02  0.46142318631E+02  0.10000007934E+02 0.  0.
         12    1    1    2    0    0  0.41971578697E+02 -0.86154238113E+01  0.13902318663E+02  0.45045681369E+02  0.00000000000E+00 0. -1.
         11    1    3    3    0    0 -0.76712511719E+01 -0.18890739269E+01 -0.26711863002E+01  0.83397800543E+01  0.51100000000E-03 0. -1.
        -11    1    3    3    0    0 -0.23198155803E+02  0.51196992655E+01 -0.73499900278E+01  0.24867410538E+02  0.51100000000E-03 0.  1.
        -12    1    3    3    0    0 -0.11102171722E+02  0.53847984727E+01 -0.38811423353E+01  0.12935128038E+02  0.00000000000E+00 0.  1.
</event>
<event>
 7    1  0.2353206E-008  0.4614232E+02  0.7816164E-02  0.1320468E+00
        -11   -1    0    0    0    0  0.00000000000E+00  0.00000000000E+00  0.45593999997E+02  0.45594000000E+02  0.51100000000E-03 0.  1.
         11   -1    0    0    0    0 -0.00000000000E+00 -0.00000000000E+00 -0.45593999997E+02  0.45594000000E+02  0.51100000000E-03 0. -1.
    9900012    2    1    2    0    0 -0.42200241517E+02  0.99268901931E+00 -0.15724748562E+02  0.46142317267E+02  0.99999954952E+01 0.  0.
         12    1    1    2    0    0  0.42200241517E+02 -0.99268901931E+00  0.15724748562E+02  0.45045682733E+02  0.00000000000E+00 0. -1.
         11    1    3    3    0    0 -0.34049413384E+01  0.18869360372E+01 -0.12847546015E+01  0.40993594345E+01  0.51100000000E-03 0. -1.
        -11    1    3    3    0    0 -0.17657410043E+02 -0.25784575023E+01 -0.97158028684E+01  0.20318203615E+02  0.51100000000E-03 0.  1.
         12    1    3    3    0    0 -0.21137890136E+02  0.16842104844E+01 -0.47241910918E+01  0.21724754218E+02  0.00000000000E+00 0. -1.
</event>
<event>
 7    1  0.2353206E-008  0.4614232E+02  0.7816164E-02  0.1320468E+00
        -11   -1    0    0    0    0  0.00000000000E+00  0.00000000000E+00  0.45593999997E+02  0.45594000000E+02  0.51100000000E-03 0.  1.
         11   -1    0    0    0    0 -0.00000000000E+00 -0.00000000000E+00 -0.45593999997E+02  0.45594000000E+02  0.51100000000E-03 0. -1.
    9900012    2    1    2    0    0  0.16381932106E+02 -0.37160437681E+02  0.19489680682E+02  0.46142317840E+02  0.10000000722E+02 0.  0.
         12    1    1    2    0    0 -0.16381932106E+02  0.37160437681E+02 -0.19489680682E+02  0.45045682160E+02  0.00000000000E+00 0. -1.
         11    1    3    3    0    0  0.84824297514E+00 -0.75834594523E+01  0.38656190367E+01  0.85540273677E+01  0.51100000000E-03 0. -1.
        -11    1    3    3    0    0  0.87984994703E+01 -0.11412211057E+02  0.95412201198E+01  0.17282564502E+02  0.51100000000E-03 0.  1.
        -12    1    3    3    0    0  0.67351896605E+01 -0.18164767171E+02  0.60828415250E+01  0.20305725970E+02  0.00000000000E+00 0.  1.
</event>
<event>
 7    1  0.2353206E-008  0.4614232E+02  0.7816164E-02  0.1320468E+00
        -11   -1    0    0    0    0  0.00000000000E+00  0.00000000000E+00  0.45593999997E+02  0.45594000000E+02  0.51100000000E-03 0.  1.
         11   -1    0    0    0    0 -0.00000000000E+00 -0.00000000000E+00 -0.45593999997E+02  0.45594000000E+02  0.51100000000E-03 0. -1.
    9900012    2    1    2    0    0  0.23290243777E+01 -0.78716264223E+01  0.44291383110E+02  0.46142317911E+02  0.10000001364E+02 0.  0.
         12    1    1    2    0    0 -0.23290243777E+01  0.78716264223E+01 -0.44291383110E+02  0.45045682089E+02  0.00000000000E+00 0. -1.
         11    1    3    3    0    0  0.11303143133E+01 -0.38615020458E+01  0.50324447997E+01  0.64431598940E+01  0.51100000000E-03 0. -1.
        -11    1    3    3    0    0  0.79378163714E+00  0.66967213192E+00  0.41781473527E+01  0.43052834534E+01  0.51100000000E-03 0.  1.
        -12    1    3    3    0    0  0.40492842729E+00 -0.46797965084E+01  0.35080790958E+02  0.35393874563E+02  0.00000000000E+00 0.  1.
</event>
<event>
 7    1  0.2353206E-008  0.4614232E+02  0.7816164E-02  0.1320468E+00
        -11   -1    0    0    0    0  0.00000000000E+00  0.00000000000E+00  0.45593999997E+02  0.45594000000E+02  0.51100000000E-03 0.  1.
         11   -1    0    0    0    0 -0.00000000000E+00 -0.00000000000E+00 -0.45593999997E+02  0.45594000000E+02  0.51100000000E-03 0. -1.
    9900012    2    1    2    0    0  0.44023574340E+02 -0.48673663738E+01 -0.82065283659E+01  0.46142318066E+02  0.10000002779E+02 0.  0.
         12    1    1    2    0    0 -0.44023574340E+02  0.48673663738E+01  0.82065283659E+01  0.45045681934E+02  0.00000000000E+00 0. -1.
         11    1    3    3    0    0  0.35289033880E+02 -0.17086888236E+01 -0.36329423935E+01  0.35516669331E+02  0.51100000000E-03 0. -1.
        -11    1    3    3    0    0  0.61542376752E+01 -0.30120217942E+01 -0.24366592035E+01  0.72721540816E+01  0.51100000000E-03 0.  1.
         12    1    3    3    0    0  0.25803027848E+01 -0.14665575608E+00 -0.21369267689E+01  0.33534946530E+01  0.00000000000E+00 0. -1.
</event>
<event>
 7    1  0.2353206E-008  0.4614232E+02  0.7816164E-02  0.1320468E+00
        -11   -1    0    0    0    0  0.00000000000E+00  0.00000000000E+00  0.45593999997E+02  0.45594000000E+02  0.51100000000E-03 0.  1.
         11   -1    0    0    0    0 -0.00000000000E+00 -0.00000000000E+00 -0.45593999997E+02  0.45594000000E+02  0.51100000000E-03 0. -1.
    9900012    2    1    2    0    0  0.51542147595E+01 -0.27027899068E+02  0.35665672545E+02  0.46142318121E+02  0.10000003285E+02 0.  0.
         12    1    1    2    0    0 -0.51542147595E+01  0.27027899068E+02 -0.35665672545E+02  0.45045681879E+02  0.00000000000E+00 0. -1.
         11    1    3    3    0    0  0.40112322111E+01 -0.20046274638E+02  0.24700056741E+02  0.32062999142E+02  0.51100000000E-03 0. -1.
        -11    1    3    3    0    0  0.14379267205E+01 -0.58743027251E+01  0.11358259271E+02  0.12867988176E+02  0.51100000000E-03 0.  1.
         12    1    3    3    0    0 -0.29494417205E+00 -0.11073217055E+01 -0.39264346711E+00  0.12113308039E+01  0.00000000000E+00 0. -1.
</event>
<event>
 7    1  0.2353206E-008  0.4614232E+02  0.7816164E-02  0.1320468E+00
        -11   -1    0    0    0    0  0.00000000000E+00  0.00000000000E+00  0.45593999997E+02  0.45594000000E+02  0.51100000000E-03 0.  1.
         11   -1    0    0    0    0 -0.00000000000E+00 -0.00000000000E+00 -0.45593999997E+02  0.45594000000E+02  0.51100000000E-03 0. -1.
    9900012    2    1    2    0    0 -0.18765551209E+02  0.40946718415E+02  0.57786729789E+00  0.46142316614E+02  0.99999895398E+01 0.  0.
         12    1    1    2    0    0  0.18765551209E+02 -0.40946718415E+02 -0.57786729789E+00  0.45045683386E+02  0.00000000000E+00 0. -1.
         11    1    3    3    0    0 -0.38483328262E+01  0.90501854889E+01 -0.32415364611E+01  0.10354857885E+02  0.51100000000E-03 0. -1.
        -11    1    3    3    0    0 -0.17702187964E+01  0.31804479149E+01 -0.11480097959E+01  0.38166543306E+01  0.51100000000E-03 0.  1.
        -12    1    3    3    0    0 -0.13146999586E+02  0.28716085011E+02  0.49674135549E+01  0.31970804399E+02  0.00000000000E+00 0.  1.
</event>
<event>
 7    1  0.2353206E-008  0.4614232E+02  0.7816164E-02  0.1320468E+00
        -11   -1    0    0    0    0  0.00000000000E+00  0.00000000000E+00  0.45593999997E+02  0.45594000000E+02  0.51100000000E-03 0.  1.
         11   -1    0    0    0    0 -0.00000000000E+00 -0.00000000000E+00 -0.45593999997E+02  0.45594000000E+02  0.51100000000E-03 0. -1.
    9900012    2    1    2    0    0  0.21964133479E+02 -0.22138749237E+02  0.32504862749E+02  0.46142317859E+02  0.10000000892E+02 0.  0.
         12    1    1    2    0    0 -0.21964133479E+02  0.22138749237E+02 -0.32504862749E+02  0.45045682141E+02  0.00000000000E+00 0. -1.
         11    1    3    3    0    0  0.15390163418E+00  0.11561107675E+00 -0.35085872791E+00  0.40019213154E+00  0.51100000000E-03 0. -1.
        -11    1    3    3    0    0  0.94701066095E+01 -0.14271036103E+02  0.17812977297E+02  0.24711283882E+02  0.51100000000E-03 0.  1.
         12    1    3    3    0    0  0.12340125235E+02 -0.79833242103E+01  0.15042744180E+02  0.21030841845E+02  0.00000000000E+00 0. -1.
</event>
<event>
 7    1  0.2353206E-008  0.4614233E+02  0.7816164E-02  0.1320468E+00
        -11   -1    0    0    0    0  0.00000000000E+00  0.00000000000E+00  0.45593999997E+02  0.45594000000E+02  0.51100000000E-03 0.  1.
         11   -1    0    0    0    0 -0.00000000000E+00 -0.00000000000E+00 -0.45593999997E+02  0.45594000000E+02  0.51100000000E-03 0. -1.
    9900012    2    1    2    0    0  0.25861087112E+02 -0.47477034267E+01  0.36575624345E+02  0.46142325283E+02  0.10000068589E+02 0.  0.
         12    1    1    2    0    0 -0.25861087112E+02  0.47477034267E+01 -0.36575624345E+02  0.45045674717E+02  0.00000000000E+00 0. -1.
         11    1    3    3    0    0  0.65960436057E+01 -0.30488888205E+01  0.75072048816E+01  0.10448044778E+02  0.51100000000E-03 0.  1.
        -11    1    3    3    0    0  0.94356983751E+01 -0.44812181257E+01  0.13412084717E+02  0.16999933424E+02  0.51100000000E-03 0. -1.
        -12    1    3    3    0    0  0.98293451317E+01  0.27824035196E+01  0.15656334747E+02  0.18694347081E+02  0.00000000000E+00 0.  1.
</event>
<event>
 7    1  0.2353206E-008  0.4614232E+02  0.7816164E-02  0.1320468E+00
        -11   -1    0    0    0    0  0.00000000000E+00  0.00000000000E+00  0.45593999997E+02  0.45594000000E+02  0.51100000000E-03 0.  1.
         11   -1    0    0    0    0 -0.00000000000E+00 -0.00000000000E+00 -0.45593999997E+02  0.45594000000E+02  0.51100000000E-03 0. -1.
    9900012    2    1    2    0    0 -0.24454116461E+02  0.32270992200E+02  0.19740638509E+02  0.46142316985E+02  0.99999929255E+01 0.  0.
         12    1    1    2    0    0  0.24454116461E+02 -0.32270992200E+02 -0.19740638509E+02  0.45045683015E+02  0.00000000000E+00 0. -1.
         11    1    3    3    0    0 -0.18667174499E+02  0.21280815460E+02  0.12966749215E+02  0.31136362920E+02  0.51100000000E-03 0. -1.
        -11    1    3    3    0    0 -0.32618524923E+01  0.10137664256E+02  0.47568225940E+01  0.11663587772E+02  0.51100000000E-03 0.  1.
         12    1    3    3    0    0 -0.25250894704E+01  0.85251248431E+00  0.20170667005E+01  0.33423662940E+01  0.00000000000E+00 0. -1.
</event>
<event>
 7    1  0.2353206E-008  0.4614232E+02  0.7816164E-02  0.1320468E+00
        -11   -1    0    0    0    0  0.00000000000E+00  0.00000000000E+00  0.45593999997E+02  0.45594000000E+02  0.51100000000E-03 0.  1.
         11   -1    0    0    0    0 -0.00000000000E+00 -0.00000000000E+00 -0.45593999997E+02  0.45594000000E+02  0.51100000000E-03 0. -1.
    9900012    2    1    2    0    0 -0.23855227944E+02 -0.24945644626E+02  0.28944020588E+02  0.46142318588E+02  0.10000007542E+02 0.  0.
         12    1    1    2    0    0  0.23855227944E+02  0.24945644626E+02 -0.28944020588E+02  0.45045681412E+02  0.00000000000E+00 0. -1.
         11    1    3    3    0    0 -0.78602828986E+01 -0.14316678550E+02  0.16322393857E+02  0.23090514793E+02  0.51100000000E-03 0.  1.
        -11    1    3    3    0    0 -0.26290448419E+01 -0.98554910489E+00  0.18123162525E+01  0.33418070380E+01  0.51100000000E-03 0. -1.
        -12    1    3    3    0    0 -0.13365900204E+02 -0.96434169708E+01  0.10809310479E+02  0.19709996757E+02  0.00000000000E+00 0.  1.
</event>
<event>
 7    1  0.2353206E-008  0.4614232E+02  0.7816164E-02  0.1320468E+00
        -11   -1    0    0    0    0  0.00000000000E+00  0.00000000000E+00  0.45593999997E+02  0.45594000000E+02  0.51100000000E-03 0.  1.
         11   -1    0    0    0    0 -0.00000000000E+00 -0.00000000000E+00 -0.45593999997E+02  0.45594000000E+02  0.51100000000E-03 0. -1.
    9900012    2    1    2    0    0  0.12504940638E+02  0.17480498381E+02  0.39587524918E+02  0.46142317708E+02  0.99999995185E+01 0.  0.
         12    1    1    2    0    0 -0.12504940638E+02 -0.17480498381E+02 -0.39587524918E+02  0.45045682292E+02  0.00000000000E+00 0. -1.
         11    1    3    3    0    0  0.27715414166E+01  0.50601126995E+01  0.46789049961E+01  0.74282120715E+01  0.51100000000E-03 0. -1.
        -11    1    3    3    0    0  0.24665105599E+01  0.72375168007E+01  0.18846607359E+02  0.20338631542E+02  0.51100000000E-03 0.  1.
         12    1    3    3    0    0  0.72668886618E+01  0.51828688807E+01  0.16062012562E+02  0.18375474095E+02  0.00000000000E+00 0. -1.
</event>
<event>
 7    1  0.2353206E-008  0.4614232E+02  0.7816164E-02  0.1320468E+00
        -11   -1    0    0    0    0  0.00000000000E+00  0.00000000000E+00  0.45593999997E+02  0.45594000000E+02  0.51100000000E-03 0. -1.
         11   -1    0    0    0    0 -0.00000000000E+00 -0.00000000000E+00 -0.45593999997E+02  0.45594000000E+02  0.51100000000E-03 0.  1.
    9900012    2    1    2    0    0  0.37742276823E+02 -0.24108917592E+02 -0.48367450445E+01  0.46142317966E+02  0.10000001872E+02 0.  0.
         12    1    1    2    0    0 -0.37742276823E+02  0.24108917592E+02  0.48367450445E+01  0.45045682034E+02  0.00000000000E+00 0. -1.
         11    1    3    3    0    0  0.14231099300E+02 -0.12234738578E+02 -0.32624521363E+01  0.19048795488E+02  0.51100000000E-03 0. -1.
        -11    1    3    3    0    0  0.12700204260E+02 -0.45439311943E+01 -0.33849761373E+01  0.13906853082E+02  0.51100000000E-03 0.  1.
         12    1    3    3    0    0  0.10810973264E+02 -0.73302478192E+01  0.18106832291E+01  0.13186669396E+02  0.00000000000E+00 0. -1.
</event>
<event>
 7    1  0.2353206E-008  0.4614232E+02  0.7816164E-02  0.1320468E+00
        -11   -1    0    0    0    0  0.00000000000E+00  0.00000000000E+00  0.45593999997E+02  0.45594000000E+02  0.51100000000E-03 0.  1.
         11   -1    0    0    0    0 -0.00000000000E+00 -0.00000000000E+00 -0.45593999997E+02  0.45594000000E+02  0.51100000000E-03 0. -1.
    9900012    2    1    2    0    0  0.41312425157E+02  0.16249417927E+02  0.76389423252E+01  0.46142317685E+02  0.99999993066E+01 0.  0.
         12    1    1    2    0    0 -0.41312425157E+02 -0.16249417927E+02 -0.76389423252E+01  0.45045682315E+02  0.00000000000E+00 0. -1.
         11    1    3    3    0    0  0.10708300876E+01  0.38686989758E+00  0.43198917274E+00  0.12177685744E+01  0.51100000000E-03 0.  1.
        -11    1    3    3    0    0  0.39953236847E+02  0.15950253271E+02  0.57090232705E+01  0.43396597343E+02  0.51100000000E-03 0. -1.
         12    1    3    3    0    0  0.28835822266E+00 -0.87705240856E-01  0.14979298820E+01  0.15279517679E+01  0.00000000000E+00 0. -1.
</event>
<event>
 7    1  0.2353206E-008  0.4614232E+02  0.7816164E-02  0.1320468E+00
        -11   -1    0    0    0    0  0.00000000000E+00  0.00000000000E+00  0.45593999997E+02  0.45594000000E+02  0.51100000000E-03 0.  1.
         11   -1    0    0    0    0 -0.00000000000E+00 -0.00000000000E+00 -0.45593999997E+02  0.45594000000E+02  0.51100000000E-03 0. -1.
    9900012    2    1    2    0    0 -0.18550828435E+02 -0.53191336108E+01  0.40702420500E+02  0.46142318159E+02  0.10000003626E+02 0.  0.
         12    1    1    2    0    0  0.18550828435E+02  0.53191336108E+01 -0.40702420500E+02  0.45045681841E+02  0.00000000000E+00 0. -1.
         11    1    3    3    0    0 -0.87243273164E-01 -0.23674896210E+01  0.46010271712E+01  0.51751395910E+01  0.51100000000E-03 0. -1.
        -11    1    3    3    0    0 -0.22524524743E+01 -0.19751154658E+01  0.75061430991E+01  0.80818814479E+01  0.51100000000E-03 0.  1.
         12    1    3    3    0    0 -0.16211132687E+02 -0.97652852395E+00  0.28595250230E+02  0.32885297120E+02  0.00000000000E+00 0. -1.
</event>
<event>
 7    1  0.2353206E-008  0.4614232E+02  0.7816164E-02  0.1320468E+00
        -11   -1    0    0    0    0  0.00000000000E+00  0.00000000000E+00  0.45593999997E+02  0.45594000000E+02  0.51100000000E-03 0. -1.
         11   -1    0    0    0    0 -0.00000000000E+00 -0.00000000000E+00 -0.45593999997E+02  0.45594000000E+02  0.51100000000E-03 0.  1.
    9900012    2    1    2    0    0  0.25162595998E+02  0.35378847039E+02  0.12012258721E+02  0.46142318578E+02  0.10000007447E+02 0.  0.
         12    1    1    2    0    0 -0.25162595998E+02 -0.35378847039E+02 -0.12012258721E+02  0.45045681422E+02  0.00000000000E+00 0. -1.
         11    1    3    3    0    0  0.11047391219E+02  0.18813240374E+02  0.42226784038E+01  0.22221923393E+02  0.51100000000E-03 0. -1.
        -11    1    3    3    0    0  0.87918001858E+01  0.14351476143E+02  0.53524740057E+01  0.17660962495E+02  0.51100000000E-03 0.  1.
         12    1    3    3    0    0  0.53234045929E+01  0.22141305227E+01  0.24371063115E+01  0.62594326904E+01  0.00000000000E+00 0. -1.
</event>
<event>
 7    1  0.2353206E-008  0.4614232E+02  0.7816164E-02  0.1320468E+00
        -11   -1    0    0    0    0  0.00000000000E+00  0.00000000000E+00  0.45593999997E+02  0.45594000000E+02  0.51100000000E-03 0. -1.
         11   -1    0    0    0    0 -0.00000000000E+00 -0.00000000000E+00 -0.45593999997E+02  0.45594000000E+02  0.51100000000E-03 0.  1.
    9900012    2    1    2    0    0 -0.19471127889E+02 -0.32670166734E+02  0.24138120242E+02  0.46142318026E+02  0.10000002415E+02 0.  0.
         12    1    1    2    0    0  0.19471127889E+02  0.32670166734E+02 -0.24138120242E+02  0.45045681974E+02  0.00000000000E+00 0. -1.
         11    1    3    3    0    0 -0.56824378374E+01 -0.83992700422E+01  0.84474217712E+01  0.13198362469E+02  0.51100000000E-03 0. -1.
        -11    1    3    3    0    0 -0.14152158359E+02 -0.19342193949E+02  0.12198338149E+02  0.26892443304E+02  0.51100000000E-03 0.  1.
         12    1    3    3    0    0  0.36346830757E+00 -0.49287027430E+01  0.34923603210E+01  0.60515122532E+01  0.00000000000E+00 0. -1.
</event>
<event>
 7    1  0.2353206E-008  0.4614231E+02  0.7816164E-02  0.1320468E+00
        -11   -1    0    0    0    0  0.00000000000E+00  0.00000000000E+00  0.45593999997E+02  0.45594000000E+02  0.51100000000E-03 0. -1.
         11   -1    0    0    0    0 -0.00000000000E+00 -0.00000000000E+00 -0.45593999997E+02  0.45594000000E+02  0.51100000000E-03 0.  1.
    9900012    2    1    2    0    0 -0.20453340953E+02 -0.39405562565E+02 -0.76142621592E+01  0.46142306471E+02  0.99998970503E+01 0.  0.
         12    1    1    2    0    0  0.20453340953E+02  0.39405562565E+02  0.76142621592E+01  0.45045693529E+02  0.00000000000E+00 0. -1.
         11    1    3    3    0    0 -0.80513457328E+01 -0.16746724674E+02 -0.38293580844E+00  0.18585574931E+02  0.51100000000E-03 0. -1.
        -11    1    3    3    0    0 -0.33026784907E+01 -0.10822931105E+02 -0.93578564845E+00  0.11354259904E+02  0.51100000000E-03 0.  1.
         12    1    3    3    0    0 -0.90993167298E+01 -0.11835906786E+02 -0.62955407023E+01  0.16202471636E+02  0.00000000000E+00 0. -1.
</event>
<event>
 7    1  0.2353206E-008  0.4614232E+02  0.7816164E-02  0.1320468E+00
        -11   -1    0    0    0    0  0.00000000000E+00  0.00000000000E+00  0.45593999997E+02  0.45594000000E+02  0.51100000000E-03 0.  1.
         11   -1    0    0    0    0 -0.00000000000E+00 -0.00000000000E+00 -0.45593999997E+02  0.45594000000E+02  0.51100000000E-03 0. -1.
    9900012    2    1    2    0    0 -0.27146760084E+02 -0.68835900526E+01  0.35281484137E+02  0.46142317433E+02  0.99999970037E+01 0.  0.
         12    1    1    2    0    0  0.27146760084E+02  0.68835900526E+01 -0.35281484137E+02  0.45045682567E+02  0.00000000000E+00 0. -1.
         11    1    3    3    0    0 -0.36128183885E+01 -0.12462139949E+01  0.88760987262E+01  0.96638830130E+01  0.51100000000E-03 0. -1.
        -11    1    3    3    0    0 -0.91863719226E+01  0.11163285983E+01  0.10924552056E+02  0.14317173482E+02  0.51100000000E-03 0.  1.
        -12    1    3    3    0    0 -0.14347569773E+02 -0.67537046561E+01  0.15480833355E+02  0.22161260937E+02  0.00000000000E+00 0.  1.
</event>
<event>
 7    1  0.2353206E-008  0.4614232E+02  0.7816164E-02  0.1320468E+00
        -11   -1    0    0    0    0  0.00000000000E+00  0.00000000000E+00  0.45593999997E+02  0.45594000000E+02  0.51100000000E-03 0.  1.
         11   -1    0    0    0    0 -0.00000000000E+00 -0.00000000000E+00 -0.45593999997E+02  0.45594000000E+02  0.51100000000E-03 0. -1.
    9900012    2    1    2    0    0 -0.10530308938E+02 -0.70467278897E+00  0.43791890428E+02  0.46142316107E+02  0.99999849197E+01 0.  0.
         12    1    1    2    0    0  0.10530308938E+02  0.70467278897E+00 -0.43791890428E+02  0.45045683893E+02  0.00000000000E+00 0. -1.
         11    1    3    3    0    0 -0.30325760488E+01 -0.15365145877E+01  0.88480928102E+01  0.94787204415E+01  0.51100000000E-03 0. -1.
        -11    1    3    3    0    0 -0.51547185976E+01  0.14409505773E+01  0.33323277047E+02  0.33750381566E+02  0.51100000000E-03 0.  1.
         12    1    3    3    0    0 -0.23430142913E+01 -0.60910877852E+00  0.16205205710E+01  0.29132141003E+01  0.00000000000E+00 0. -1.
</event>
<event>
 7    1  0.2353206E-008  0.4614232E+02  0.7816164E-02  0.1320468E+00
        -11   -1    0    0    0    0  0.00000000000E+00  0.00000000000E+00  0.45593999997E+02  0.45594000000E+02  0.51100000000E-03 0.  1.
         11   -1    0    0    0    0 -0.00000000000E+00 -0.00000000000E+00 -0.45593999997E+02  0.45594000000E+02  0.51100000000E-03 0. -1.
    9900012    2    1    2    0    0 -0.50160947197E+01 -0.35397129524E+02  0.27404297496E+02  0.46142317565E+02  0.99999982083E+01 0.  0.
         12    1    1    2    0    0  0.50160947197E+01  0.35397129524E+02 -0.27404297496E+02  0.45045682435E+02  0.00000000000E+00 0. -1.
         11    1    3    3    0    0 -0.29823896516E+01 -0.22676398740E+01  0.29105789633E+01  0.47442922333E+01  0.51100000000E-03 0. -1.
        -11    1    3    3    0    0 -0.13669957859E+01 -0.22489662964E+02  0.18599775599E+02  0.29216523926E+02  0.51100000000E-03 0.  1.
         12    1    3    3    0    0 -0.66670928228E+00 -0.10639826686E+02  0.58939429335E+01  0.12181501405E+02  0.00000000000E+00 0. -1.
</event>
<event>
 7    1  0.2353206E-008  0.4614233E+02  0.7816164E-02  0.1320468E+00
        -11   -1    0    0    0    0  0.00000000000E+00  0.00000000000E+00  0.45593999997E+02  0.45594000000E+02  0.51100000000E-03 0.  1.
         11   -1    0    0    0    0 -0.00000000000E+00 -0.00000000000E+00 -0.45593999997E+02  0.45594000000E+02  0.51100000000E-03 0. -1.
    9900012    2    1    2    0    0 -0.16634279757E+02 -0.39648985239E+02  0.13430246575E+02  0.46142325218E+02  0.10000067999E+02 0.  0.
         12    1    1    2    0    0  0.16634279757E+02  0.39648985239E+02 -0.13430246575E+02  0.45045674782E+02  0.00000000000E+00 0. -1.
         11    1    3    3    0    0 -0.48734143273E+01 -0.10433394577E+02 -0.58803318197E-01  0.11515613214E+02  0.51100000000E-03 0. -1.
        -11    1    3    3    0    0 -0.88482867277E+01 -0.16544031204E+02  0.64351902912E+01  0.19834536064E+02  0.51100000000E-03 0.  1.
         12    1    3    3    0    0 -0.29125787023E+01 -0.12671559457E+02  0.70538596018E+01  0.14792175941E+02  0.00000000000E+00 0. -1.
</event>
<event>
 7    1  0.2353206E-008  0.4614232E+02  0.7816164E-02  0.1320468E+00
        -11   -1    0    0    0    0  0.00000000000E+00  0.00000000000E+00  0.45593999997E+02  0.45594000000E+02  0.51100000000E-03 0. -1.
         11   -1    0    0    0    0 -0.00000000000E+00 -0.00000000000E+00 -0.45593999997E+02  0.45594000000E+02  0.51100000000E-03 0.  1.
    9900012    2    1    2    0    0  0.17396819134E+02  0.16348624378E+02 -0.38199301111E+02  0.46142318294E+02  0.10000004856E+02 0.  0.
         12    1    1    2    0    0 -0.17396819134E+02 -0.16348624378E+02  0.38199301111E+02  0.45045681706E+02  0.00000000000E+00 0. -1.
         11    1    3    3    0    0  0.10715133564E+01 -0.11483854094E+01 -0.39118190272E+01  0.42153598049E+01  0.51100000000E-03 0.  1.
        -11    1    3    3    0    0  0.10567231233E+01  0.25097405443E+01 -0.34750799860E+01  0.44149340345E+01  0.51100000000E-03 0. -1.
        -12    1    3    3    0    0  0.15268582654E+02  0.14987269243E+02 -0.30812402098E+02  0.37512024454E+02  0.00000000000E+00 0.  1.
</event>
<event>
 7    1  0.2353206E-008  0.4614232E+02  0.7816164E-02  0.1320468E+00
        -11   -1    0    0    0    0  0.00000000000E+00  0.00000000000E+00  0.45593999997E+02  0.45594000000E+02  0.51100000000E-03 0.  1.
         11   -1    0    0    0    0 -0.00000000000E+00 -0.00000000000E+00 -0.45593999997E+02  0.45594000000E+02  0.51100000000E-03 0. -1.
    9900012    2    1    2    0    0 -0.12583879573E+02  0.28348039962E+02  0.32667233483E+02  0.46142317207E+02  0.99999949492E+01 0.  0.
         12    1    1    2    0    0  0.12583879573E+02 -0.28348039962E+02 -0.32667233483E+02  0.45045682793E+02  0.00000000000E+00 0. -1.
         11    1    3    3    0    0 -0.49111491915E+01  0.18133615267E+02  0.19253840426E+02  0.26900887726E+02  0.51100000000E-03 0.  1.
        -11    1    3    3    0    0 -0.67359335393E+00  0.25071646411E+01  0.57661336360E+01  0.63235986521E+01  0.51100000000E-03 0. -1.
         12    1    3    3    0    0 -0.69991370276E+01  0.77072600546E+01  0.76472594214E+01  0.12917830829E+02  0.00000000000E+00 0. -1.
</event>
<event>
 7    1  0.2353206E-008  0.4614231E+02  0.7816164E-02  0.1320468E+00
        -11   -1    0    0    0    0  0.00000000000E+00  0.00000000000E+00  0.45593999997E+02  0.45594000000E+02  0.51100000000E-03 0. -1.
         11   -1    0    0    0    0 -0.00000000000E+00 -0.00000000000E+00 -0.45593999997E+02  0.45594000000E+02  0.51100000000E-03 0.  1.
    9900012    2    1    2    0    0 -0.43897328739E+02  0.78880535536E+01  0.63180367258E+01  0.46142307117E+02  0.99999029356E+01 0.  0.
         12    1    1    2    0    0  0.43897328739E+02 -0.78880535536E+01 -0.63180367258E+01  0.45045692883E+02  0.00000000000E+00 0. -1.
         11    1    3    3    0    0  0.93226138212E-01  0.23810994043E+00  0.63428362951E+00  0.68388847070E+00  0.51100000000E-03 0. -1.
        -11    1    3    3    0    0 -0.12352422146E+02 -0.56552048418E+00  0.61769595563E+00  0.12380779250E+02  0.51100000000E-03 0.  1.
        -12    1    3    3    0    0 -0.31638132731E+02  0.82154640973E+01  0.50660571406E+01  0.33077639396E+02  0.00000000000E+00 0.  1.
</event>
<event>
 7    1  0.2353206E-008  0.4614232E+02  0.7816164E-02  0.1320468E+00
        -11   -1    0    0    0    0  0.00000000000E+00  0.00000000000E+00  0.45593999997E+02  0.45594000000E+02  0.51100000000E-03 0. -1.
         11   -1    0    0    0    0 -0.00000000000E+00 -0.00000000000E+00 -0.45593999997E+02  0.45594000000E+02  0.51100000000E-03 0.  1.
    9900012    2    1    2    0    0 -0.18860591255E+02  0.40885663423E+02 -0.13244141513E+01  0.46142318199E+02  0.10000003995E+02 0.  0.
         12    1    1    2    0    0  0.18860591255E+02 -0.40885663423E+02  0.13244141513E+01  0.45045681801E+02  0.00000000000E+00 0. -1.
         11    1    3    3    0    0 -0.15878763504E+02  0.31650651541E+02 -0.28252760835E+01  0.35522965228E+02  0.51100000000E-03 0. -1.
        -11    1    3    3    0    0 -0.23603139916E+01  0.76673411054E+01 -0.45690275641E+00  0.80354192271E+01  0.51100000000E-03 0.  1.
         12    1    3    3    0    0 -0.62151375974E+00  0.15676707765E+01  0.19577646886E+01  0.25839337439E+01  0.00000000000E+00 0. -1.
</event>
<event>
 7    1  0.2353206E-008  0.4614232E+02  0.7816164E-02  0.1320468E+00
        -11   -1    0    0    0    0  0.00000000000E+00  0.00000000000E+00  0.45593999997E+02  0.45594000000E+02  0.51100000000E-03 0. -1.
         11   -1    0    0    0    0 -0.00000000000E+00 -0.00000000000E+00 -0.45593999997E+02  0.45594000000E+02  0.51100000000E-03 0.  1.
    9900012    2    1    2    0    0  0.32281440717E+02  0.74370321832E+01  0.30523967770E+02  0.46142317955E+02  0.10000001768E+02 0.  0.
         12    1    1    2    0    0 -0.32281440717E+02 -0.74370321832E+01 -0.30523967770E+02  0.45045682045E+02  0.00000000000E+00 0. -1.
         11    1    3    3    0    0  0.49525670937E+01  0.25377918061E+01  0.97243479991E+01  0.11204073025E+02  0.51100000000E-03 0. -1.
        -11    1    3    3    0    0  0.89367592749E+01  0.26367216494E+00  0.84703630817E+01  0.12315934408E+02  0.51100000000E-03 0.  1.
        -12    1    3    3    0    0  0.18392114349E+02  0.46355682122E+01  0.12329256689E+02  0.22622310522E+02  0.00000000000E+00 0.  1.
</event>
<event>
 7    1  0.2353206E-008  0.4614232E+02  0.7816164E-02  0.1320468E+00
        -11   -1    0    0    0    0  0.00000000000E+00  0.00000000000E+00  0.45593999997E+02  0.45594000000E+02  0.51100000000E-03 0.  1.
         11   -1    0    0    0    0 -0.00000000000E+00 -0.00000000000E+00 -0.45593999997E+02  0.45594000000E+02  0.51100000000E-03 0. -1.
    9900012    2    1    2    0    0  0.34200352534E+02 -0.51577171497E+00  0.29311829831E+02  0.46142317610E+02  0.99999986262E+01 0.  0.
         12    1    1    2    0    0 -0.34200352534E+02  0.51577171497E+00 -0.29311829831E+02  0.45045682390E+02  0.00000000000E+00 0. -1.
         11    1    3    3    0    0  0.55708194115E+01  0.10557631522E+00  0.88081285522E+01  0.10422490304E+02  0.51100000000E-03 0. -1.
        -11    1    3    3    0    0  0.24683104691E+02  0.64779448225E+00  0.15226089273E+02  0.29008776081E+02  0.51100000000E-03 0.  1.
        -12    1    3    3    0    0  0.39464284311E+01 -0.12691425124E+01  0.52776120055E+01  0.67110512261E+01  0.00000000000E+00 0.  1.
</event>
<event>
 7    1  0.2353206E-008  0.4614232E+02  0.7816164E-02  0.1320468E+00
        -11   -1    0    0    0    0  0.00000000000E+00  0.00000000000E+00  0.45593999997E+02  0.45594000000E+02  0.51100000000E-03 0.  1.
         11   -1    0    0    0    0 -0.00000000000E+00 -0.00000000000E+00 -0.45593999997E+02  0.45594000000E+02  0.51100000000E-03 0. -1.
    9900012    2    1    2    0    0  0.26835578117E+01 -0.92583866752E+01  0.44002207215E+02  0.46142318230E+02  0.10000004275E+02 0.  0.
         12    1    1    2    0    0 -0.26835578117E+01  0.92583866752E+01 -0.44002207215E+02  0.45045681770E+02  0.00000000000E+00 0. -1.
         11    1    3    3    0    0 -0.60246341765E-01 -0.38730899015E+01  0.96070681967E+01  0.10358581689E+02  0.51100000000E-03 0.  1.
        -11    1    3    3    0    0  0.38614625851E+01 -0.36899063098E+01  0.32715067676E+02  0.33148181778E+02  0.51100000000E-03 0. -1.
         12    1    3    3    0    0 -0.11176584317E+01 -0.16953904639E+01  0.16800713419E+01  0.26355547630E+01  0.00000000000E+00 0. -1.
</event>
<event>
 7    1  0.2353206E-008  0.4614232E+02  0.7816164E-02  0.1320468E+00
        -11   -1    0    0    0    0  0.00000000000E+00  0.00000000000E+00  0.45593999997E+02  0.45594000000E+02  0.51100000000E-03 0. -1.
         11   -1    0    0    0    0 -0.00000000000E+00 -0.00000000000E+00 -0.45593999997E+02  0.45594000000E+02  0.51100000000E-03 0.  1.
    9900012    2    1    2    0    0 -0.21666507122E+01  0.36728979738E+02 -0.25988483235E+02  0.46142316647E+02  0.99999898374E+01 0.  0.
         12    1    1    2    0    0  0.21666507122E+01 -0.36728979738E+02  0.25988483235E+02  0.45045683353E+02  0.00000000000E+00 0. -1.
         11    1    3    3    0    0 -0.16986442372E+01  0.15382009664E+02 -0.66554623595E+01  0.16845972606E+02  0.51100000000E-03 0. -1.
        -11    1    3    3    0    0 -0.16807203589E+01  0.52979340210E+01 -0.28024797671E+01  0.62246942834E+01  0.51100000000E-03 0.  1.
         12    1    3    3    0    0  0.12127138839E+01  0.16049036053E+02 -0.16530541108E+02  0.23071649757E+02  0.00000000000E+00 0. -1.
</event>
<event>
 7    1  0.2353206E-008  0.4614232E+02  0.7816164E-02  0.1320468E+00
        -11   -1    0    0    0    0  0.00000000000E+00  0.00000000000E+00  0.45593999997E+02  0.45594000000E+02  0.51100000000E-03 0. -1.
         11   -1    0    0    0    0 -0.00000000000E+00 -0.00000000000E+00 -0.45593999997E+02  0.45594000000E+02  0.51100000000E-03 0.  1.
    9900012    2    1    2    0    0  0.36940991542E+01 -0.13264427512E+02 -0.42889650006E+02  0.46142317816E+02  0.10000000503E+02 0.  0.
         12    1    1    2    0    0 -0.36940991542E+01  0.13264427512E+02  0.42889650006E+02  0.45045682184E+02  0.00000000000E+00 0. -1.
         11    1    3    3    0    0  0.30901198689E+01 -0.60131341766E+01 -0.11547799519E+02  0.13381266660E+02  0.51100000000E-03 0. -1.
        -11    1    3    3    0    0  0.33354972847E+01 -0.35872518714E+01 -0.18179643382E+02  0.18827993835E+02  0.51100000000E-03 0.  1.
        -12    1    3    3    0    0 -0.27315179993E+01 -0.36640414642E+01 -0.13162207105E+02  0.13933057321E+02  0.00000000000E+00 0.  1.
</event>
<event>
 7    1  0.2353206E-008  0.4614232E+02  0.7816164E-02  0.1320468E+00
        -11   -1    0    0    0    0  0.00000000000E+00  0.00000000000E+00  0.45593999997E+02  0.45594000000E+02  0.51100000000E-03 0.  1.
         11   -1    0    0    0    0 -0.00000000000E+00 -0.00000000000E+00 -0.45593999997E+02  0.45594000000E+02  0.51100000000E-03 0. -1.
    9900012    2    1    2    0    0  0.11184484919E+02 -0.61419599701E+01  0.43200661481E+02  0.46142317326E+02  0.99999960301E+01 0.  0.
         12    1    1    2    0    0 -0.11184484919E+02  0.61419599701E+01 -0.43200661481E+02  0.45045682674E+02  0.00000000000E+00 0. -1.
         11    1    3    3    0    0  0.40214709857E+01 -0.95362158388E+00  0.54779586509E+01  0.68621901938E+01  0.51100000000E-03 0. -1.
        -11    1    3    3    0    0  0.62792197687E+01 -0.72519815250E+00  0.19546482082E+02  0.20543112600E+02  0.51100000000E-03 0.  1.
        -12    1    3    3    0    0  0.88379416478E+00 -0.44631402337E+01  0.18176220749E+02  0.18737014532E+02  0.00000000000E+00 0.  1.
</event>
<event>
 7    1  0.2353206E-008  0.4614232E+02  0.7816164E-02  0.1320468E+00
        -11   -1    0    0    0    0  0.00000000000E+00  0.00000000000E+00  0.45593999997E+02  0.45594000000E+02  0.51100000000E-03 0.  1.
         11   -1    0    0    0    0 -0.00000000000E+00 -0.00000000000E+00 -0.45593999997E+02  0.45594000000E+02  0.51100000000E-03 0. -1.
    9900012    2    1    2    0    0  0.22185162661E+02  0.37736118655E+02 -0.10626233937E+02  0.46142323835E+02  0.10000055391E+02 0.  0.
         12    1    1    2    0    0 -0.22185162661E+02 -0.37736118655E+02  0.10626233937E+02  0.45045676165E+02  0.00000000000E+00 0. -1.
         11    1    3    3    0    0  0.77684051881E+01  0.15612860422E+02 -0.47535318465E+01  0.18074999170E+02  0.51100000000E-03 0.  1.
        -11    1    3    3    0    0  0.10961261936E+02  0.11236180984E+02 -0.55204261292E+01  0.16639595285E+02  0.51100000000E-03 0. -1.
         12    1    3    3    0    0  0.34554955360E+01  0.10887077250E+02 -0.35227596131E+00  0.11427729381E+02  0.00000000000E+00 0. -1.
</event>
<event>
 7    1  0.2353206E-008  0.4614232E+02  0.7816164E-02  0.1320468E+00
        -11   -1    0    0    0    0  0.00000000000E+00  0.00000000000E+00  0.45593999997E+02  0.45594000000E+02  0.51100000000E-03 0.  1.
         11   -1    0    0    0    0 -0.00000000000E+00 -0.00000000000E+00 -0.45593999997E+02  0.45594000000E+02  0.51100000000E-03 0. -1.
    9900012    2    1    2    0    0 -0.28664192975E+02 -0.24848059502E+02  0.24290976073E+02  0.46142317204E+02  0.99999949242E+01 0.  0.
         12    1    1    2    0    0  0.28664192975E+02  0.24848059502E+02 -0.24290976073E+02  0.45045682796E+02  0.00000000000E+00 0. -1.
         11    1    3    3    0    0 -0.37398464398E+01 -0.27656175818E+01  0.37753848768E+00  0.46666505732E+01  0.51100000000E-03 0. -1.
        -11    1    3    3    0    0 -0.19228672864E+02 -0.19348943341E+02  0.17156322341E+02  0.32225189915E+02  0.51100000000E-03 0.  1.
        -12    1    3    3    0    0 -0.56956736717E+01 -0.27334985792E+01  0.67571152441E+01  0.92504767163E+01  0.00000000000E+00 0.  1.
</event>
<event>
 7    1  0.2353206E-008  0.4614232E+02  0.7816164E-02  0.1320468E+00
        -11   -1    0    0    0    0  0.00000000000E+00  0.00000000000E+00  0.45593999997E+02  0.45594000000E+02  0.51100000000E-03 0.  1.
         11   -1    0    0    0    0 -0.00000000000E+00 -0.00000000000E+00 -0.45593999997E+02  0.45594000000E+02  0.51100000000E-03 0. -1.
    9900012    2    1    2    0    0  0.52838696906E+01  0.28597426851E+02  0.34400310630E+02  0.46142317934E+02  0.10000001574E+02 0.  0.
         12    1    1    2    0    0 -0.52838696906E+01 -0.28597426851E+02 -0.34400310630E+02  0.45045682066E+02  0.00000000000E+00 0. -1.
         11    1    3    3    0    0  0.88869606069E+00  0.48358084395E+01  0.57089580137E+01  0.75343895450E+01  0.51100000000E-03 0. -1.
        -11    1    3    3    0    0  0.61804940769E+01  0.22884403666E+02  0.27426676432E+02  0.36250751973E+02  0.51100000000E-03 0.  1.
         12    1    3    3    0    0 -0.17853204469E+01  0.87721474500E+00  0.12646761836E+01  0.23571764160E+01  0.00000000000E+00 0. -1.
</event>
<event>
 7    1  0.2353206E-008  0.4614232E+02  0.7816164E-02  0.1320468E+00
        -11   -1    0    0    0    0  0.00000000000E+00  0.00000000000E+00  0.45593999997E+02  0.45594000000E+02  0.51100000000E-03 0. -1.
         11   -1    0    0    0    0 -0.00000000000E+00 -0.00000000000E+00 -0.45593999997E+02  0.45594000000E+02  0.51100000000E-03 0.  1.
    9900012    2    1    2    0    0 -0.28221572297E+02 -0.11638551774E+02 -0.33124016399E+02  0.46142317712E+02  0.99999995554E+01 0.  0.
         12    1    1    2    0    0  0.28221572297E+02  0.11638551774E+02  0.33124016399E+02  0.45045682288E+02  0.00000000000E+00 0. -1.
         11    1    3    3    0    0 -0.10367062545E+02 -0.14995727029E+01 -0.12063005591E+02  0.15976257642E+02  0.51100000000E-03 0. -1.
        -11    1    3    3    0    0 -0.15016787283E+02 -0.75587221314E+01 -0.20115419502E+02  0.26215802154E+02  0.51100000000E-03 0.  1.
         12    1    3    3    0    0 -0.28377224691E+01 -0.25802569398E+01 -0.94559130680E+00  0.39502579164E+01  0.00000000000E+00 0. -1.
</event>
<event>
 7    1  0.2353206E-008  0.4614232E+02  0.7816164E-02  0.1320468E+00
        -11   -1    0    0    0    0  0.00000000000E+00  0.00000000000E+00  0.45593999997E+02  0.45594000000E+02  0.51100000000E-03 0.  1.
         11   -1    0    0    0    0 -0.00000000000E+00 -0.00000000000E+00 -0.45593999997E+02  0.45594000000E+02  0.51100000000E-03 0. -1.
    9900012    2    1    2    0    0  0.89490141924E+01  0.27617619974E+02  0.34442644808E+02  0.46142316862E+02  0.99999917970E+01 0.  0.
         12    1    1    2    0    0 -0.89490141924E+01 -0.27617619974E+02 -0.34442644808E+02  0.45045683138E+02  0.00000000000E+00 0. -1.
         11    1    3    3    0    0  0.34155713816E+01  0.67275135102E+01  0.15969094214E+02  0.17661753485E+02  0.51100000000E-03 0. -1.
        -11    1    3    3    0    0  0.16280159101E+01  0.37079657573E+01  0.31843068021E+01  0.51516265327E+01  0.51100000000E-03 0.  1.
         12    1    3    3    0    0  0.39054269007E+01  0.17182140707E+02  0.15289243792E+02  0.23328936844E+02  0.00000000000E+00 0. -1.
</event>
<event>
 7    1  0.2353206E-008  0.4614232E+02  0.7816164E-02  0.1320468E+00
        -11   -1    0    0    0    0  0.00000000000E+00  0.00000000000E+00  0.45593999997E+02  0.45594000000E+02  0.51100000000E-03 0.  1.
         11   -1    0    0    0    0 -0.00000000000E+00 -0.00000000000E+00 -0.45593999997E+02  0.45594000000E+02  0.51100000000E-03 0. -1.
    9900012    2    1    2    0    0 -0.65125915421E+01 -0.19057577132E+02  0.40292784861E+02  0.46142316449E+02  0.99999880349E+01 0.  0.
         12    1    1    2    0    0  0.65125915421E+01  0.19057577132E+02 -0.40292784861E+02  0.45045683551E+02  0.00000000000E+00 0. -1.
         11    1    3    3    0    0 -0.42210251414E+00 -0.78957619094E+01  0.81150591971E+01  0.11330287406E+02  0.51100000000E-03 0. -1.
        -11    1    3    3    0    0 -0.19792481839E+01 -0.13739895977E+01  0.90306207994E+01  0.93465171626E+01  0.51100000000E-03 0.  1.
        -12    1    3    3    0    0 -0.41112408441E+01 -0.97878256250E+01  0.23147104864E+02  0.25465511881E+02  0.00000000000E+00 0.  1.
</event>
<event>
 7    1  0.2353206E-008  0.4614232E+02  0.7816164E-02  0.1320468E+00
        -11   -1    0    0    0    0  0.00000000000E+00  0.00000000000E+00  0.45593999997E+02  0.45594000000E+02  0.51100000000E-03 0.  1.
         11   -1    0    0    0    0 -0.00000000000E+00 -0.00000000000E+00 -0.45593999997E+02  0.45594000000E+02  0.51100000000E-03 0. -1.
    9900012    2    1    2    0    0  0.31311484461E+02  0.61837018729E+01  0.31787832914E+02  0.46142317084E+02  0.99999938228E+01 0.  0.
         12    1    1    2    0    0 -0.31311484461E+02 -0.61837018729E+01 -0.31787832914E+02  0.45045682916E+02  0.00000000000E+00 0. -1.
         11    1    3    3    0    0  0.36020824252E+01  0.27851719502E+01  0.39588004889E+01  0.60335961219E+01  0.51100000000E-03 0. -1.
        -11    1    3    3    0    0  0.16775918343E+02  0.34268446549E+01  0.12154997977E+02  0.20998063640E+02  0.51100000000E-03 0.  1.
        -12    1    3    3    0    0  0.10933483693E+02 -0.28314732269E-01  0.15674034449E+02  0.19110657322E+02  0.00000000000E+00 0.  1.
</event>
<event>
 7    1  0.2353206E-008  0.4614232E+02  0.7816164E-02  0.1320468E+00
        -11   -1    0    0    0    0  0.00000000000E+00  0.00000000000E+00  0.45593999997E+02  0.45594000000E+02  0.51100000000E-03 0.  1.
         11   -1    0    0    0    0 -0.00000000000E+00 -0.00000000000E+00 -0.45593999997E+02  0.45594000000E+02  0.51100000000E-03 0. -1.
    9900012    2    1    2    0    0 -0.14258889386E+02 -0.40197593991E+02  0.14489689005E+02  0.46142316781E+02  0.99999910646E+01 0.  0.
         12    1    1    2    0    0  0.14258889386E+02  0.40197593991E+02 -0.14489689005E+02  0.45045683219E+02  0.00000000000E+00 0. -1.
         11    1    3    3    0    0 -0.44339402368E+01 -0.64998871957E+01  0.62394698841E+01  0.10041879519E+02  0.51100000000E-03 0.  1.
        -11    1    3    3    0    0 -0.35191415775E+01 -0.11159267671E+02  0.35660107393E+01  0.12232336050E+02  0.51100000000E-03 0. -1.
        -12    1    3    3    0    0 -0.63058075715E+01 -0.22538439125E+02  0.46842083815E+01  0.23868101212E+02  0.00000000000E+00 0.  1.
</event>
<event>
 7    1  0.2353206E-008  0.4614232E+02  0.7816164E-02  0.1320468E+00
        -11   -1    0    0    0    0  0.00000000000E+00  0.00000000000E+00  0.45593999997E+02  0.45594000000E+02  0.51100000000E-03 0. -1.
         11   -1    0    0    0    0 -0.00000000000E+00 -0.00000000000E+00 -0.45593999997E+02  0.45594000000E+02  0.51100000000E-03 0.  1.
    9900012    2    1    2    0    0  0.42954862981E+02 -0.58082068588E+01 -0.12257977918E+02  0.46142317152E+02  0.99999944438E+01 0.  0.
         12    1    1    2    0    0 -0.42954862981E+02  0.58082068588E+01  0.12257977918E+02  0.45045682848E+02  0.00000000000E+00 0. -1.
         11    1    3    3    0    0  0.77028900167E+01  0.36702576763E+00  0.10331420537E+01  0.77805273143E+01  0.51100000000E-03 0. -1.
        -11    1    3    3    0    0  0.16091562225E+02 -0.11082171866E+01 -0.51002352227E+01  0.16916823572E+02  0.51100000000E-03 0.  1.
         12    1    3    3    0    0  0.19160410739E+02 -0.50670154399E+01 -0.81908847494E+01  0.21444966266E+02  0.00000000000E+00 0. -1.
</event>
<event>
 7    1  0.2353206E-008  0.4614233E+02  0.7816164E-02  0.1320468E+00
        -11   -1    0    0    0    0  0.00000000000E+00  0.00000000000E+00  0.45593999997E+02  0.45594000000E+02  0.51100000000E-03 0.  1.
         11   -1    0    0    0    0 -0.00000000000E+00 -0.00000000000E+00 -0.45593999997E+02  0.45594000000E+02  0.51100000000E-03 0. -1.
    9900012    2    1    2    0    0 -0.32702911807E+02 -0.30841968823E+02 -0.28991869616E+01  0.46142325773E+02  0.10000073058E+02 0.  0.
         12    1    1    2    0    0  0.32702911807E+02  0.30841968823E+02  0.28991869616E+01  0.45045674227E+02  0.00000000000E+00 0. -1.
         11    1    3    3    0    0 -0.93925372958E+01 -0.12637583294E+02 -0.18969336412E+01  0.15859590974E+02  0.51100000000E-03 0. -1.
        -11    1    3    3    0    0 -0.87190349802E+01 -0.94675236774E+01 -0.28286481089E+01  0.13177891559E+02  0.51100000000E-03 0.  1.
         12    1    3    3    0    0 -0.14591339531E+02 -0.87368618518E+01  0.18263947885E+01  0.17104843240E+02  0.00000000000E+00 0. -1.
</event>
<event>
 7    1  0.2353206E-008  0.4614232E+02  0.7816164E-02  0.1320468E+00
        -11   -1    0    0    0    0  0.00000000000E+00  0.00000000000E+00  0.45593999997E+02  0.45594000000E+02  0.51100000000E-03 0. -1.
         11   -1    0    0    0    0 -0.00000000000E+00 -0.00000000000E+00 -0.45593999997E+02  0.45594000000E+02  0.51100000000E-03 0.  1.
    9900012    2    1    2    0    0  0.23421800073E+02 -0.93522765977E+01 -0.37323821839E+02  0.46142317933E+02  0.10000001564E+02 0.  0.
         12    1    1    2    0    0 -0.23421800073E+02  0.93522765977E+01  0.37323821839E+02  0.45045682067E+02  0.00000000000E+00 0. -1.
         11    1    3    3    0    0  0.35235109407E+00  0.90170552238E+00 -0.42409696138E+01  0.43500629499E+01  0.51100000000E-03 0. -1.
        -11    1    3    3    0    0  0.12348591056E+02 -0.61573650347E+01 -0.20998187154E+02  0.25126175779E+02  0.51100000000E-03 0.  1.
         12    1    3    3    0    0  0.10720857923E+02 -0.40966170853E+01 -0.12084665071E+02  0.16666079204E+02  0.00000000000E+00 0. -1.
</event>
<event>
 7    1  0.2353206E-008  0.4614232E+02  0.7816164E-02  0.1320468E+00
        -11   -1    0    0    0    0  0.00000000000E+00  0.00000000000E+00  0.45593999997E+02  0.45594000000E+02  0.51100000000E-03 0.  1.
         11   -1    0    0    0    0 -0.00000000000E+00 -0.00000000000E+00 -0.45593999997E+02  0.45594000000E+02  0.51100000000E-03 0. -1.
    9900012    2    1    2    0    0  0.11971358991E+02 -0.83367004241E+01  0.42618065344E+02  0.46142317591E+02  0.99999984450E+01 0.  0.
         12    1    1    2    0    0 -0.11971358991E+02  0.83367004241E+01 -0.42618065344E+02  0.45045682409E+02  0.00000000000E+00 0. -1.
         11    1    3    3    0    0 -0.83378477055E+00  0.70077798714E+00  0.39702705341E+01  0.41169570324E+01  0.51100000000E-03 0. -1.
        -11    1    3    3    0    0  0.29343648691E+01 -0.52305279783E+00  0.11935792085E+02  0.12302325568E+02  0.51100000000E-03 0.  1.
        -12    1    3    3    0    0  0.98707788929E+01 -0.85144256134E+01  0.26712002725E+02  0.29723034991E+02  0.00000000000E+00 0.  1.
</event>
<event>
 7    1  0.2353206E-008  0.4614232E+02  0.7816164E-02  0.1320468E+00
        -11   -1    0    0    0    0  0.00000000000E+00  0.00000000000E+00  0.45593999997E+02  0.45594000000E+02  0.51100000000E-03 0. -1.
         11   -1    0    0    0    0 -0.00000000000E+00 -0.00000000000E+00 -0.45593999997E+02  0.45594000000E+02  0.51100000000E-03 0.  1.
    9900012    2    1    2    0    0 -0.12702386545E+02  0.43217491881E+02  0.10612327124E+00  0.46142317737E+02  0.99999997772E+01 0.  0.
         12    1    1    2    0    0  0.12702386545E+02 -0.43217491881E+02 -0.10612327124E+00  0.45045682263E+02  0.00000000000E+00 0. -1.
         11    1    3    3    0    0 -0.67555959711E+01  0.21281893034E+02 -0.22487077277E+01  0.22441339860E+02  0.51100000000E-03 0. -1.
        -11    1    3    3    0    0 -0.32687284938E+01  0.35836636856E+01 -0.71312464679E+00  0.49026297434E+01  0.51100000000E-03 0.  1.
         12    1    3    3    0    0 -0.26780620802E+01  0.18351935161E+02  0.30679556458E+01  0.18798348133E+02  0.00000000000E+00 0. -1.
</event>
<event>
 7    1  0.2353206E-008  0.4614232E+02  0.7816164E-02  0.1320468E+00
        -11   -1    0    0    0    0  0.00000000000E+00  0.00000000000E+00  0.45593999997E+02  0.45594000000E+02  0.51100000000E-03 0.  1.
         11   -1    0    0    0    0 -0.00000000000E+00 -0.00000000000E+00 -0.45593999997E+02  0.45594000000E+02  0.51100000000E-03 0. -1.
    9900012    2    1    2    0    0 -0.21988043355E+02  0.15096690938E+02  0.36300541804E+02  0.46142318041E+02  0.10000002555E+02 0.  0.
         12    1    1    2    0    0  0.21988043355E+02 -0.15096690938E+02 -0.36300541804E+02  0.45045681959E+02  0.00000000000E+00 0. -1.
         11    1    3    3    0    0 -0.62560659803E+01  0.33250086875E+01  0.97270927057E+01  0.12033718340E+02  0.51100000000E-03 0. -1.
        -11    1    3    3    0    0 -0.15152032319E+02  0.98137853723E+01  0.26500763628E+02  0.32065323012E+02  0.51100000000E-03 0.  1.
         12    1    3    3    0    0 -0.57994505531E+00  0.19578968780E+01  0.72685470720E-01  0.20432766895E+01  0.00000000000E+00 0. -1.
</event>
<event>
 7    1  0.2353206E-008  0.4614232E+02  0.7816164E-02  0.1320468E+00
        -11   -1    0    0    0    0  0.00000000000E+00  0.00000000000E+00  0.45593999997E+02  0.45594000000E+02  0.51100000000E-03 0.  1.
         11   -1    0    0    0    0 -0.00000000000E+00 -0.00000000000E+00 -0.45593999997E+02  0.45594000000E+02  0.51100000000E-03 0. -1.
    9900012    2    1    2    0    0 -0.40753088334E+02  0.18858075865E+02  0.35598178454E+01  0.46142317219E+02  0.99999950578E+01 0.  0.
         12    1    1    2    0    0  0.40753088334E+02 -0.18858075865E+02 -0.35598178454E+01  0.45045682781E+02  0.00000000000E+00 0. -1.
         11    1    3    3    0    0 -0.22521791855E+01  0.25350185414E+01  0.10975022628E+01  0.35641466815E+01  0.51100000000E-03 0. -1.
        -11    1    3    3    0    0 -0.37400210076E+01  0.34998941375E+01 -0.14447420989E+01  0.53220575067E+01  0.51100000000E-03 0.  1.
         12    1    3    3    0    0 -0.34760888141E+02  0.12823163186E+02  0.39070576816E+01  0.37256113031E+02  0.00000000000E+00 0. -1.
</event>
<event>
 7    1  0.2353206E-008  0.4614232E+02  0.7816164E-02  0.1320468E+00
        -11   -1    0    0    0    0  0.00000000000E+00  0.00000000000E+00  0.45593999997E+02  0.45594000000E+02  0.51100000000E-03 0.  1.
         11   -1    0    0    0    0 -0.00000000000E+00 -0.00000000000E+00 -0.45593999997E+02  0.45594000000E+02  0.51100000000E-03 0. -1.
    9900012    2    1    2    0    0  0.21834674899E+02 -0.13074018849E+02  0.37167600135E+02  0.46142317670E+02  0.99999991679E+01 0.  0.
         12    1    1    2    0    0 -0.21834674899E+02  0.13074018849E+02 -0.37167600135E+02  0.45045682330E+02  0.00000000000E+00 0. -1.
         11    1    3    3    0    0  0.12591138934E+02 -0.10038366666E+02  0.16501411258E+02  0.23056499274E+02  0.51100000000E-03 0. -1.
        -11    1    3    3    0    0  0.22972904925E+01 -0.23813440157E+01  0.69186292069E+01  0.76691442346E+01  0.51100000000E-03 0.  1.
        -12    1    3    3    0    0  0.69462454722E+01 -0.65430816790E+00  0.13747559669E+02  0.15416674161E+02  0.00000000000E+00 0.  1.
</event>
<event>
 7    1  0.2353206E-008  0.4614233E+02  0.7816164E-02  0.1320468E+00
        -11   -1    0    0    0    0  0.00000000000E+00  0.00000000000E+00  0.45593999997E+02  0.45594000000E+02  0.51100000000E-03 0. -1.
         11   -1    0    0    0    0 -0.00000000000E+00 -0.00000000000E+00 -0.45593999997E+02  0.45594000000E+02  0.51100000000E-03 0.  1.
    9900012    2    1    2    0    0 -0.27343467400E+02 -0.32846386381E+02 -0.14232434081E+02  0.46142328869E+02  0.10000101293E+02 0.  0.
         12    1    1    2    0    0  0.27343467400E+02  0.32846386381E+02  0.14232434081E+02  0.45045671131E+02  0.00000000000E+00 0. -1.
         11    1    3    3    0    0 -0.58639946002E+01 -0.32131885272E+01 -0.15396496510E+00  0.66884018012E+01  0.51100000000E-03 0. -1.
        -11    1    3    3    0    0 -0.10779966399E+02 -0.11860771442E+02 -0.48175308590E+01  0.16736014418E+02  0.51100000000E-03 0.  1.
         12    1    3    3    0    0 -0.10699506401E+02 -0.17772426412E+02 -0.92609382569E+01  0.22717912650E+02  0.00000000000E+00 0. -1.
</event>
<event>
 7    1  0.2353206E-008  0.4614232E+02  0.7816164E-02  0.1320468E+00
        -11   -1    0    0    0    0  0.00000000000E+00  0.00000000000E+00  0.45593999997E+02  0.45594000000E+02  0.51100000000E-03 0. -1.
         11   -1    0    0    0    0 -0.00000000000E+00 -0.00000000000E+00 -0.45593999997E+02  0.45594000000E+02  0.51100000000E-03 0.  1.
    9900012    2    1    2    0    0 -0.23719195554E+02 -0.24199929369E+02 -0.29679566757E+02  0.46142317609E+02  0.99999986149E+01 0.  0.
         12    1    1    2    0    0  0.23719195554E+02  0.24199929369E+02  0.29679566757E+02  0.45045682391E+02  0.00000000000E+00 0. -1.
         11    1    3    3    0    0 -0.91233430005E+01 -0.74543615582E+01 -0.70255125048E+01  0.13717168803E+02  0.51100000000E-03 0. -1.
        -11    1    3    3    0    0 -0.14044652534E+02 -0.12196586591E+02 -0.17699567141E+02  0.25676519751E+02  0.51100000000E-03 0.  1.
        -12    1    3    3    0    0 -0.55120001918E+00 -0.45489812194E+01 -0.49544871113E+01  0.67486290557E+01  0.00000000000E+00 0.  1.
</event>
<event>
 7    1  0.2353206E-008  0.4614232E+02  0.7816164E-02  0.1320468E+00
        -11   -1    0    0    0    0  0.00000000000E+00  0.00000000000E+00  0.45593999997E+02  0.45594000000E+02  0.51100000000E-03 0.  1.
         11   -1    0    0    0    0 -0.00000000000E+00 -0.00000000000E+00 -0.45593999997E+02  0.45594000000E+02  0.51100000000E-03 0. -1.
    9900012    2    1    2    0    0 -0.83403093346E+01  0.41337700729E+02 -0.15834986819E+02  0.46142322417E+02  0.10000042457E+02 0.  0.
         12    1    1    2    0    0  0.83403093346E+01 -0.41337700729E+02  0.15834986819E+02  0.45045677583E+02  0.00000000000E+00 0. -1.
         11    1    3    3    0    0 -0.41598853839E+01  0.90911382870E+01 -0.41068897662E+01  0.10808329453E+02  0.51100000000E-03 0.  1.
        -11    1    3    3    0    0 -0.30913334930E+00  0.88507287245E+01 -0.66691670897E+01  0.11086421980E+02  0.51100000000E-03 0. -1.
        -12    1    3    3    0    0 -0.38712906013E+01  0.23395833717E+02 -0.50589299629E+01  0.24247570984E+02  0.00000000000E+00 0.  1.
</event>
<event>
 7    1  0.2353206E-008  0.4614232E+02  0.7816164E-02  0.1320468E+00
        -11   -1    0    0    0    0  0.00000000000E+00  0.00000000000E+00  0.45593999997E+02  0.45594000000E+02  0.51100000000E-03 0.  1.
         11   -1    0    0    0    0 -0.00000000000E+00 -0.00000000000E+00 -0.45593999997E+02  0.45594000000E+02  0.51100000000E-03 0. -1.
    9900012    2    1    2    0    0  0.10083543033E+02  0.41751433404E+02  0.13573998492E+02  0.46142318004E+02  0.10000002218E+02 0.  0.
         12    1    1    2    0    0 -0.10083543033E+02 -0.41751433404E+02 -0.13573998492E+02  0.45045681996E+02  0.00000000000E+00 0. -1.
         11    1    3    3    0    0  0.26241128446E+01  0.20781483128E+02  0.32981404986E+01  0.21204568853E+02  0.51100000000E-03 0. -1.
        -11    1    3    3    0    0  0.57193375560E+01  0.15401080799E+02  0.96911283788E+01  0.19074120724E+02  0.51100000000E-03 0.  1.
        -12    1    3    3    0    0  0.17400926324E+01  0.55688694770E+01  0.58472961489E+00  0.58636284282E+01  0.00000000000E+00 0.  1.
</event>
<event>
 7    1  0.2353206E-008  0.4614232E+02  0.7816164E-02  0.1320468E+00
        -11   -1    0    0    0    0  0.00000000000E+00  0.00000000000E+00  0.45593999997E+02  0.45594000000E+02  0.51100000000E-03 0.  1.
         11   -1    0    0    0    0 -0.00000000000E+00 -0.00000000000E+00 -0.45593999997E+02  0.45594000000E+02  0.51100000000E-03 0. -1.
    9900012    2    1    2    0    0  0.18411320744E+02 -0.15373694709E+02  0.38128549952E+02  0.46142317166E+02  0.99999945729E+01 0.  0.
         12    1    1    2    0    0 -0.18411320744E+02  0.15373694709E+02 -0.38128549952E+02  0.45045682834E+02  0.00000000000E+00 0. -1.
         11    1    3    3    0    0  0.42645242529E+01 -0.47877771593E+01  0.92089011790E+01  0.11221089003E+02  0.51100000000E-03 0. -1.
        -11    1    3    3    0    0  0.58116130140E+01  0.29665577879E+00  0.97538115396E+01  0.11357803057E+02  0.51100000000E-03 0.  1.
        -12    1    3    3    0    0  0.83351834771E+01 -0.10882573329E+02  0.19165837233E+02  0.23563425106E+02  0.00000000000E+00 0.  1.
</event>
<event>
 7    1  0.2353206E-008  0.4614232E+02  0.7816164E-02  0.1320468E+00
        -11   -1    0    0    0    0  0.00000000000E+00  0.00000000000E+00  0.45593999997E+02  0.45594000000E+02  0.51100000000E-03 0.  1.
         11   -1    0    0    0    0 -0.00000000000E+00 -0.00000000000E+00 -0.45593999997E+02  0.45594000000E+02  0.51100000000E-03 0. -1.
    9900012    2    1    2    0    0 -0.21936597120E+02  0.20077429564E+02  0.33834836914E+02  0.46142315855E+02  0.99999826198E+01 0.  0.
         12    1    1    2    0    0  0.21936597120E+02 -0.20077429564E+02 -0.33834836914E+02  0.45045684145E+02  0.00000000000E+00 0. -1.
         11    1    3    3    0    0 -0.74263059635E+01  0.41435470975E+01  0.56310467983E+01  0.10199396606E+02  0.51100000000E-03 0. -1.
        -11    1    3    3    0    0 -0.10839624032E+02  0.81625808551E+01  0.15440519903E+02  0.20555652033E+02  0.51100000000E-03 0.  1.
         12    1    3    3    0    0 -0.36706671247E+01  0.77713016115E+01  0.12763270213E+02  0.15387267217E+02  0.00000000000E+00 0. -1.
</event>
<event>
 7    1  0.2353206E-008  0.4614232E+02  0.7816164E-02  0.1320468E+00
        -11   -1    0    0    0    0  0.00000000000E+00  0.00000000000E+00  0.45593999997E+02  0.45594000000E+02  0.51100000000E-03 0.  1.
         11   -1    0    0    0    0 -0.00000000000E+00 -0.00000000000E+00 -0.45593999997E+02  0.45594000000E+02  0.51100000000E-03 0. -1.
    9900012    2    1    2    0    0 -0.19804821712E+01  0.14675867778E+02  0.42541856128E+02  0.46142323987E+02  0.10000056775E+02 0.  0.
         12    1    1    2    0    0  0.19804821712E+01 -0.14675867778E+02 -0.42541856128E+02  0.45045676013E+02  0.00000000000E+00 0. -1.
         11    1    3    3    0    0  0.12619913146E+01  0.10799416020E+02  0.22118892851E+02  0.24646813784E+02  0.51100000000E-03 0. -1.
        -11    1    3    3    0    0  0.11061752415E+01  0.92099668674E+00  0.48316851771E+01  0.50415315603E+01  0.51100000000E-03 0.  1.
         12    1    3    3    0    0 -0.43486487273E+01  0.29554550708E+01  0.15591278099E+02  0.16453978643E+02  0.00000000000E+00 0. -1.
</event>
<event>
 7    1  0.2353206E-008  0.4614232E+02  0.7816164E-02  0.1320468E+00
        -11   -1    0    0    0    0  0.00000000000E+00  0.00000000000E+00  0.45593999997E+02  0.45594000000E+02  0.51100000000E-03 0.  1.
         11   -1    0    0    0    0 -0.00000000000E+00 -0.00000000000E+00 -0.45593999997E+02  0.45594000000E+02  0.51100000000E-03 0. -1.
    9900012    2    1    2    0    0  0.23370256823E+02 -0.25481423682E+02  0.28872852039E+02  0.46142318279E+02  0.10000004723E+02 0.  0.
         12    1    1    2    0    0 -0.23370256823E+02  0.25481423682E+02 -0.28872852039E+02  0.45045681721E+02  0.00000000000E+00 0. -1.
         11    1    3    3    0    0 -0.13478423456E-01  0.23445213694E+00  0.12315733554E+00  0.26517440079E+00  0.51100000000E-03 0. -1.
        -11    1    3    3    0    0  0.78233052674E+01 -0.14529493233E+02  0.11725393810E+02  0.20243397422E+02  0.51100000000E-03 0.  1.
        -12    1    3    3    0    0  0.15560429979E+02 -0.11186382586E+02  0.17024300893E+02  0.25633746457E+02  0.00000000000E+00 0.  1.
</event>
<event>
 7    1  0.2353206E-008  0.4614232E+02  0.7816164E-02  0.1320468E+00
        -11   -1    0    0    0    0  0.00000000000E+00  0.00000000000E+00  0.45593999997E+02  0.45594000000E+02  0.51100000000E-03 0.  1.
         11   -1    0    0    0    0 -0.00000000000E+00 -0.00000000000E+00 -0.45593999997E+02  0.45594000000E+02  0.51100000000E-03 0. -1.
    9900012    2    1    2    0    0 -0.32774642527E+02  0.57326294650E+01  0.30365659082E+02  0.46142317800E+02  0.10000000355E+02 0.  0.
         12    1    1    2    0    0  0.32774642527E+02 -0.57326294650E+01 -0.30365659082E+02  0.45045682200E+02  0.00000000000E+00 0. -1.
         11    1    3    3    0    0 -0.94683534924E+01  0.38682873278E+01  0.97568961837E+01  0.14135430241E+02  0.51100000000E-03 0. -1.
        -11    1    3    3    0    0 -0.65873225071E+01 -0.68189436151E+00  0.10159559609E+02  0.12127425507E+02  0.51100000000E-03 0.  1.
         12    1    3    3    0    0 -0.16718966528E+02  0.25462364986E+01  0.10449203290E+02  0.19879462051E+02  0.00000000000E+00 0. -1.
</event>
<event>
 7    1  0.2353206E-008  0.4614232E+02  0.7816164E-02  0.1320468E+00
        -11   -1    0    0    0    0  0.00000000000E+00  0.00000000000E+00  0.45593999997E+02  0.45594000000E+02  0.51100000000E-03 0.  1.
         11   -1    0    0    0    0 -0.00000000000E+00 -0.00000000000E+00 -0.45593999997E+02  0.45594000000E+02  0.51100000000E-03 0. -1.
    9900012    2    1    2    0    0 -0.13668660373E+02  0.32626877458E+02  0.27888495113E+02  0.46142316869E+02  0.99999918686E+01 0.  0.
         12    1    1    2    0    0  0.13668660373E+02 -0.32626877458E+02 -0.27888495113E+02  0.45045683131E+02  0.00000000000E+00 0. -1.
         11    1    3    3    0    0 -0.32527319723E+01  0.10236366902E+02  0.59695424159E+01  0.12288161358E+02  0.51100000000E-03 0.  1.
        -11    1    3    3    0    0 -0.51103792615E+01  0.13409682452E+02  0.79029475930E+01  0.16382678065E+02  0.51100000000E-03 0. -1.
         12    1    3    3    0    0 -0.53055491389E+01  0.89808281041E+01  0.14016005104E+02  0.17471477447E+02  0.00000000000E+00 0. -1.
</event>
<event>
 7    1  0.2353206E-008  0.4614232E+02  0.7816164E-02  0.1320468E+00
        -11   -1    0    0    0    0  0.00000000000E+00  0.00000000000E+00  0.45593999997E+02  0.45594000000E+02  0.51100000000E-03 0.  1.
         11   -1    0    0    0    0 -0.00000000000E+00 -0.00000000000E+00 -0.45593999997E+02  0.45594000000E+02  0.51100000000E-03 0. -1.
    9900012    2    1    2    0    0 -0.45043816491E+01  0.40937871680E+02  0.18245949489E+02  0.46142318026E+02  0.10000002415E+02 0.  0.
         12    1    1    2    0    0  0.45043816491E+01 -0.40937871680E+02 -0.18245949489E+02  0.45045681974E+02  0.00000000000E+00 0. -1.
         11    1    3    3    0    0  0.21252753280E+01  0.17147338674E+02  0.50025272977E+01  0.17988143274E+02  0.51100000000E-03 0. -1.
        -11    1    3    3    0    0 -0.22357548110E+01  0.62418146170E+01  0.48305033862E+01  0.82032074528E+01  0.51100000000E-03 0.  1.
        -12    1    3    3    0    0 -0.43939021661E+01  0.17548718390E+02  0.84129188047E+01  0.19950967299E+02  0.00000000000E+00 0.  1.
</event>
<event>
 7    1  0.2353206E-008  0.4614232E+02  0.7816164E-02  0.1320468E+00
        -11   -1    0    0    0    0  0.00000000000E+00  0.00000000000E+00  0.45593999997E+02  0.45594000000E+02  0.51100000000E-03 0.  1.
         11   -1    0    0    0    0 -0.00000000000E+00 -0.00000000000E+00 -0.45593999997E+02  0.45594000000E+02  0.51100000000E-03 0. -1.
    9900012    2    1    2    0    0  0.61335967425E+01  0.41928626607E+02  0.15280141721E+02  0.46142317975E+02  0.10000001948E+02 0.  0.
         12    1    1    2    0    0 -0.61335967425E+01 -0.41928626607E+02 -0.15280141721E+02  0.45045682025E+02  0.00000000000E+00 0. -1.
         11    1    3    3    0    0  0.28644090896E-01  0.26187834537E+01  0.16300360560E+00  0.26240079455E+01  0.51100000000E-03 0. -1.
        -11    1    3    3    0    0  0.58259236547E+01  0.23858238081E+02  0.50461266281E+01  0.25072301549E+02  0.51100000000E-03 0.  1.
         12    1    3    3    0    0  0.27902899688E+00  0.15451605072E+02  0.10071011487E+02  0.18446008481E+02  0.00000000000E+00 0. -1.
</event>
<event>
 7    1  0.2353206E-008  0.4614232E+02  0.7816164E-02  0.1320468E+00
        -11   -1    0    0    0    0  0.00000000000E+00  0.00000000000E+00  0.45593999997E+02  0.45594000000E+02  0.51100000000E-03 0.  1.
         11   -1    0    0    0    0 -0.00000000000E+00 -0.00000000000E+00 -0.45593999997E+02  0.45594000000E+02  0.51100000000E-03 0. -1.
    9900012    2    1    2    0    0  0.31687219055E+02 -0.24795883203E+02  0.20253345076E+02  0.46142315834E+02  0.99999824250E+01 0.  0.
         12    1    1    2    0    0 -0.31687219055E+02  0.24795883203E+02 -0.20253345076E+02  0.45045684166E+02  0.00000000000E+00 0. -1.
         11    1    3    3    0    0  0.62090953430E+01 -0.54151484861E+01  0.23741475609E+01  0.85739882789E+01  0.51100000000E-03 0. -1.
        -11    1    3    3    0    0  0.25183258356E+02 -0.18779872246E+02  0.15373215930E+02  0.34974503160E+02  0.51100000000E-03 0.  1.
         12    1    3    3    0    0  0.29486535556E+00 -0.60086247101E+00  0.25059815848E+01  0.25938243946E+01  0.00000000000E+00 0. -1.
</event>
<event>
 7    1  0.2353206E-008  0.4614232E+02  0.7816164E-02  0.1320468E+00
        -11   -1    0    0    0    0  0.00000000000E+00  0.00000000000E+00  0.45593999997E+02  0.45594000000E+02  0.51100000000E-03 0.  1.
         11   -1    0    0    0    0 -0.00000000000E+00 -0.00000000000E+00 -0.45593999997E+02  0.45594000000E+02  0.51100000000E-03 0. -1.
    9900012    2    1    2    0    0 -0.23181888673E+02  0.19715645649E+02  0.33211545636E+02  0.46142318639E+02  0.10000008001E+02 0.  0.
         12    1    1    2    0    0  0.23181888673E+02 -0.19715645649E+02 -0.33211545636E+02  0.45045681361E+02  0.00000000000E+00 0. -1.
         11    1    3    3    0    0 -0.71203619254E+01  0.24858388321E+01  0.10911562426E+02  0.13264280737E+02  0.51100000000E-03 0. -1.
        -11    1    3    3    0    0  0.13125849279E+00  0.10616800005E+01  0.20923752314E+01  0.23499845926E+01  0.51100000000E-03 0.  1.
         12    1    3    3    0    0 -0.16192785241E+02  0.16168126816E+02  0.20207607979E+02  0.30528053309E+02  0.00000000000E+00 0. -1.
</event>
<event>
 7    1  0.2353206E-008  0.4614232E+02  0.7816164E-02  0.1320468E+00
        -11   -1    0    0    0    0  0.00000000000E+00  0.00000000000E+00  0.45593999997E+02  0.45594000000E+02  0.51100000000E-03 0.  1.
         11   -1    0    0    0    0 -0.00000000000E+00 -0.00000000000E+00 -0.45593999997E+02  0.45594000000E+02  0.51100000000E-03 0. -1.
    9900012    2    1    2    0    0 -0.11929664439E+02  0.38995883107E+02  0.19134201870E+02  0.46142317919E+02  0.10000001440E+02 0.  0.
         12    1    1    2    0    0  0.11929664439E+02 -0.38995883107E+02 -0.19134201870E+02  0.45045682081E+02  0.00000000000E+00 0. -1.
         11    1    3    3    0    0 -0.50154145528E+01  0.20027998814E+02  0.13576209395E+02  0.24710090681E+02  0.51100000000E-03 0. -1.
        -11    1    3    3    0    0 -0.49461834617E+01  0.10902791020E+02  0.53877721950E+01  0.13128734606E+02  0.51100000000E-03 0.  1.
        -12    1    3    3    0    0 -0.19680664243E+01  0.80650932733E+01  0.17022027926E+00  0.83034926327E+01  0.00000000000E+00 0.  1.
</event>
<event>
 7    1  0.2353206E-008  0.4614232E+02  0.7816164E-02  0.1320468E+00
        -11   -1    0    0    0    0  0.00000000000E+00  0.00000000000E+00  0.45593999997E+02  0.45594000000E+02  0.51100000000E-03 0.  1.
         11   -1    0    0    0    0 -0.00000000000E+00 -0.00000000000E+00 -0.45593999997E+02  0.45594000000E+02  0.51100000000E-03 0. -1.
    9900012    2    1    2    0    0  0.23831564134E+02 -0.20009917461E+02  0.32569517062E+02  0.46142315550E+02  0.99999798409E+01 0.  0.
         12    1    1    2    0    0 -0.23831564134E+02  0.20009917461E+02 -0.32569517062E+02  0.45045684450E+02  0.00000000000E+00 0. -1.
         11    1    3    3    0    0  0.81169507353E+01 -0.24982914246E+01  0.11845957306E+02  0.14575769415E+02  0.51100000000E-03 0. -1.
        -11    1    3    3    0    0  0.15446433534E+02 -0.16827522111E+02  0.19066252501E+02  0.29753651776E+02  0.51100000000E-03 0.  1.
         12    1    3    3    0    0  0.26817986515E+00 -0.68410392514E+00  0.16573072551E+01  0.18128943593E+01  0.00000000000E+00 0. -1.
</event>
<event>
 7    1  0.2353206E-008  0.4614232E+02  0.7816164E-02  0.1320468E+00
        -11   -1    0    0    0    0  0.00000000000E+00  0.00000000000E+00  0.45593999997E+02  0.45594000000E+02  0.51100000000E-03 0. -1.
         11   -1    0    0    0    0 -0.00000000000E+00 -0.00000000000E+00 -0.45593999997E+02  0.45594000000E+02  0.51100000000E-03 0.  1.
    9900012    2    1    2    0    0  0.10234474198E+01  0.44975950391E+02  0.22869452893E+01  0.46142315668E+02  0.99999809114E+01 0.  0.
         12    1    1    2    0    0 -0.10234474198E+01 -0.44975950391E+02 -0.22869452893E+01  0.45045684332E+02  0.00000000000E+00 0. -1.
         11    1    3    3    0    0  0.24843290057E+01  0.77559925170E+01  0.14356027008E+01  0.82697198204E+01  0.51100000000E-03 0. -1.
        -11    1    3    3    0    0 -0.33128282427E+01  0.10247502066E+02  0.11841377216E+01  0.10834588684E+02  0.51100000000E-03 0.  1.
         12    1    3    3    0    0  0.18519466568E+01  0.26972455808E+02 -0.33279513304E+00  0.27038007163E+02  0.00000000000E+00 0. -1.
</event>
<event>
 7    1  0.2353206E-008  0.4614232E+02  0.7816164E-02  0.1320468E+00
        -11   -1    0    0    0    0  0.00000000000E+00  0.00000000000E+00  0.45593999997E+02  0.45594000000E+02  0.51100000000E-03 0.  1.
         11   -1    0    0    0    0 -0.00000000000E+00 -0.00000000000E+00 -0.45593999997E+02  0.45594000000E+02  0.51100000000E-03 0. -1.
    9900012    2    1    2    0    0 -0.12890564521E+02 -0.53990759095E+01  0.42822853360E+02  0.46142318251E+02  0.10000004467E+02 0.  0.
         12    1    1    2    0    0  0.12890564521E+02  0.53990759095E+01 -0.42822853360E+02  0.45045681749E+02  0.00000000000E+00 0. -1.
         11    1    3    3    0    0 -0.69207156242E+01 -0.43179969946E+01  0.10791679268E+02  0.13527813736E+02  0.51100000000E-03 0. -1.
        -11    1    3    3    0    0 -0.23011720996E+01 -0.67417592249E+00  0.14736526905E+02  0.14930342651E+02  0.51100000000E-03 0.  1.
        -12    1    3    3    0    0 -0.36686767969E+01 -0.40690299241E+00  0.17294647188E+02  0.17684161864E+02  0.00000000000E+00 0.  1.
</event>
<event>
 7    1  0.2353206E-008  0.4614232E+02  0.7816164E-02  0.1320468E+00
        -11   -1    0    0    0    0  0.00000000000E+00  0.00000000000E+00  0.45593999997E+02  0.45594000000E+02  0.51100000000E-03 0.  1.
         11   -1    0    0    0    0 -0.00000000000E+00 -0.00000000000E+00 -0.45593999997E+02  0.45594000000E+02  0.51100000000E-03 0. -1.
    9900012    2    1    2    0    0  0.12199114841E+02  0.59187623484E+01  0.42956527954E+02  0.46142318248E+02  0.10000004439E+02 0.  0.
         12    1    1    2    0    0 -0.12199114841E+02 -0.59187623484E+01 -0.42956527954E+02  0.45045681752E+02  0.00000000000E+00 0. -1.
         11    1    3    3    0    0  0.67831194115E+01  0.42491631589E-01  0.10416853742E+02  0.12430742400E+02  0.51100000000E-03 0. -1.
        -11    1    3    3    0    0  0.55575366738E+01  0.41492273763E+01  0.28161056852E+02  0.29002541699E+02  0.51100000000E-03 0.  1.
        -12    1    3    3    0    0 -0.14154124458E+00  0.17270433405E+01  0.43786173606E+01  0.47090341488E+01  0.00000000000E+00 0.  1.
</event>
<event>
 7    1  0.2353206E-008  0.4614232E+02  0.7816164E-02  0.1320468E+00
        -11   -1    0    0    0    0  0.00000000000E+00  0.00000000000E+00  0.45593999997E+02  0.45594000000E+02  0.51100000000E-03 0.  1.
         11   -1    0    0    0    0 -0.00000000000E+00 -0.00000000000E+00 -0.45593999997E+02  0.45594000000E+02  0.51100000000E-03 0. -1.
    9900012    2    1    2    0    0  0.27067866495E+02  0.14157100966E+02  0.33106198803E+02  0.46142319813E+02  0.10000018709E+02 0.  0.
         12    1    1    2    0    0 -0.27067866495E+02 -0.14157100966E+02 -0.33106198803E+02  0.45045680187E+02  0.00000000000E+00 0. -1.
         11    1    3    3    0    0  0.24880034415E+01  0.22006319191E+00  0.67164390960E+01  0.71658316562E+01  0.51100000000E-03 0. -1.
        -11    1    3    3    0    0  0.10329255094E+02  0.33211973246E+01  0.87616069974E+01  0.13945953531E+02  0.51100000000E-03 0.  1.
         12    1    3    3    0    0  0.14250607959E+02  0.10615840450E+02  0.17628152710E+02  0.25030534625E+02  0.00000000000E+00 0. -1.
</event>
<event>
 7    1  0.2353206E-008  0.4614232E+02  0.7816164E-02  0.1320468E+00
        -11   -1    0    0    0    0  0.00000000000E+00  0.00000000000E+00  0.45593999997E+02  0.45594000000E+02  0.51100000000E-03 0.  1.
         11   -1    0    0    0    0 -0.00000000000E+00 -0.00000000000E+00 -0.45593999997E+02  0.45594000000E+02  0.51100000000E-03 0. -1.
    9900012    2    1    2    0    0  0.15935786932E+02 -0.30971135496E+02  0.28564891019E+02  0.46142317211E+02  0.99999949811E+01 0.  0.
         12    1    1    2    0    0 -0.15935786932E+02  0.30971135496E+02 -0.28564891019E+02  0.45045682789E+02  0.00000000000E+00 0. -1.
         11    1    3    3    0    0  0.93190546251E+01 -0.26549861790E+02  0.20824526922E+02  0.35005726131E+02  0.51100000000E-03 0. -1.
        -11    1    3    3    0    0  0.20612768882E+01 -0.13646055992E+01  0.29917262239E+01  0.38809067125E+01  0.51100000000E-03 0.  1.
         12    1    3    3    0    0  0.45554554190E+01 -0.30566681061E+01  0.47486378730E+01  0.72556843670E+01  0.00000000000E+00 0. -1.
</event>
<event>
 7    1  0.2353206E-008  0.4614232E+02  0.7816164E-02  0.1320468E+00
        -11   -1    0    0    0    0  0.00000000000E+00  0.00000000000E+00  0.45593999997E+02  0.45594000000E+02  0.51100000000E-03 0. -1.
         11   -1    0    0    0    0 -0.00000000000E+00 -0.00000000000E+00 -0.45593999997E+02  0.45594000000E+02  0.51100000000E-03 0.  1.
    9900012    2    1    2    0    0  0.14949883246E+02 -0.34043929804E+02 -0.25428828968E+02  0.46142317540E+02  0.99999979847E+01 0.  0.
         12    1    1    2    0    0 -0.14949883246E+02  0.34043929804E+02  0.25428828968E+02  0.45045682460E+02  0.00000000000E+00 0. -1.
         11    1    3    3    0    0  0.55265231407E+01 -0.15609430733E+02 -0.13270902260E+02  0.21220594546E+02  0.51100000000E-03 0. -1.
        -11    1    3    3    0    0  0.62321178434E+01 -0.16704064602E+02 -0.11544446070E+02  0.21240040075E+02  0.51100000000E-03 0.  1.
         12    1    3    3    0    0  0.31912422618E+01 -0.17304344686E+01 -0.61348063842E+00  0.36816829191E+01  0.00000000000E+00 0. -1.
</event>
<event>
 7    1  0.2353206E-008  0.4614232E+02  0.7816164E-02  0.1320468E+00
        -11   -1    0    0    0    0  0.00000000000E+00  0.00000000000E+00  0.45593999997E+02  0.45594000000E+02  0.51100000000E-03 0.  1.
         11   -1    0    0    0    0 -0.00000000000E+00 -0.00000000000E+00 -0.45593999997E+02  0.45594000000E+02  0.51100000000E-03 0. -1.
    9900012    2    1    2    0    0 -0.84223791779E+01 -0.16021570867E+02  0.41249076177E+02  0.46142317749E+02  0.99999998855E+01 0.  0.
         12    1    1    2    0    0  0.84223791779E+01  0.16021570867E+02 -0.41249076177E+02  0.45045682251E+02  0.00000000000E+00 0. -1.
         11    1    3    3    0    0 -0.65362303653E+00 -0.21903184851E+01  0.87671517756E+00  0.24481315127E+01  0.51100000000E-03 0. -1.
        -11    1    3    3    0    0 -0.85394475785E+01 -0.12329453852E+02  0.36962085015E+02  0.39889012599E+02  0.51100000000E-03 0.  1.
        -12    1    3    3    0    0  0.77069143706E+00 -0.15017985299E+01  0.34102759845E+01  0.38051736367E+01  0.00000000000E+00 0.  1.
</event>
<event>
 7    1  0.2353206E-008  0.4614232E+02  0.7816164E-02  0.1320468E+00
        -11   -1    0    0    0    0  0.00000000000E+00  0.00000000000E+00  0.45593999997E+02  0.45594000000E+02  0.51100000000E-03 0.  1.
         11   -1    0    0    0    0 -0.00000000000E+00 -0.00000000000E+00 -0.45593999997E+02  0.45594000000E+02  0.51100000000E-03 0. -1.
    9900012    2    1    2    0    0  0.67735130793E+01  0.44303673133E+02  0.45185823479E+01  0.46142317422E+02  0.99999969084E+01 0.  0.
         12    1    1    2    0    0 -0.67735130793E+01 -0.44303673133E+02 -0.45185823479E+01  0.45045682578E+02  0.00000000000E+00 0. -1.
         11    1    3    3    0    0 -0.11427623794E+01  0.21556855202E+01 -0.21246387577E+00  0.24490869885E+01  0.51100000000E-03 0. -1.
        -11    1    3    3    0    0  0.48837268387E+01  0.10469789595E+02  0.24357544720E+00  0.11555371532E+02  0.51100000000E-03 0.  1.
        -12    1    3    3    0    0  0.30325486200E+01  0.31678198018E+02  0.44874707765E+01  0.32137858901E+02  0.00000000000E+00 0.  1.
</event>
<event>
 7    1  0.2353206E-008  0.4614232E+02  0.7816164E-02  0.1320468E+00
        -11   -1    0    0    0    0  0.00000000000E+00  0.00000000000E+00  0.45593999997E+02  0.45594000000E+02  0.51100000000E-03 0. -1.
         11   -1    0    0    0    0 -0.00000000000E+00 -0.00000000000E+00 -0.45593999997E+02  0.45594000000E+02  0.51100000000E-03 0.  1.
    9900012    2    1    2    0    0 -0.24995403592E+00  0.43482297245E+02 -0.11761836078E+02  0.46142318313E+02  0.10000005031E+02 0.  0.
         12    1    1    2    0    0  0.24995403592E+00 -0.43482297245E+02  0.11761836078E+02  0.45045681687E+02  0.00000000000E+00 0. -1.
         11    1    3    3    0    0 -0.76300280674E-01  0.48553181617E+00  0.34501771799E+00  0.60050009508E+00  0.51100000000E-03 0. -1.
        -11    1    3    3    0    0  0.32930538538E+01  0.17796399508E+02 -0.21536197761E+01  0.18226193171E+02  0.51100000000E-03 0.  1.
         12    1    3    3    0    0 -0.34667076090E+01  0.25200365921E+02 -0.99532340203E+01  0.27315625046E+02  0.00000000000E+00 0. -1.
</event>
<event>
 7    1  0.2353206E-008  0.4614232E+02  0.7816164E-02  0.1320468E+00
        -11   -1    0    0    0    0  0.00000000000E+00  0.00000000000E+00  0.45593999997E+02  0.45594000000E+02  0.51100000000E-03 0. -1.
         11   -1    0    0    0    0 -0.00000000000E+00 -0.00000000000E+00 -0.45593999997E+02  0.45594000000E+02  0.51100000000E-03 0.  1.
    9900012    2    1    2    0    0 -0.94101911772E+01  0.16139058740E+02 -0.40988932483E+02  0.46142317620E+02  0.99999987087E+01 0.  0.
         12    1    1    2    0    0  0.94101911772E+01 -0.16139058740E+02  0.40988932483E+02  0.45045682380E+02  0.00000000000E+00 0. -1.
         11    1    3    3    0    0 -0.36702474299E+00  0.83264449648E+01 -0.16826084938E+02  0.18777154404E+02  0.51100000000E-03 0. -1.
        -11    1    3    3    0    0 -0.27643671583E+01  0.47124412900E+01 -0.13955127688E+02  0.14986474494E+02  0.51100000000E-03 0.  1.
        -12    1    3    3    0    0 -0.62787992759E+01  0.31001724848E+01 -0.10207719857E+02  0.12378688722E+02  0.00000000000E+00 0.  1.
</event>
<event>
 7    1  0.2353206E-008  0.4614232E+02  0.7816164E-02  0.1320468E+00
        -11   -1    0    0    0    0  0.00000000000E+00  0.00000000000E+00  0.45593999997E+02  0.45594000000E+02  0.51100000000E-03 0.  1.
         11   -1    0    0    0    0 -0.00000000000E+00 -0.00000000000E+00 -0.45593999997E+02  0.45594000000E+02  0.51100000000E-03 0. -1.
    9900012    2    1    2    0    0 -0.14158852876E+02  0.39843799036E+02  0.15527789427E+02  0.46142315624E+02  0.99999805140E+01 0.  0.
         12    1    1    2    0    0  0.14158852876E+02 -0.39843799036E+02 -0.15527789427E+02  0.45045684376E+02  0.00000000000E+00 0. -1.
         11    1    3    3    0    0 -0.47260265229E+01  0.71697733137E+01  0.42047907956E+01  0.95614456000E+01  0.51100000000E-03 0. -1.
        -11    1    3    3    0    0 -0.23008456327E+01  0.14447051771E+01  0.45839901608E+00  0.27552120777E+01  0.51100000000E-03 0.  1.
        -12    1    3    3    0    0 -0.71319807208E+01  0.31229320545E+02  0.10864599615E+02  0.33825657947E+02  0.00000000000E+00 0.  1.
</event>
<event>
 7    1  0.2353206E-008  0.4614232E+02  0.7816164E-02  0.1320468E+00
        -11   -1    0    0    0    0  0.00000000000E+00  0.00000000000E+00  0.45593999997E+02  0.45594000000E+02  0.51100000000E-03 0. -1.
         11   -1    0    0    0    0 -0.00000000000E+00 -0.00000000000E+00 -0.45593999997E+02  0.45594000000E+02  0.51100000000E-03 0.  1.
    9900012    2    1    2    0    0  0.28960452533E+02  0.34500634338E+02 -0.33456814355E+00  0.46142317449E+02  0.99999971581E+01 0.  0.
         12    1    1    2    0    0 -0.28960452533E+02 -0.34500634338E+02  0.33456814355E+00  0.45045682551E+02  0.00000000000E+00 0. -1.
         11    1    3    3    0    0  0.79377331964E+01  0.80942319223E+01 -0.19107568189E+01  0.11496746957E+02  0.51100000000E-03 0. -1.
        -11    1    3    3    0    0 -0.97462287388E-01 -0.37223732568E+00  0.34730065020E+00  0.51834112980E+00  0.51100000000E-03 0.  1.
        -12    1    3    3    0    0  0.21120181624E+02  0.26778639741E+02  0.12288880252E+01  0.34127229363E+02  0.00000000000E+00 0.  1.
</event>
<event>
 7    1  0.2353206E-008  0.4614232E+02  0.7816164E-02  0.1320468E+00
        -11   -1    0    0    0    0  0.00000000000E+00  0.00000000000E+00  0.45593999997E+02  0.45594000000E+02  0.51100000000E-03 0. -1.
         11   -1    0    0    0    0 -0.00000000000E+00 -0.00000000000E+00 -0.45593999997E+02  0.45594000000E+02  0.51100000000E-03 0.  1.
    9900012    2    1    2    0    0  0.23584428509E+02  0.27884156588E+02 -0.26369720761E+02  0.46142316192E+02  0.99999856879E+01 0.  0.
         12    1    1    2    0    0 -0.23584428509E+02 -0.27884156588E+02  0.26369720761E+02  0.45045683808E+02  0.00000000000E+00 0. -1.
         11    1    3    3    0    0  0.93959538297E+01  0.11094262941E+02 -0.10795704029E+02  0.18108391544E+02  0.51100000000E-03 0. -1.
        -11    1    3    3    0    0  0.34081826153E+01  0.74702633908E+01 -0.94626902927E+01  0.12528489602E+02  0.51100000000E-03 0.  1.
         12    1    3    3    0    0  0.10780292064E+02  0.93196302561E+01 -0.61113264399E+01  0.15505435046E+02  0.00000000000E+00 0. -1.
</event>
<event>
 7    1  0.2353206E-008  0.4614232E+02  0.7816164E-02  0.1320468E+00
        -11   -1    0    0    0    0  0.00000000000E+00  0.00000000000E+00  0.45593999997E+02  0.45594000000E+02  0.51100000000E-03 0.  1.
         11   -1    0    0    0    0 -0.00000000000E+00 -0.00000000000E+00 -0.45593999997E+02  0.45594000000E+02  0.51100000000E-03 0. -1.
    9900012    2    1    2    0    0  0.13455658208E+02 -0.41329721089E+02  0.11828478312E+02  0.46142317829E+02  0.10000000617E+02 0.  0.
         12    1    1    2    0    0 -0.13455658208E+02  0.41329721089E+02 -0.11828478312E+02  0.45045682171E+02  0.00000000000E+00 0. -1.
         11    1    3    3    0    0  0.56924022015E+01 -0.83987867282E+01  0.29797901475E+00  0.10150460733E+02  0.51100000000E-03 0. -1.
        -11    1    3    3    0    0  0.13400800403E+01 -0.81806755718E+01  0.10449821301E+01  0.83553129947E+01  0.51100000000E-03 0.  1.
        -12    1    3    3    0    0  0.64231759665E+01 -0.24750258789E+02  0.10485517167E+02  0.27636544101E+02  0.00000000000E+00 0.  1.
</event>
<event>
 7    1  0.2353206E-008  0.4614232E+02  0.7816164E-02  0.1320468E+00
        -11   -1    0    0    0    0  0.00000000000E+00  0.00000000000E+00  0.45593999997E+02  0.45594000000E+02  0.51100000000E-03 0. -1.
         11   -1    0    0    0    0 -0.00000000000E+00 -0.00000000000E+00 -0.45593999997E+02  0.45594000000E+02  0.51100000000E-03 0.  1.
    9900012    2    1    2    0    0 -0.19264883129E+02 -0.39205605073E+02 -0.10995376072E+02  0.46142317786E+02  0.10000000230E+02 0.  0.
         12    1    1    2    0    0  0.19264883129E+02  0.39205605073E+02  0.10995376072E+02  0.45045682214E+02  0.00000000000E+00 0. -1.
         11    1    3    3    0    0 -0.72791821744E+01 -0.98428820707E+01 -0.16717580736E+01  0.12355711064E+02  0.51100000000E-03 0. -1.
        -11    1    3    3    0    0 -0.42345613503E+01 -0.12338723802E+02 -0.37436866871E+00  0.13050508306E+02  0.51100000000E-03 0.  1.
         12    1    3    3    0    0 -0.77511396044E+01 -0.17023999200E+02 -0.89492493296E+01  0.20736098416E+02  0.00000000000E+00 0. -1.
</event>
<event>
 7    1  0.2353206E-008  0.4614232E+02  0.7816164E-02  0.1320468E+00
        -11   -1    0    0    0    0  0.00000000000E+00  0.00000000000E+00  0.45593999997E+02  0.45594000000E+02  0.51100000000E-03 0.  1.
         11   -1    0    0    0    0 -0.00000000000E+00 -0.00000000000E+00 -0.45593999997E+02  0.45594000000E+02  0.51100000000E-03 0. -1.
    9900012    2    1    2    0    0 -0.18146902435E+02  0.22524422754E+01  0.41167097436E+02  0.46142317904E+02  0.10000001305E+02 0.  0.
         12    1    1    2    0    0  0.18146902435E+02 -0.22524422754E+01 -0.41167097436E+02  0.45045682096E+02  0.00000000000E+00 0. -1.
         11    1    3    3    0    0 -0.61806501104E+01  0.29780888606E+01  0.12287342774E+02  0.14072961371E+02  0.51100000000E-03 0. -1.
        -11    1    3    3    0    0 -0.12616263998E+02 -0.53125277046E+00  0.23780499057E+02  0.26925164483E+02  0.51100000000E-03 0.  1.
         12    1    3    3    0    0  0.65001167262E+00 -0.19439381473E+00  0.50992556044E+01  0.51441920501E+01  0.00000000000E+00 0. -1.
</event>
<event>
 7    1  0.2353206E-008  0.4614232E+02  0.7816164E-02  0.1320468E+00
        -11   -1    0    0    0    0  0.00000000000E+00  0.00000000000E+00  0.45593999997E+02  0.45594000000E+02  0.51100000000E-03 0.  1.
         11   -1    0    0    0    0 -0.00000000000E+00 -0.00000000000E+00 -0.45593999997E+02  0.45594000000E+02  0.51100000000E-03 0. -1.
    9900012    2    1    2    0    0  0.38056644183E+02  0.21840466411E+02  0.10188200443E+02  0.46142316880E+02  0.99999919643E+01 0.  0.
         12    1    1    2    0    0 -0.38056644183E+02 -0.21840466411E+02 -0.10188200443E+02  0.45045683120E+02  0.00000000000E+00 0. -1.
         11    1    3    3    0    0  0.58426905022E+01  0.43262446720E+01  0.35521192340E+01  0.80914137566E+01  0.51100000000E-03 0. -1.
        -11    1    3    3    0    0  0.19823308996E+02  0.77956692071E+01  0.66115484449E+01  0.22303556017E+02  0.51100000000E-03 0.  1.
         12    1    3    3    0    0  0.12390644685E+02  0.97185525316E+01  0.24532764370E-01  0.15747347106E+02  0.00000000000E+00 0. -1.
</event>
<event>
 7    1  0.2353206E-008  0.4614232E+02  0.7816164E-02  0.1320468E+00
        -11   -1    0    0    0    0  0.00000000000E+00  0.00000000000E+00  0.45593999997E+02  0.45594000000E+02  0.51100000000E-03 0.  1.
         11   -1    0    0    0    0 -0.00000000000E+00 -0.00000000000E+00 -0.45593999997E+02  0.45594000000E+02  0.51100000000E-03 0. -1.
    9900012    2    1    2    0    0  0.27061586555E+02  0.33876078015E+02 -0.12214557002E+02  0.46142317284E+02  0.99999956528E+01 0.  0.
         12    1    1    2    0    0 -0.27061586555E+02 -0.33876078015E+02  0.12214557002E+02  0.45045682716E+02  0.00000000000E+00 0. -1.
         11    1    3    3    0    0  0.92634465410E+01  0.18463971985E+02 -0.35688256274E+01  0.20963449619E+02  0.51100000000E-03 0. -1.
        -11    1    3    3    0    0  0.13637331375E+02  0.12875611931E+02 -0.64418990635E+01  0.19830689686E+02  0.51100000000E-03 0.  1.
         12    1    3    3    0    0  0.41608086393E+01  0.25364940986E+01 -0.22038323108E+01  0.53481779794E+01  0.00000000000E+00 0. -1.
</event>
<event>
 7    1  0.2353206E-008  0.4614232E+02  0.7816164E-02  0.1320468E+00
        -11   -1    0    0    0    0  0.00000000000E+00  0.00000000000E+00  0.45593999997E+02  0.45594000000E+02  0.51100000000E-03 0. -1.
         11   -1    0    0    0    0 -0.00000000000E+00 -0.00000000000E+00 -0.45593999997E+02  0.45594000000E+02  0.51100000000E-03 0.  1.
    9900012    2    1    2    0    0  0.34004597992E+02  0.29529364327E+02  0.90410844887E+00  0.46142318140E+02  0.10000003453E+02 0.  0.
         12    1    1    2    0    0 -0.34004597992E+02 -0.29529364327E+02 -0.90410844887E+00  0.45045681860E+02  0.00000000000E+00 0. -1.
         11    1    3    3    0    0  0.55087582824E+01  0.62795570494E+01  0.15242913473E+01  0.84913319876E+01  0.51100000000E-03 0. -1.
        -11    1    3    3    0    0  0.20381384476E+02  0.18723023339E+02 -0.35632929728E+01  0.27904291662E+02  0.51100000000E-03 0.  1.
        -12    1    3    3    0    0  0.81144552336E+01  0.45267839392E+01  0.29431100744E+01  0.97466944900E+01  0.00000000000E+00 0.  1.
</event>
<event>
 7    1  0.2353206E-008  0.4614232E+02  0.7816164E-02  0.1320468E+00
        -11   -1    0    0    0    0  0.00000000000E+00  0.00000000000E+00  0.45593999997E+02  0.45594000000E+02  0.51100000000E-03 0.  1.
         11   -1    0    0    0    0 -0.00000000000E+00 -0.00000000000E+00 -0.45593999997E+02  0.45594000000E+02  0.51100000000E-03 0. -1.
    9900012    2    1    2    0    0 -0.42616242338E+02 -0.13583267916E+02 -0.53351829923E+01  0.46142318122E+02  0.10000003290E+02 0.  0.
         12    1    1    2    0    0  0.42616242338E+02  0.13583267916E+02  0.53351829923E+01  0.45045681878E+02  0.00000000000E+00 0. -1.
         11    1    3    3    0    0 -0.24788507129E+02 -0.99209123273E+01 -0.69138749559E+01  0.27580722511E+02  0.51100000000E-03 0. -1.
        -11    1    3    3    0    0 -0.11891734109E+02 -0.39208136982E+01  0.56539562247E+00  0.12534184961E+02  0.51100000000E-03 0.  1.
         12    1    3    3    0    0 -0.59360011009E+01  0.25845810944E+00  0.10132963411E+01  0.60274106496E+01  0.00000000000E+00 0. -1.
</event>
<event>
 7    1  0.2353206E-008  0.4614232E+02  0.7816164E-02  0.1320468E+00
        -11   -1    0    0    0    0  0.00000000000E+00  0.00000000000E+00  0.45593999997E+02  0.45594000000E+02  0.51100000000E-03 0. -1.
         11   -1    0    0    0    0 -0.00000000000E+00 -0.00000000000E+00 -0.45593999997E+02  0.45594000000E+02  0.51100000000E-03 0.  1.
    9900012    2    1    2    0    0  0.16890405743E+02  0.40630466122E+02 -0.96432781156E+01  0.46142318783E+02  0.10000009320E+02 0.  0.
         12    1    1    2    0    0 -0.16890405743E+02 -0.40630466122E+02  0.96432781156E+01  0.45045681217E+02  0.00000000000E+00 0. -1.
         11    1    3    3    0    0  0.80802504717E+01  0.17346085331E+02 -0.90518502545E+00  0.19157152298E+02  0.51100000000E-03 0. -1.
        -11    1    3    3    0    0  0.91358961752E+01  0.17757438491E+02 -0.63444745775E+01  0.20953366761E+02  0.51100000000E-03 0.  1.
         12    1    3    3    0    0 -0.32574090347E+00  0.55269423004E+01 -0.23936185126E+01  0.60317997242E+01  0.00000000000E+00 0. -1.
</event>
<event>
 7    1  0.2353206E-008  0.4614231E+02  0.7816164E-02  0.1320468E+00
        -11   -1    0    0    0    0  0.00000000000E+00  0.00000000000E+00  0.45593999997E+02  0.45594000000E+02  0.51100000000E-03 0.  1.
         11   -1    0    0    0    0 -0.00000000000E+00 -0.00000000000E+00 -0.45593999997E+02  0.45594000000E+02  0.51100000000E-03 0. -1.
    9900012    2    1    2    0    0  0.23372240878E+02 -0.53382106244E+01  0.38136015306E+02  0.46142314305E+02  0.99999684820E+01 0.  0.
         12    1    1    2    0    0 -0.23372240878E+02  0.53382106244E+01 -0.38136015306E+02  0.45045685695E+02  0.00000000000E+00 0. -1.
         11    1    3    3    0    0 -0.65823220885E+00  0.55463361294E-01  0.72009926360E+00  0.97718423840E+00  0.51100000000E-03 0. -1.
        -11    1    3    3    0    0  0.18293477300E+02 -0.61140803183E+01  0.26055554606E+02  0.32417976741E+02  0.51100000000E-03 0.  1.
        -12    1    3    3    0    0  0.57369957869E+01  0.72040633261E+00  0.11360361436E+02  0.12747153326E+02  0.00000000000E+00 0.  1.
</event>
<event>
 7    1  0.2353206E-008  0.4614232E+02  0.7816164E-02  0.1320468E+00
        -11   -1    0    0    0    0  0.00000000000E+00  0.00000000000E+00  0.45593999997E+02  0.45594000000E+02  0.51100000000E-03 0. -1.
         11   -1    0    0    0    0 -0.00000000000E+00 -0.00000000000E+00 -0.45593999997E+02  0.45594000000E+02  0.51100000000E-03 0.  1.
    9900012    2    1    2    0    0  0.10842136393E+02  0.19562921697E+02 -0.39100559454E+02  0.46142316782E+02  0.99999910740E+01 0.  0.
         12    1    1    2    0    0 -0.10842136393E+02 -0.19562921697E+02  0.39100559454E+02  0.45045683218E+02  0.00000000000E+00 0. -1.
         11    1    3    3    0    0  0.94003793374E+01  0.96578531972E+01 -0.20085595841E+02  0.24188270310E+02  0.51100000000E-03 0. -1.
        -11    1    3    3    0    0  0.70671045208E-01 -0.47238324661E+00 -0.55007214243E+00  0.72850528571E+00  0.51100000000E-03 0.  1.
         12    1    3    3    0    0  0.13710860107E+01  0.10377451747E+02 -0.18464891471E+02  0.21225541186E+02  0.00000000000E+00 0. -1.
</event>
<event>
 7    1  0.2353206E-008  0.4614232E+02  0.7816164E-02  0.1320468E+00
        -11   -1    0    0    0    0  0.00000000000E+00  0.00000000000E+00  0.45593999997E+02  0.45594000000E+02  0.51100000000E-03 0.  1.
         11   -1    0    0    0    0 -0.00000000000E+00 -0.00000000000E+00 -0.45593999997E+02  0.45594000000E+02  0.51100000000E-03 0. -1.
    9900012    2    1    2    0    0 -0.44331896987E+02 -0.71575058651E+01 -0.35449387291E+01  0.46142316841E+02  0.99999916061E+01 0.  0.
         12    1    1    2    0    0  0.44331896987E+02  0.71575058651E+01  0.35449387291E+01  0.45045683159E+02  0.00000000000E+00 0. -1.
         11    1    3    3    0    0 -0.23194736706E+02 -0.50107356653E+01 -0.45880480147E+01  0.24169267006E+02  0.51100000000E-03 0. -1.
        -11    1    3    3    0    0 -0.18126463205E+02  0.78438336731E-01  0.15605567186E+01  0.18193684575E+02  0.51100000000E-03 0.  1.
         12    1    3    3    0    0 -0.30106970768E+01 -0.22252085365E+01 -0.51744743300E+00  0.37793652596E+01  0.00000000000E+00 0. -1.
</event>
<event>
 7    1  0.2353206E-008  0.4614232E+02  0.7816164E-02  0.1320468E+00
        -11   -1    0    0    0    0  0.00000000000E+00  0.00000000000E+00  0.45593999997E+02  0.45594000000E+02  0.51100000000E-03 0. -1.
         11   -1    0    0    0    0 -0.00000000000E+00 -0.00000000000E+00 -0.45593999997E+02  0.45594000000E+02  0.51100000000E-03 0.  1.
    9900012    2    1    2    0    0 -0.14945607579E+02  0.25070071045E+02 -0.34310841413E+02  0.46142317781E+02  0.10000000179E+02 0.  0.
         12    1    1    2    0    0  0.14945607579E+02 -0.25070071045E+02  0.34310841413E+02  0.45045682219E+02  0.00000000000E+00 0. -1.
         11    1    3    3    0    0 -0.62355003490E+01  0.82298030229E+01 -0.13819680417E+02  0.17250933003E+02  0.51100000000E-03 0. -1.
        -11    1    3    3    0    0 -0.85413097235E+01  0.15386087484E+02 -0.20947066522E+02  0.27358093062E+02  0.51100000000E-03 0.  1.
         12    1    3    3    0    0 -0.16879750693E+00  0.14541805380E+01  0.45590552575E+00  0.15332917152E+01  0.00000000000E+00 0. -1.
</event>
<event>
 7    1  0.2353206E-008  0.4614232E+02  0.7816164E-02  0.1320468E+00
        -11   -1    0    0    0    0  0.00000000000E+00  0.00000000000E+00  0.45593999997E+02  0.45594000000E+02  0.51100000000E-03 0.  1.
         11   -1    0    0    0    0 -0.00000000000E+00 -0.00000000000E+00 -0.45593999997E+02  0.45594000000E+02  0.51100000000E-03 0. -1.
    9900012    2    1    2    0    0 -0.24166743320E+02 -0.29203037614E+02  0.24336486607E+02  0.46142317977E+02  0.10000001965E+02 0.  0.
         12    1    1    2    0    0  0.24166743320E+02  0.29203037614E+02 -0.24336486607E+02  0.45045682023E+02  0.00000000000E+00 0. -1.
         11    1    3    3    0    0 -0.12743394584E+02 -0.21706563520E+02  0.15694474140E+02  0.29662864396E+02  0.51100000000E-03 0. -1.
        -11    1    3    3    0    0 -0.22167247853E+01 -0.25451110048E+01  0.96710149165E+00  0.35109463620E+01  0.51100000000E-03 0.  1.
         12    1    3    3    0    0 -0.92066239508E+01 -0.49513630900E+01  0.76749109749E+01  0.12968507219E+02  0.00000000000E+00 0. -1.
</event>
<event>
 7    1  0.2353206E-008  0.4614232E+02  0.7816164E-02  0.1320468E+00
        -11   -1    0    0    0    0  0.00000000000E+00  0.00000000000E+00  0.45593999997E+02  0.45594000000E+02  0.51100000000E-03 0. -1.
         11   -1    0    0    0    0 -0.00000000000E+00 -0.00000000000E+00 -0.45593999997E+02  0.45594000000E+02  0.51100000000E-03 0.  1.
    9900012    2    1    2    0    0  0.36904911751E+02  0.25763047382E+02 -0.18456104905E+01  0.46142318744E+02  0.10000008960E+02 0.  0.
         12    1    1    2    0    0 -0.36904911751E+02 -0.25763047382E+02  0.18456104905E+01  0.45045681256E+02  0.00000000000E+00 0. -1.
         11    1    3    3    0    0  0.15050356911E+02  0.11478841443E+02 -0.16985474577E+01  0.19004265515E+02  0.51100000000E-03 0. -1.
        -11    1    3    3    0    0  0.18714866308E+02  0.12552537351E+02 -0.27576503465E+01  0.22702798298E+02  0.51100000000E-03 0.  1.
         12    1    3    3    0    0  0.31396885329E+01  0.17316685868E+01  0.26105873138E+01  0.44352549308E+01  0.00000000000E+00 0. -1.
</event>
<event>
 7    1  0.2353206E-008  0.4614232E+02  0.7816164E-02  0.1320468E+00
        -11   -1    0    0    0    0  0.00000000000E+00  0.00000000000E+00  0.45593999997E+02  0.45594000000E+02  0.51100000000E-03 0. -1.
         11   -1    0    0    0    0 -0.00000000000E+00 -0.00000000000E+00 -0.45593999997E+02  0.45594000000E+02  0.51100000000E-03 0.  1.
    9900012    2    1    2    0    0  0.39163204625E+02  0.13336948943E+02 -0.17818046700E+02  0.46142316613E+02  0.99999895277E+01 0.  0.
         12    1    1    2    0    0 -0.39163204625E+02 -0.13336948943E+02  0.17818046700E+02  0.45045683387E+02  0.00000000000E+00 0. -1.
         11    1    3    3    0    0  0.98723536327E+01 -0.84289194419E+00 -0.33059712202E+01  0.10445251507E+02  0.51100000000E-03 0. -1.
        -11    1    3    3    0    0  0.20412178055E+02  0.97737092679E+01 -0.89973510380E+01  0.24354357552E+02  0.51100000000E-03 0.  1.
         12    1    3    3    0    0  0.88786729375E+01  0.44061316188E+01 -0.55147244418E+01  0.11342707553E+02  0.00000000000E+00 0. -1.
</event>
<event>
 7    1  0.2353206E-008  0.4614232E+02  0.7816164E-02  0.1320468E+00
        -11   -1    0    0    0    0  0.00000000000E+00  0.00000000000E+00  0.45593999997E+02  0.45594000000E+02  0.51100000000E-03 0.  1.
         11   -1    0    0    0    0 -0.00000000000E+00 -0.00000000000E+00 -0.45593999997E+02  0.45594000000E+02  0.51100000000E-03 0. -1.
    9900012    2    1    2    0    0 -0.23974336028E+02 -0.21686230657E+02  0.31369603982E+02  0.46142318275E+02  0.10000004686E+02 0.  0.
         12    1    1    2    0    0  0.23974336028E+02  0.21686230657E+02 -0.31369603982E+02  0.45045681725E+02  0.00000000000E+00 0. -1.
         11    1    3    3    0    0 -0.10079061584E+02 -0.49606385505E+01  0.93562247578E+01  0.14619656604E+02  0.51100000000E-03 0. -1.
        -11    1    3    3    0    0 -0.89857752115E+01 -0.11420364665E+02  0.18385763080E+02  0.23435126830E+02  0.51100000000E-03 0.  1.
        -12    1    3    3    0    0 -0.49094992323E+01 -0.53052274413E+01  0.36276161444E+01  0.80875348412E+01  0.00000000000E+00 0.  1.
</event>
<event>
 7    1  0.2353206E-008  0.4614232E+02  0.7816164E-02  0.1320468E+00
        -11   -1    0    0    0    0  0.00000000000E+00  0.00000000000E+00  0.45593999997E+02  0.45594000000E+02  0.51100000000E-03 0.  1.
         11   -1    0    0    0    0 -0.00000000000E+00 -0.00000000000E+00 -0.45593999997E+02  0.45594000000E+02  0.51100000000E-03 0. -1.
    9900012    2    1    2    0    0 -0.22815188569E+02 -0.91106532784E+01  0.37756808128E+02  0.46142318824E+02  0.10000009691E+02 0.  0.
         12    1    1    2    0    0  0.22815188569E+02  0.91106532784E+01 -0.37756808128E+02  0.45045681176E+02  0.00000000000E+00 0. -1.
         11    1    3    3    0    0 -0.81610079057E+01 -0.65202624112E+01  0.11760262495E+02  0.15729578703E+02  0.51100000000E-03 0. -1.
        -11    1    3    3    0    0 -0.15009099761E+02 -0.24076934989E+01  0.24244785712E+02  0.28616074121E+02  0.51100000000E-03 0.  1.
        -12    1    3    3    0    0  0.35491909804E+00 -0.18269736833E+00  0.17517599215E+01  0.17966660004E+01  0.00000000000E+00 0.  1.
</event>
<event>
 7    1  0.2353206E-008  0.4614232E+02  0.7816164E-02  0.1320468E+00
        -11   -1    0    0    0    0  0.00000000000E+00  0.00000000000E+00  0.45593999997E+02  0.45594000000E+02  0.51100000000E-03 0.  1.
         11   -1    0    0    0    0 -0.00000000000E+00 -0.00000000000E+00 -0.45593999997E+02  0.45594000000E+02  0.51100000000E-03 0. -1.
    9900012    2    1    2    0    0  0.20135145029E+02 -0.14016365189E+02  0.37778711461E+02  0.46142316543E+02  0.99999888892E+01 0.  0.
         12    1    1    2    0    0 -0.20135145029E+02  0.14016365189E+02 -0.37778711461E+02  0.45045683457E+02  0.00000000000E+00 0. -1.
         11    1    3    3    0    0  0.23201095436E+00 -0.18162840897E+01  0.16412743614E+01  0.24589629456E+01  0.51100000000E-03 0. -1.
        -11    1    3    3    0    0  0.74452204224E+01 -0.61477941887E+01  0.89224957426E+01  0.13146771888E+02  0.51100000000E-03 0.  1.
        -12    1    3    3    0    0  0.12457913653E+02 -0.60522869108E+01  0.27214941357E+02  0.30536581710E+02  0.00000000000E+00 0.  1.
</event>
<event>
 7    1  0.2353206E-008  0.4614231E+02  0.7816164E-02  0.1320468E+00
        -11   -1    0    0    0    0  0.00000000000E+00  0.00000000000E+00  0.45593999997E+02  0.45594000000E+02  0.51100000000E-03 0. -1.
         11   -1    0    0    0    0 -0.00000000000E+00 -0.00000000000E+00 -0.45593999997E+02  0.45594000000E+02  0.51100000000E-03 0.  1.
    9900012    2    1    2    0    0  0.39280409655E+02  0.77503251923E+01 -0.20642095074E+02  0.46142309725E+02  0.99999267234E+01 0.  0.
         12    1    1    2    0    0 -0.39280409655E+02 -0.77503251923E+01  0.20642095074E+02  0.45045690275E+02  0.00000000000E+00 0. -1.
         11    1    3    3    0    0  0.11348408300E+02  0.25671491039E+01 -0.51100806472E+01  0.12707853868E+02  0.51100000000E-03 0. -1.
        -11    1    3    3    0    0  0.16917600349E+02  0.71649429339E+01 -0.10532480368E+02  0.21177222475E+02  0.51100000000E-03 0.  1.
         12    1    3    3    0    0  0.11014401006E+02 -0.19817668455E+01 -0.49995340596E+01  0.12257233382E+02  0.00000000000E+00 0. -1.
</event>
<event>
 7    1  0.2353206E-008  0.4614232E+02  0.7816164E-02  0.1320468E+00
        -11   -1    0    0    0    0  0.00000000000E+00  0.00000000000E+00  0.45593999997E+02  0.45594000000E+02  0.51100000000E-03 0.  1.
         11   -1    0    0    0    0 -0.00000000000E+00 -0.00000000000E+00 -0.45593999997E+02  0.45594000000E+02  0.51100000000E-03 0. -1.
    9900012    2    1    2    0    0  0.41657743495E+02  0.93251754512E+00 -0.17113629241E+02  0.46142317767E+02  0.10000000050E+02 0.  0.
         12    1    1    2    0    0 -0.41657743495E+02 -0.93251754512E+00  0.17113629241E+02  0.45045682233E+02  0.00000000000E+00 0. -1.
         11    1    3    3    0    0  0.39630202642E+01 -0.98219858556E+00 -0.25059737089E+01  0.47906312911E+01  0.51100000000E-03 0. -1.
        -11    1    3    3    0    0  0.29793989978E+02  0.47149987704E+01 -0.99567515110E+01  0.31765546637E+02  0.51100000000E-03 0.  1.
        -12    1    3    3    0    0  0.79007332529E+01 -0.28002826397E+01 -0.46509040214E+01  0.95861398389E+01  0.00000000000E+00 0.  1.
</event>
<event>
 7    1  0.2353206E-008  0.4614232E+02  0.7816164E-02  0.1320468E+00
        -11   -1    0    0    0    0  0.00000000000E+00  0.00000000000E+00  0.45593999997E+02  0.45594000000E+02  0.51100000000E-03 0.  1.
         11   -1    0    0    0    0 -0.00000000000E+00 -0.00000000000E+00 -0.45593999997E+02  0.45594000000E+02  0.51100000000E-03 0. -1.
    9900012    2    1    2    0    0 -0.24781369410E+02  0.48826860435E+01  0.37298211333E+02  0.46142318059E+02  0.10000002721E+02 0.  0.
         12    1    1    2    0    0  0.24781369410E+02 -0.48826860435E+01 -0.37298211333E+02  0.45045681941E+02  0.00000000000E+00 0. -1.
         11    1    3    3    0    0 -0.24661955836E+01  0.74862179244E+00  0.47672597849E+00  0.26210347507E+01  0.51100000000E-03 0. -1.
        -11    1    3    3    0    0 -0.82656041495E+01 -0.80923315083E+00  0.13449901198E+02  0.15807432200E+02  0.51100000000E-03 0.  1.
        -12    1    3    3    0    0 -0.14049569677E+02  0.49432974018E+01  0.23371584156E+02  0.27713851109E+02  0.00000000000E+00 0.  1.
</event>
<event>
 7    1  0.2353206E-008  0.4614232E+02  0.7816164E-02  0.1320468E+00
        -11   -1    0    0    0    0  0.00000000000E+00  0.00000000000E+00  0.45593999997E+02  0.45594000000E+02  0.51100000000E-03 0.  1.
         11   -1    0    0    0    0 -0.00000000000E+00 -0.00000000000E+00 -0.45593999997E+02  0.45594000000E+02  0.51100000000E-03 0. -1.
    9900012    2    1    2    0    0 -0.30864026144E+02  0.31960662387E+02 -0.74189957134E+01  0.46142317106E+02  0.99999940243E+01 0.  0.
         12    1    1    2    0    0  0.30864026144E+02 -0.31960662387E+02  0.74189957134E+01  0.45045682894E+02  0.00000000000E+00 0. -1.
         11    1    3    3    0    0 -0.10284202247E+02  0.15882442076E+02 -0.36428621145E+01  0.19268814878E+02  0.51100000000E-03 0. -1.
        -11    1    3    3    0    0 -0.20728590598E+02  0.15192315296E+02 -0.35227138246E+01  0.25940131557E+02  0.51100000000E-03 0.  1.
         12    1    3    3    0    0  0.14876670178E+00  0.88590501445E+00 -0.25341977431E+00  0.93337067032E+00  0.00000000000E+00 0. -1.
</event>
<event>
 7    1  0.2353206E-008  0.4614232E+02  0.7816164E-02  0.1320468E+00
        -11   -1    0    0    0    0  0.00000000000E+00  0.00000000000E+00  0.45593999997E+02  0.45594000000E+02  0.51100000000E-03 0. -1.
         11   -1    0    0    0    0 -0.00000000000E+00 -0.00000000000E+00 -0.45593999997E+02  0.45594000000E+02  0.51100000000E-03 0.  1.
    9900012    2    1    2    0    0  0.17556364290E+02 -0.28412384958E+02 -0.30226212967E+02  0.46142317672E+02  0.99999991842E+01 0.  0.
         12    1    1    2    0    0 -0.17556364290E+02  0.28412384958E+02  0.30226212967E+02  0.45045682328E+02  0.00000000000E+00 0. -1.
         11    1    3    3    0    0  0.28617924449E+00 -0.80680963979E+00 -0.25995234714E+01  0.27368527353E+01  0.51100000000E-03 0. -1.
        -11    1    3    3    0    0  0.20386249619E+01 -0.57237028722E+00 -0.46543315642E+00  0.21680008683E+01  0.51100000000E-03 0.  1.
        -12    1    3    3    0    0  0.15231560083E+02 -0.27033205031E+02 -0.27161256339E+02  0.41237464068E+02  0.00000000000E+00 0.  1.
</event>
<event>
 7    1  0.2353206E-008  0.4614232E+02  0.7816164E-02  0.1320468E+00
        -11   -1    0    0    0    0  0.00000000000E+00  0.00000000000E+00  0.45593999997E+02  0.45594000000E+02  0.51100000000E-03 0.  1.
         11   -1    0    0    0    0 -0.00000000000E+00 -0.00000000000E+00 -0.45593999997E+02  0.45594000000E+02  0.51100000000E-03 0. -1.
    9900012    2    1    2    0    0  0.26582092255E+02  0.93265181375E+01  0.35149991723E+02  0.46142317772E+02  0.10000000102E+02 0.  0.
         12    1    1    2    0    0 -0.26582092255E+02 -0.93265181375E+01 -0.35149991723E+02  0.45045682228E+02  0.00000000000E+00 0. -1.
         11    1    3    3    0    0  0.32197930396E+01  0.30160902077E+01  0.11184479725E+02  0.12023163242E+02  0.51100000000E-03 0. -1.
        -11    1    3    3    0    0  0.51007534732E+01  0.15954797423E+01  0.41838985785E+01  0.67873595145E+01  0.51100000000E-03 0.  1.
        -12    1    3    3    0    0  0.18261545743E+02  0.47149481874E+01  0.19781613419E+02  0.27331795016E+02  0.00000000000E+00 0.  1.
</event>
<event>
 7    1  0.2353206E-008  0.4614232E+02  0.7816164E-02  0.1320468E+00
        -11   -1    0    0    0    0  0.00000000000E+00  0.00000000000E+00  0.45593999997E+02  0.45594000000E+02  0.51100000000E-03 0.  1.
         11   -1    0    0    0    0 -0.00000000000E+00 -0.00000000000E+00 -0.45593999997E+02  0.45594000000E+02  0.51100000000E-03 0. -1.
    9900012    2    1    2    0    0  0.38614644526E+02 -0.22879803642E+02  0.38127731587E+01  0.46142318456E+02  0.10000006335E+02 0.  0.
         12    1    1    2    0    0 -0.38614644526E+02  0.22879803642E+02 -0.38127731587E+01  0.45045681544E+02  0.00000000000E+00 0. -1.
         11    1    3    3    0    0  0.62092698771E+01 -0.69011207904E+01  0.15400876585E+00  0.92846227458E+01  0.51100000000E-03 0. -1.
        -11    1    3    3    0    0  0.24368932129E+02 -0.12409775145E+02  0.54481301551E+01  0.27884215871E+02  0.51100000000E-03 0.  1.
        -12    1    3    3    0    0  0.80364425201E+01 -0.35689077070E+01 -0.17893657623E+01  0.89734798395E+01  0.00000000000E+00 0.  1.
</event>
<event>
 7    1  0.2353206E-008  0.4614232E+02  0.7816164E-02  0.1320468E+00
        -11   -1    0    0    0    0  0.00000000000E+00  0.00000000000E+00  0.45593999997E+02  0.45594000000E+02  0.51100000000E-03 0. -1.
         11   -1    0    0    0    0 -0.00000000000E+00 -0.00000000000E+00 -0.45593999997E+02  0.45594000000E+02  0.51100000000E-03 0.  1.
    9900012    2    1    2    0    0  0.34884941751E+02  0.13929136860E+01 -0.28464260376E+02  0.46142317763E+02  0.10000000013E+02 0.  0.
         12    1    1    2    0    0 -0.34884941751E+02 -0.13929136860E+01  0.28464260376E+02  0.45045682237E+02  0.00000000000E+00 0. -1.
         11    1    3    3    0    0  0.24360186922E+02 -0.26325032082E+01 -0.19007615636E+02  0.31010292363E+02  0.51100000000E-03 0. -1.
        -11    1    3    3    0    0  0.62713556405E+01  0.79167719406E+00 -0.63083487797E+01  0.89303929889E+01  0.51100000000E-03 0.  1.
         12    1    3    3    0    0  0.42533991885E+01  0.32337397002E+01 -0.31482959601E+01  0.62016324107E+01  0.00000000000E+00 0. -1.
</event>
<event>
 7    1  0.2353206E-008  0.4614232E+02  0.7816164E-02  0.1320468E+00
        -11   -1    0    0    0    0  0.00000000000E+00  0.00000000000E+00  0.45593999997E+02  0.45594000000E+02  0.51100000000E-03 0.  1.
         11   -1    0    0    0    0 -0.00000000000E+00 -0.00000000000E+00 -0.45593999997E+02  0.45594000000E+02  0.51100000000E-03 0. -1.
    9900012    2    1    2    0    0 -0.97541907545E+01  0.37159119707E+02  0.23519547480E+02  0.46142317317E+02  0.99999959523E+01 0.  0.
         12    1    1    2    0    0  0.97541907545E+01 -0.37159119707E+02 -0.23519547480E+02  0.45045682683E+02  0.00000000000E+00 0. -1.
         11    1    3    3    0    0 -0.31492497012E+01  0.35737850845E+01  0.47926510991E+01  0.67571605227E+01  0.51100000000E-03 0.  1.
        -11    1    3    3    0    0 -0.33037360893E+00  0.42314266489E+01  0.51509681072E+00  0.42754465489E+01  0.51100000000E-03 0. -1.
        -12    1    3    3    0    0 -0.62745674444E+01  0.29353907974E+02  0.18211799570E+02  0.35109710246E+02  0.00000000000E+00 0.  1.
</event>
<event>
 7    1  0.2353206E-008  0.4614232E+02  0.7816164E-02  0.1320468E+00
        -11   -1    0    0    0    0  0.00000000000E+00  0.00000000000E+00  0.45593999997E+02  0.45594000000E+02  0.51100000000E-03 0.  1.
         11   -1    0    0    0    0 -0.00000000000E+00 -0.00000000000E+00 -0.45593999997E+02  0.45594000000E+02  0.51100000000E-03 0. -1.
    9900012    2    1    2    0    0 -0.24119576897E+02 -0.14283567794E+02  0.35261014486E+02  0.46142318285E+02  0.10000004777E+02 0.  0.
         12    1    1    2    0    0  0.24119576897E+02  0.14283567794E+02 -0.35261014486E+02  0.45045681715E+02  0.00000000000E+00 0. -1.
         11    1    3    3    0    0 -0.22265351468E+02 -0.10700369897E+02  0.25494980134E+02  0.35499828228E+02  0.51100000000E-03 0.  1.
        -11    1    3    3    0    0 -0.75880116205E+00 -0.65313908954E+00  0.34796819248E+01  0.36208502362E+01  0.51100000000E-03 0. -1.
        -12    1    3    3    0    0 -0.10954242670E+01 -0.29300588074E+01  0.62863524269E+01  0.70216398210E+01  0.00000000000E+00 0.  1.
</event>
<event>
 7    1  0.2353206E-008  0.4614232E+02  0.7816164E-02  0.1320468E+00
        -11   -1    0    0    0    0  0.00000000000E+00  0.00000000000E+00  0.45593999997E+02  0.45594000000E+02  0.51100000000E-03 0. -1.
         11   -1    0    0    0    0 -0.00000000000E+00 -0.00000000000E+00 -0.45593999997E+02  0.45594000000E+02  0.51100000000E-03 0.  1.
    9900012    2    1    2    0    0  0.39464124125E+02 -0.23509000727E+01  0.21590964067E+02  0.46142317039E+02  0.99999934108E+01 0.  0.
         12    1    1    2    0    0 -0.39464124125E+02  0.23509000727E+01 -0.21590964067E+02  0.45045682961E+02  0.00000000000E+00 0. -1.
         11    1    3    3    0    0 -0.16226988306E-02  0.29632153637E+00  0.15877326988E+01  0.16151484359E+01  0.51100000000E-03 0. -1.
        -11    1    3    3    0    0  0.15125921038E+02  0.33714319229E+00  0.59046021544E+01  0.16241043059E+02  0.51100000000E-03 0.  1.
        -12    1    3    3    0    0  0.24339825786E+02 -0.29843648014E+01  0.14098629214E+02  0.28286125544E+02  0.00000000000E+00 0.  1.
</event>
<event>
 7    1  0.2353206E-008  0.4614232E+02  0.7816164E-02  0.1320468E+00
        -11   -1    0    0    0    0  0.00000000000E+00  0.00000000000E+00  0.45593999997E+02  0.45594000000E+02  0.51100000000E-03 0.  1.
         11   -1    0    0    0    0 -0.00000000000E+00 -0.00000000000E+00 -0.45593999997E+02  0.45594000000E+02  0.51100000000E-03 0. -1.
    9900012    2    1    2    0    0 -0.14663004466E+02  0.21007642340E+02  0.37051163946E+02  0.46142317783E+02  0.10000000200E+02 0.  0.
         12    1    1    2    0    0  0.14663004466E+02 -0.21007642340E+02 -0.37051163946E+02  0.45045682217E+02  0.00000000000E+00 0. -1.
         11    1    3    3    0    0 -0.10267306456E+02  0.11932815339E+02  0.16297670294E+02  0.22658855246E+02  0.51100000000E-03 0.  1.
        -11    1    3    3    0    0 -0.47295496683E+00 -0.32549988996E+00  0.33355919113E+00  0.66400193835E+00  0.51100000000E-03 0. -1.
        -12    1    3    3    0    0 -0.39227430424E+01  0.94003268906E+01  0.20419934461E+02  0.22819460599E+02  0.00000000000E+00 0.  1.
</event>
<event>
 7    1  0.2353206E-008  0.4614232E+02  0.7816164E-02  0.1320468E+00
        -11   -1    0    0    0    0  0.00000000000E+00  0.00000000000E+00  0.45593999997E+02  0.45594000000E+02  0.51100000000E-03 0.  1.
         11   -1    0    0    0    0 -0.00000000000E+00 -0.00000000000E+00 -0.45593999997E+02  0.45594000000E+02  0.51100000000E-03 0. -1.
    9900012    2    1    2    0    0 -0.44074409134E+02 -0.12475673218E+01  0.92197285887E+01  0.46142319186E+02  0.10000012990E+02 0.  0.
         12    1    1    2    0    0  0.44074409134E+02  0.12475673218E+01 -0.92197285887E+01  0.45045680814E+02  0.00000000000E+00 0. -1.
         11    1    3    3    0    0 -0.11072385430E+02 -0.11712908112E+01  0.48940063430E+01  0.12162275265E+02  0.51100000000E-03 0. -1.
        -11    1    3    3    0    0 -0.14973782260E+02  0.45489993415E-02  0.54047898754E+01  0.15919357076E+02  0.51100000000E-03 0.  1.
         12    1    3    3    0    0 -0.18028241445E+02 -0.80825509937E-01 -0.10790676296E+01  0.18060686845E+02  0.00000000000E+00 0. -1.
</event>
<event>
 7    1  0.2353206E-008  0.4614232E+02  0.7816164E-02  0.1320468E+00
        -11   -1    0    0    0    0  0.00000000000E+00  0.00000000000E+00  0.45593999997E+02  0.45594000000E+02  0.51100000000E-03 0.  1.
         11   -1    0    0    0    0 -0.00000000000E+00 -0.00000000000E+00 -0.45593999997E+02  0.45594000000E+02  0.51100000000E-03 0. -1.
    9900012    2    1    2    0    0 -0.18232302031E+02 -0.17123292675E+01  0.41155371128E+02  0.46142317836E+02  0.10000000687E+02 0.  0.
         12    1    1    2    0    0  0.18232302031E+02  0.17123292675E+01 -0.41155371128E+02  0.45045682164E+02  0.00000000000E+00 0. -1.
         11    1    3    3    0    0 -0.41710466619E+00  0.66556128536E-01  0.17023287746E-01  0.42272458439E+00  0.51100000000E-03 0. -1.
        -11    1    3    3    0    0 -0.40510198560E+01  0.31930686848E+01  0.13376870091E+02  0.14336914005E+02  0.51100000000E-03 0.  1.
        -12    1    3    3    0    0 -0.13764177509E+02 -0.49719540809E+01  0.27761477749E+02  0.31382679247E+02  0.00000000000E+00 0.  1.
</event>
<event>
 7    1  0.2353206E-008  0.4614232E+02  0.7816164E-02  0.1320468E+00
        -11   -1    0    0    0    0  0.00000000000E+00  0.00000000000E+00  0.45593999997E+02  0.45594000000E+02  0.51100000000E-03 0.  1.
         11   -1    0    0    0    0 -0.00000000000E+00 -0.00000000000E+00 -0.45593999997E+02  0.45594000000E+02  0.51100000000E-03 0. -1.
    9900012    2    1    2    0    0 -0.33120626691E+02 -0.19444873614E+02  0.23537936544E+02  0.46142317864E+02  0.10000000940E+02 0.  0.
         12    1    1    2    0    0  0.33120626691E+02  0.19444873614E+02 -0.23537936544E+02  0.45045682136E+02  0.00000000000E+00 0. -1.
         11    1    3    3    0    0 -0.12409863186E+02 -0.11558536741E+02  0.80644685658E+01  0.18778714796E+02  0.51100000000E-03 0. -1.
        -11    1    3    3    0    0 -0.13410062324E+02 -0.38436233728E+01  0.11690831916E+02  0.18201064895E+02  0.51100000000E-03 0.  1.
        -12    1    3    3    0    0 -0.73007011813E+01 -0.40427135002E+01  0.37826360627E+01  0.91625381727E+01  0.00000000000E+00 0.  1.
</event>
<event>
 7    1  0.2353206E-008  0.4614232E+02  0.7816164E-02  0.1320468E+00
        -11   -1    0    0    0    0  0.00000000000E+00  0.00000000000E+00  0.45593999997E+02  0.45594000000E+02  0.51100000000E-03 0.  1.
         11   -1    0    0    0    0 -0.00000000000E+00 -0.00000000000E+00 -0.45593999997E+02  0.45594000000E+02  0.51100000000E-03 0. -1.
    9900012    2    1    2    0    0  0.14670483102E+02 -0.61489358012E+01  0.42143576705E+02  0.46142317150E+02  0.99999944294E+01 0.  0.
         12    1    1    2    0    0 -0.14670483102E+02  0.61489358012E+01 -0.42143576705E+02  0.45045682850E+02  0.00000000000E+00 0. -1.
         11    1    3    3    0    0  0.88736104657E+01 -0.27051255522E+01  0.24537807275E+02  0.26232854460E+02  0.51100000000E-03 0. -1.
        -11    1    3    3    0    0  0.66082585951E+01 -0.95329156814E+00  0.12560759510E+02  0.14224996527E+02  0.51100000000E-03 0.  1.
         12    1    3    3    0    0 -0.81138595913E+00 -0.24905186809E+01  0.50450099194E+01  0.56844661632E+01  0.00000000000E+00 0. -1.
</event>
<event>
 7    1  0.2353206E-008  0.4614232E+02  0.7816164E-02  0.1320468E+00
        -11   -1    0    0    0    0  0.00000000000E+00  0.00000000000E+00  0.45593999997E+02  0.45594000000E+02  0.51100000000E-03 0.  1.
         11   -1    0    0    0    0 -0.00000000000E+00 -0.00000000000E+00 -0.45593999997E+02  0.45594000000E+02  0.51100000000E-03 0. -1.
    9900012    2    1    2    0    0 -0.27397643985E+02 -0.28729862968E+02  0.21285617991E+02  0.46142318127E+02  0.10000003340E+02 0.  0.
         12    1    1    2    0    0  0.27397643985E+02  0.28729862968E+02 -0.21285617991E+02  0.45045681873E+02  0.00000000000E+00 0. -1.
         11    1    3    3    0    0 -0.63492280183E+01 -0.10968174544E+02  0.80750696938E+01  0.15027318459E+02  0.51100000000E-03 0. -1.
        -11    1    3    3    0    0 -0.17754428304E+02 -0.15952003984E+02  0.90966936368E+01  0.25542826603E+02  0.51100000000E-03 0.  1.
        -12    1    3    3    0    0 -0.32939876629E+01 -0.18096844405E+01  0.41138546607E+01  0.55721730650E+01  0.00000000000E+00 0.  1.
</event>
<event>
 7    1  0.2353206E-008  0.4614232E+02  0.7816164E-02  0.1320468E+00
        -11   -1    0    0    0    0  0.00000000000E+00  0.00000000000E+00  0.45593999997E+02  0.45594000000E+02  0.51100000000E-03 0. -1.
         11   -1    0    0    0    0 -0.00000000000E+00 -0.00000000000E+00 -0.45593999997E+02  0.45594000000E+02  0.51100000000E-03 0.  1.
    9900012    2    1    2    0    0  0.26629486083E+02 -0.26097968720E+02 -0.25276074778E+02  0.46142318115E+02  0.10000003227E+02 0.  0.
         12    1    1    2    0    0 -0.26629486083E+02  0.26097968720E+02  0.25276074778E+02  0.45045681885E+02  0.00000000000E+00 0. -1.
         11    1    3    3    0    0  0.19795447729E+00 -0.53102736478E-02  0.37293581351E+00  0.42225058461E+00  0.51100000000E-03 0. -1.
        -11    1    3    3    0    0  0.18530279161E+02 -0.22247516808E+02 -0.21090429361E+02  0.35820796485E+02  0.51100000000E-03 0.  1.
        -12    1    3    3    0    0  0.79012524438E+01 -0.38451416382E+01 -0.45585812306E+01  0.98992710456E+01  0.00000000000E+00 0.  1.
</event>
<event>
 7    1  0.2353206E-008  0.4614232E+02  0.7816164E-02  0.1320468E+00
        -11   -1    0    0    0    0  0.00000000000E+00  0.00000000000E+00  0.45593999997E+02  0.45594000000E+02  0.51100000000E-03 0.  1.
         11   -1    0    0    0    0 -0.00000000000E+00 -0.00000000000E+00 -0.45593999997E+02  0.45594000000E+02  0.51100000000E-03 0. -1.
    9900012    2    1    2    0    0 -0.73820278392E+01  0.16827479390E+02  0.41127300930E+02  0.46142320080E+02  0.10000021149E+02 0.  0.
         12    1    1    2    0    0  0.73820278392E+01 -0.16827479390E+02 -0.41127300930E+02  0.45045679920E+02  0.00000000000E+00 0. -1.
         11    1    3    3    0    0 -0.20393163753E+01  0.69715454971E+00  0.59263060082E+01  0.63060240174E+01  0.51100000000E-03 0. -1.
        -11    1    3    3    0    0 -0.39817468692E+01  0.87328072244E+01  0.11545787886E+02  0.15014041705E+02  0.51100000000E-03 0.  1.
        -12    1    3    3    0    0 -0.13609645946E+01  0.73975176158E+01  0.23655207036E+02  0.24822254358E+02  0.00000000000E+00 0.  1.
</event>
<event>
 7    1  0.2353206E-008  0.4614232E+02  0.7816164E-02  0.1320468E+00
        -11   -1    0    0    0    0  0.00000000000E+00  0.00000000000E+00  0.45593999997E+02  0.45594000000E+02  0.51100000000E-03 0.  1.
         11   -1    0    0    0    0 -0.00000000000E+00 -0.00000000000E+00 -0.45593999997E+02  0.45594000000E+02  0.51100000000E-03 0. -1.
    9900012    2    1    2    0    0 -0.31985904733E+02 -0.31703838862E+02 -0.93913728969E+00  0.46142317864E+02  0.10000000942E+02 0.  0.
         12    1    1    2    0    0  0.31985904733E+02  0.31703838862E+02  0.93913728969E+00  0.45045682136E+02  0.00000000000E+00 0. -1.
         11    1    3    3    0    0 -0.21034077892E+01 -0.13810997043E+01 -0.15107503678E+01  0.29349834166E+01  0.51100000000E-03 0. -1.
        -11    1    3    3    0    0  0.29595196774E+00 -0.99143376937E-01  0.38577174063E+00  0.49622280619E+00  0.51100000000E-03 0.  1.
        -12    1    3    3    0    0 -0.30178448912E+02 -0.30223595781E+02  0.18584133747E+00  0.42711111642E+02  0.00000000000E+00 0.  1.
</event>
<event>
 7    1  0.2353206E-008  0.4614232E+02  0.7816164E-02  0.1320468E+00
        -11   -1    0    0    0    0  0.00000000000E+00  0.00000000000E+00  0.45593999997E+02  0.45594000000E+02  0.51100000000E-03 0. -1.
         11   -1    0    0    0    0 -0.00000000000E+00 -0.00000000000E+00 -0.45593999997E+02  0.45594000000E+02  0.51100000000E-03 0.  1.
    9900012    2    1    2    0    0 -0.20133014035E+02 -0.13749923303E+02 -0.37877629521E+02  0.46142318042E+02  0.10000002560E+02 0.  0.
         12    1    1    2    0    0  0.20133014035E+02  0.13749923303E+02  0.37877629521E+02  0.45045681958E+02  0.00000000000E+00 0. -1.
         11    1    3    3    0    0  0.71682549451E+00 -0.90546007444E+00 -0.16802385909E+00  0.11670171440E+01  0.51100000000E-03 0. -1.
        -11    1    3    3    0    0 -0.67457649125E+01 -0.46027071707E+01 -0.13130286447E+02  0.15462686701E+02  0.51100000000E-03 0.  1.
         12    1    3    3    0    0 -0.14104074617E+02 -0.82417560574E+01 -0.24579319214E+02  0.29512614197E+02  0.00000000000E+00 0. -1.
</event>
<event>
 7    1  0.2353206E-008  0.4614232E+02  0.7816164E-02  0.1320468E+00
        -11   -1    0    0    0    0  0.00000000000E+00  0.00000000000E+00  0.45593999997E+02  0.45594000000E+02  0.51100000000E-03 0.  1.
         11   -1    0    0    0    0 -0.00000000000E+00 -0.00000000000E+00 -0.45593999997E+02  0.45594000000E+02  0.51100000000E-03 0. -1.
    9900012    2    1    2    0    0 -0.16655736098E+02 -0.13193491646E+02  0.39719411271E+02  0.46142318759E+02  0.10000009098E+02 0.  0.
         12    1    1    2    0    0  0.16655736098E+02  0.13193491646E+02 -0.39719411271E+02  0.45045681241E+02  0.00000000000E+00 0. -1.
         11    1    3    3    0    0 -0.18160464697E+01  0.29477822235E+00  0.10303071485E+01  0.21086612012E+01  0.51100000000E-03 0. -1.
        -11    1    3    3    0    0 -0.63281471727E+01 -0.95093150000E+01  0.24268760689E+02  0.26822476844E+02  0.51100000000E-03 0.  1.
        -12    1    3    3    0    0 -0.85115424559E+01 -0.39789548680E+01  0.14420343434E+02  0.17211180714E+02  0.00000000000E+00 0.  1.
</event>
<event>
 7    1  0.2353206E-008  0.4614232E+02  0.7816164E-02  0.1320468E+00
        -11   -1    0    0    0    0  0.00000000000E+00  0.00000000000E+00  0.45593999997E+02  0.45594000000E+02  0.51100000000E-03 0.  1.
         11   -1    0    0    0    0 -0.00000000000E+00 -0.00000000000E+00 -0.45593999997E+02  0.45594000000E+02  0.51100000000E-03 0. -1.
    9900012    2    1    2    0    0 -0.44083185983E+02 -0.92137255726E+01  0.94535373202E+00  0.46142315201E+02  0.99999766547E+01 0.  0.
         12    1    1    2    0    0  0.44083185983E+02  0.92137255726E+01 -0.94535373202E+00  0.45045684799E+02  0.00000000000E+00 0. -1.
         11    1    3    3    0    0 -0.19699779135E+02 -0.46146891222E+01  0.49688853416E+01  0.20834262057E+02  0.51100000000E-03 0. -1.
        -11    1    3    3    0    0  0.73539566109E-01  0.50893004509E-01 -0.32257604382E-01  0.95073549702E-01  0.51100000000E-03 0.  1.
        -12    1    3    3    0    0 -0.24456946414E+02 -0.46499294549E+01 -0.39912740052E+01  0.25212979594E+02  0.00000000000E+00 0.  1.
</event>
<event>
 7    1  0.2353206E-008  0.4614232E+02  0.7816164E-02  0.1320468E+00
        -11   -1    0    0    0    0  0.00000000000E+00  0.00000000000E+00  0.45593999997E+02  0.45594000000E+02  0.51100000000E-03 0. -1.
         11   -1    0    0    0    0 -0.00000000000E+00 -0.00000000000E+00 -0.45593999997E+02  0.45594000000E+02  0.51100000000E-03 0.  1.
    9900012    2    1    2    0    0  0.31101399941E+02 -0.32467152592E+02 -0.27749580261E+01  0.46142317990E+02  0.10000002085E+02 0.  0.
         12    1    1    2    0    0 -0.31101399941E+02  0.32467152592E+02  0.27749580261E+01  0.45045682010E+02  0.00000000000E+00 0. -1.
         11    1    3    3    0    0  0.89771802376E+01 -0.62466238854E+01  0.11441122430E-01  0.10936645105E+02  0.51100000000E-03 0.  1.
        -11    1    3    3    0    0  0.10965044301E+02 -0.74451292362E+01 -0.11043765198E+01  0.13299691486E+02  0.51100000000E-03 0. -1.
         12    1    3    3    0    0  0.11159175402E+02 -0.18775399470E+02 -0.16820226288E+01  0.21905981399E+02  0.00000000000E+00 0. -1.
</event>
<event>
 7    1  0.2353206E-008  0.4614232E+02  0.7816164E-02  0.1320468E+00
        -11   -1    0    0    0    0  0.00000000000E+00  0.00000000000E+00  0.45593999997E+02  0.45594000000E+02  0.51100000000E-03 0.  1.
         11   -1    0    0    0    0 -0.00000000000E+00 -0.00000000000E+00 -0.45593999997E+02  0.45594000000E+02  0.51100000000E-03 0. -1.
    9900012    2    1    2    0    0 -0.40105842179E+02 -0.11238817681E+01  0.20478568578E+02  0.46142318097E+02  0.10000003062E+02 0.  0.
         12    1    1    2    0    0  0.40105842179E+02  0.11238817681E+01 -0.20478568578E+02  0.45045681903E+02  0.00000000000E+00 0. -1.
         11    1    3    3    0    0 -0.20750319081E+02 -0.87612029580E+00  0.60661953553E+01  0.21636590653E+02  0.51100000000E-03 0.  1.
        -11    1    3    3    0    0 -0.85264054113E+01  0.17460100165E+01  0.51201072585E+01  0.10097704631E+02  0.51100000000E-03 0. -1.
         12    1    3    3    0    0 -0.10829117686E+02 -0.19937714888E+01  0.92922659646E+01  0.14408022812E+02  0.00000000000E+00 0. -1.
</event>
<event>
 7    1  0.2353206E-008  0.4614232E+02  0.7816164E-02  0.1320468E+00
        -11   -1    0    0    0    0  0.00000000000E+00  0.00000000000E+00  0.45593999997E+02  0.45594000000E+02  0.51100000000E-03 0.  1.
         11   -1    0    0    0    0 -0.00000000000E+00 -0.00000000000E+00 -0.45593999997E+02  0.45594000000E+02  0.51100000000E-03 0. -1.
    9900012    2    1    2    0    0 -0.15303460511E+02 -0.56161053273E+01  0.41992581583E+02  0.46142318179E+02  0.10000003814E+02 0.  0.
         12    1    1    2    0    0  0.15303460511E+02  0.56161053273E+01 -0.41992581583E+02  0.45045681821E+02  0.00000000000E+00 0. -1.
         11    1    3    3    0    0 -0.11146217244E+02 -0.19632447797E+01  0.25368540346E+02  0.27778684787E+02  0.51100000000E-03 0. -1.
        -11    1    3    3    0    0 -0.25485541464E+01 -0.29854740837E+00  0.12699378395E+02  0.12956020634E+02  0.51100000000E-03 0.  1.
        -12    1    3    3    0    0 -0.16086891199E+01 -0.33543131392E+01  0.39246628424E+01  0.54076127586E+01  0.00000000000E+00 0.  1.
</event>
<event>
 7    1  0.2353206E-008  0.4614232E+02  0.7816164E-02  0.1320468E+00
        -11   -1    0    0    0    0  0.00000000000E+00  0.00000000000E+00  0.45593999997E+02  0.45594000000E+02  0.51100000000E-03 0.  1.
         11   -1    0    0    0    0 -0.00000000000E+00 -0.00000000000E+00 -0.45593999997E+02  0.45594000000E+02  0.51100000000E-03 0. -1.
    9900012    2    1    2    0    0 -0.15932848893E+02  0.16519986630E+02  0.38760131015E+02  0.46142318870E+02  0.10000010114E+02 0.  0.
         12    1    1    2    0    0  0.15932848893E+02 -0.16519986630E+02 -0.38760131015E+02  0.45045681130E+02  0.00000000000E+00 0. -1.
         11    1    3    3    0    0 -0.23047785313E+01  0.24604128628E+01  0.13554804079E+02  0.13967761074E+02  0.51100000000E-03 0. -1.
        -11    1    3    3    0    0 -0.42095777371E+01  0.19173290229E+01  0.55386169863E+01  0.72161605919E+01  0.51100000000E-03 0.  1.
         12    1    3    3    0    0 -0.94184926246E+01  0.12142244744E+02  0.19666709950E+02  0.24958397204E+02  0.00000000000E+00 0. -1.
</event>
<event>
 7    1  0.2353206E-008  0.4614232E+02  0.7816164E-02  0.1320468E+00
        -11   -1    0    0    0    0  0.00000000000E+00  0.00000000000E+00  0.45593999997E+02  0.45594000000E+02  0.51100000000E-03 0.  1.
         11   -1    0    0    0    0 -0.00000000000E+00 -0.00000000000E+00 -0.45593999997E+02  0.45594000000E+02  0.51100000000E-03 0. -1.
    9900012    2    1    2    0    0  0.30433862295E+02  0.28009396067E+02 -0.17842846333E+02  0.46142318658E+02  0.10000008182E+02 0.  0.
         12    1    1    2    0    0 -0.30433862295E+02 -0.28009396067E+02  0.17842846333E+02  0.45045681342E+02  0.00000000000E+00 0. -1.
         11    1    3    3    0    0  0.14222639570E+02  0.10107437645E+02 -0.86463584499E+01  0.19473142704E+02  0.51100000000E-03 0. -1.
        -11    1    3    3    0    0  0.26824773850E+01  0.23866494754E+00 -0.17294461271E+01  0.32005671444E+01  0.51100000000E-03 0.  1.
        -12    1    3    3    0    0  0.13528745340E+02  0.17663293475E+02 -0.74670417559E+01  0.23468608810E+02  0.00000000000E+00 0.  1.
</event>
<event>
 7    1  0.2353206E-008  0.4614232E+02  0.7816164E-02  0.1320468E+00
        -11   -1    0    0    0    0  0.00000000000E+00  0.00000000000E+00  0.45593999997E+02  0.45594000000E+02  0.51100000000E-03 0. -1.
         11   -1    0    0    0    0 -0.00000000000E+00 -0.00000000000E+00 -0.45593999997E+02  0.45594000000E+02  0.51100000000E-03 0.  1.
    9900012    2    1    2    0    0  0.42190938927E+01 -0.31894726791E+01 -0.44734104381E+02  0.46142316700E+02  0.99999903213E+01 0.  0.
         12    1    1    2    0    0 -0.42190938927E+01  0.31894726791E+01  0.44734104381E+02  0.45045683300E+02  0.00000000000E+00 0. -1.
         11    1    3    3    0    0 -0.84930833332E+00  0.99433935153E+00 -0.72781385044E+01  0.73946829372E+01  0.51100000000E-03 0. -1.
        -11    1    3    3    0    0  0.64513491349E+01 -0.26150125798E+01 -0.34022831902E+02  0.34727673221E+02  0.51100000000E-03 0.  1.
         12    1    3    3    0    0 -0.13829469089E+01 -0.15687994508E+01 -0.34331339741E+01  0.40199605413E+01  0.00000000000E+00 0. -1.
</event>
<event>
 7    1  0.2353206E-008  0.4614232E+02  0.7816164E-02  0.1320468E+00
        -11   -1    0    0    0    0  0.00000000000E+00  0.00000000000E+00  0.45593999997E+02  0.45594000000E+02  0.51100000000E-03 0.  1.
         11   -1    0    0    0    0 -0.00000000000E+00 -0.00000000000E+00 -0.45593999997E+02  0.45594000000E+02  0.51100000000E-03 0. -1.
    9900012    2    1    2    0    0 -0.77144693622E+00 -0.82821031947E+01  0.44271041013E+02  0.46142318342E+02  0.10000005296E+02 0.  0.
         12    1    1    2    0    0  0.77144693622E+00  0.82821031947E+01 -0.44271041013E+02  0.45045681658E+02  0.00000000000E+00 0. -1.
         11    1    3    3    0    0 -0.11273034676E+01 -0.20050351610E+01  0.30912293275E+01  0.38531387363E+01  0.51100000000E-03 0. -1.
        -11    1    3    3    0    0 -0.29306338371E+01 -0.44804289534E+01  0.30626165209E+02  0.31090591085E+02  0.51100000000E-03 0.  1.
         12    1    3    3    0    0  0.32864903685E+01 -0.17966390803E+01  0.10553646476E+02  0.11198588521E+02  0.00000000000E+00 0. -1.
</event>
<event>
 7    1  0.2353206E-008  0.4614232E+02  0.7816164E-02  0.1320468E+00
        -11   -1    0    0    0    0  0.00000000000E+00  0.00000000000E+00  0.45593999997E+02  0.45594000000E+02  0.51100000000E-03 0. -1.
         11   -1    0    0    0    0 -0.00000000000E+00 -0.00000000000E+00 -0.45593999997E+02  0.45594000000E+02  0.51100000000E-03 0.  1.
    9900012    2    1    2    0    0 -0.36820242825E+02  0.25161798641E+02  0.63456411099E+01  0.46142317037E+02  0.99999933934E+01 0.  0.
         12    1    1    2    0    0  0.36820242825E+02 -0.25161798641E+02 -0.63456411099E+01  0.45045682963E+02  0.00000000000E+00 0. -1.
         11    1    3    3    0    0 -0.16794888577E+02  0.14765864781E+02  0.21077041550E+01  0.22462000403E+02  0.51100000000E-03 0. -1.
        -11    1    3    3    0    0 -0.10948898510E+02  0.64057145469E+01 -0.49288394651E+00  0.12694663929E+02  0.51100000000E-03 0.  1.
         12    1    3    3    0    0 -0.90764557383E+01  0.39902193135E+01  0.47308209014E+01  0.10985652704E+02  0.00000000000E+00 0. -1.
</event>
<event>
 7    1  0.2353206E-008  0.4614232E+02  0.7816164E-02  0.1320468E+00
        -11   -1    0    0    0    0  0.00000000000E+00  0.00000000000E+00  0.45593999997E+02  0.45594000000E+02  0.51100000000E-03 0. -1.
         11   -1    0    0    0    0 -0.00000000000E+00 -0.00000000000E+00 -0.45593999997E+02  0.45594000000E+02  0.51100000000E-03 0.  1.
    9900012    2    1    2    0    0 -0.92082719930E+01 -0.43123508716E+02 -0.92024017307E+01  0.46142317913E+02  0.10000001388E+02 0.  0.
         12    1    1    2    0    0  0.92082719930E+01  0.43123508716E+02  0.92024017307E+01  0.45045682087E+02  0.00000000000E+00 0. -1.
         11    1    3    3    0    0 -0.44230542017E+01 -0.17671528083E+02 -0.65343049718E+01  0.19353125199E+02  0.51100000000E-03 0. -1.
        -11    1    3    3    0    0 -0.47892025381E+01 -0.20597784453E+02 -0.44643316775E+01  0.21613316333E+02  0.51100000000E-03 0.  1.
         12    1    3    3    0    0  0.39847467807E-02 -0.48541961799E+01  0.17962349186E+01  0.51758763813E+01  0.00000000000E+00 0. -1.
</event>
<event>
 7    1  0.2353206E-008  0.4614232E+02  0.7816164E-02  0.1320468E+00
        -11   -1    0    0    0    0  0.00000000000E+00  0.00000000000E+00  0.45593999997E+02  0.45594000000E+02  0.51100000000E-03 0.  1.
         11   -1    0    0    0    0 -0.00000000000E+00 -0.00000000000E+00 -0.45593999997E+02  0.45594000000E+02  0.51100000000E-03 0. -1.
    9900012    2    1    2    0    0  0.32055509373E+02 -0.21376444852E+02  0.23336782265E+02  0.46142317830E+02  0.10000000629E+02 0.  0.
         12    1    1    2    0    0 -0.32055509373E+02  0.21376444852E+02 -0.23336782265E+02  0.45045682170E+02  0.00000000000E+00 0. -1.
         11    1    3    3    0    0  0.10355458067E+01 -0.21712240021E+01  0.38756762089E+01  0.45615167567E+01  0.51100000000E-03 0. -1.
        -11    1    3    3    0    0  0.74190529893E+01 -0.56228569393E+01  0.69315309095E+01  0.11606247819E+02  0.51100000000E-03 0.  1.
         12    1    3    3    0    0  0.23600910577E+02 -0.13582363910E+02  0.12529575147E+02  0.29974553255E+02  0.00000000000E+00 0. -1.
</event>
<event>
 7    1  0.2353206E-008  0.4614232E+02  0.7816164E-02  0.1320468E+00
        -11   -1    0    0    0    0  0.00000000000E+00  0.00000000000E+00  0.45593999997E+02  0.45594000000E+02  0.51100000000E-03 0. -1.
         11   -1    0    0    0    0 -0.00000000000E+00 -0.00000000000E+00 -0.45593999997E+02  0.45594000000E+02  0.51100000000E-03 0.  1.
    9900012    2    1    2    0    0  0.80644290341E+01 -0.72139219383E-01 -0.44317866492E+02  0.46142317519E+02  0.99999977948E+01 0.  0.
         12    1    1    2    0    0 -0.80644290341E+01  0.72139219383E-01  0.44317866492E+02  0.45045682481E+02  0.00000000000E+00 0. -1.
         11    1    3    3    0    0  0.86429544121E+01  0.15725518914E+01 -0.23314098475E+02  0.24914268370E+02  0.51100000000E-03 0. -1.
        -11    1    3    3    0    0  0.64364428636E+00 -0.12280430931E+01 -0.55551296098E+01  0.57255421620E+01  0.51100000000E-03 0.  1.
         12    1    3    3    0    0 -0.12221696645E+01 -0.41664801770E+00 -0.15448638407E+02  0.15502506987E+02  0.00000000000E+00 0. -1.
</event>
<event>
 7    1  0.2353206E-008  0.4614232E+02  0.7816164E-02  0.1320468E+00
        -11   -1    0    0    0    0  0.00000000000E+00  0.00000000000E+00  0.45593999997E+02  0.45594000000E+02  0.51100000000E-03 0.  1.
         11   -1    0    0    0    0 -0.00000000000E+00 -0.00000000000E+00 -0.45593999997E+02  0.45594000000E+02  0.51100000000E-03 0. -1.
    9900012    2    1    2    0    0 -0.14035169660E+02  0.28075976294E+02  0.32308930946E+02  0.46142318175E+02  0.10000003770E+02 0.  0.
         12    1    1    2    0    0  0.14035169660E+02 -0.28075976294E+02 -0.32308930946E+02  0.45045681825E+02  0.00000000000E+00 0. -1.
         11    1    3    3    0    0  0.64950790576E+00  0.12210725041E+01  0.32318062311E+01  0.35153165371E+01  0.51100000000E-03 0. -1.
        -11    1    3    3    0    0 -0.13772337005E+02  0.20222946431E+02  0.22415286838E+02  0.33182674896E+02  0.51100000000E-03 0.  1.
        -12    1    3    3    0    0 -0.91234056067E+00  0.66319573586E+01  0.66618378768E+01  0.94443267415E+01  0.00000000000E+00 0.  1.
</event>
<event>
 7    1  0.2353206E-008  0.4614232E+02  0.7816164E-02  0.1320468E+00
        -11   -1    0    0    0    0  0.00000000000E+00  0.00000000000E+00  0.45593999997E+02  0.45594000000E+02  0.51100000000E-03 0.  1.
         11   -1    0    0    0    0 -0.00000000000E+00 -0.00000000000E+00 -0.45593999997E+02  0.45594000000E+02  0.51100000000E-03 0. -1.
    9900012    2    1    2    0    0  0.43427059240E+02  0.11741497762E+02  0.23111084433E+01  0.46142318007E+02  0.10000002244E+02 0.  0.
         12    1    1    2    0    0 -0.43427059240E+02 -0.11741497762E+02 -0.23111084433E+01  0.45045681993E+02  0.00000000000E+00 0. -1.
         11    1    3    3    0    0  0.16466997706E+01 -0.12260227715E+01  0.12006356835E+00  0.20564939805E+01  0.51100000000E-03 0. -1.
        -11    1    3    3    0    0  0.32099609275E+02  0.10866297139E+02  0.36013492430E+01  0.34079774731E+02  0.51100000000E-03 0.  1.
        -12    1    3    3    0    0  0.96807501950E+01  0.21012233944E+01 -0.14103043680E+01  0.10006049295E+02  0.00000000000E+00 0.  1.
</event>
<event>
 7    1  0.2353206E-008  0.4614232E+02  0.7816164E-02  0.1320468E+00
        -11   -1    0    0    0    0  0.00000000000E+00  0.00000000000E+00  0.45593999997E+02  0.45594000000E+02  0.51100000000E-03 0. -1.
         11   -1    0    0    0    0 -0.00000000000E+00 -0.00000000000E+00 -0.45593999997E+02  0.45594000000E+02  0.51100000000E-03 0.  1.
    9900012    2    1    2    0    0 -0.43379781262E+02 -0.80191658441E+01 -0.91104860196E+01  0.46142318756E+02  0.10000009073E+02 0.  0.
         12    1    1    2    0    0  0.43379781262E+02  0.80191658441E+01  0.91104860196E+01  0.45045681244E+02  0.00000000000E+00 0. -1.
         11    1    3    3    0    0 -0.72128548689E+01 -0.10335830953E+01 -0.67781323130E+00  0.73179915559E+01  0.51100000000E-03 0. -1.
        -11    1    3    3    0    0 -0.26191099108E+02 -0.69383307658E+01 -0.24810244626E+01  0.27207895710E+02  0.51100000000E-03 0.  1.
         12    1    3    3    0    0 -0.99758272852E+01 -0.47251982997E-01 -0.59516483257E+01  0.11616431490E+02  0.00000000000E+00 0. -1.
</event>
<event>
 7    1  0.2353206E-008  0.4614232E+02  0.7816164E-02  0.1320468E+00
        -11   -1    0    0    0    0  0.00000000000E+00  0.00000000000E+00  0.45593999997E+02  0.45594000000E+02  0.51100000000E-03 0.  1.
         11   -1    0    0    0    0 -0.00000000000E+00 -0.00000000000E+00 -0.45593999997E+02  0.45594000000E+02  0.51100000000E-03 0. -1.
    9900012    2    1    2    0    0 -0.21581526294E+02  0.22788757344E+02  0.32311355208E+02  0.46142318589E+02  0.10000007545E+02 0.  0.
         12    1    1    2    0    0  0.21581526294E+02 -0.22788757344E+02 -0.32311355208E+02  0.45045681411E+02  0.00000000000E+00 0. -1.
         11    1    3    3    0    0 -0.69008510375E+01  0.51707700698E+01  0.65944653284E+01  0.10855670471E+02  0.51100000000E-03 0. -1.
        -11    1    3    3    0    0  0.46937957833E+00  0.18829153222E+01  0.66945060019E+00  0.20527668319E+01  0.51100000000E-03 0.  1.
        -12    1    3    3    0    0 -0.15150054834E+02  0.15735071952E+02  0.25047439280E+02  0.33233881285E+02  0.00000000000E+00 0.  1.
</event>
<event>
 7    1  0.2353206E-008  0.4614232E+02  0.7816164E-02  0.1320468E+00
        -11   -1    0    0    0    0  0.00000000000E+00  0.00000000000E+00  0.45593999997E+02  0.45594000000E+02  0.51100000000E-03 0.  1.
         11   -1    0    0    0    0 -0.00000000000E+00 -0.00000000000E+00 -0.45593999997E+02  0.45594000000E+02  0.51100000000E-03 0. -1.
    9900012    2    1    2    0    0  0.20187188742E+02  0.29726583330E+02  0.27164703906E+02  0.46142317809E+02  0.10000000433E+02 0.  0.
         12    1    1    2    0    0 -0.20187188742E+02 -0.29726583330E+02 -0.27164703906E+02  0.45045682191E+02  0.00000000000E+00 0. -1.
         11    1    3    3    0    0  0.10936378421E+02  0.19358116205E+02  0.13261316393E+02  0.25888289799E+02  0.51100000000E-03 0. -1.
        -11    1    3    3    0    0  0.36971024467E+01  0.70599623716E+01  0.96517106675E+01  0.12516675048E+02  0.51100000000E-03 0.  1.
         12    1    3    3    0    0  0.55537078738E+01  0.33085047535E+01  0.42516768453E+01  0.77373529613E+01  0.00000000000E+00 0. -1.
</event>
<event>
 7    1  0.2353206E-008  0.4614232E+02  0.7816164E-02  0.1320468E+00
        -11   -1    0    0    0    0  0.00000000000E+00  0.00000000000E+00  0.45593999997E+02  0.45594000000E+02  0.51100000000E-03 0. -1.
         11   -1    0    0    0    0 -0.00000000000E+00 -0.00000000000E+00 -0.45593999997E+02  0.45594000000E+02  0.51100000000E-03 0.  1.
    9900012    2    1    2    0    0 -0.24154826821E+02 -0.36824832525E+02 -0.94651739478E+01  0.46142317997E+02  0.10000002154E+02 0.  0.
         12    1    1    2    0    0  0.24154826821E+02  0.36824832525E+02  0.94651739478E+01  0.45045682003E+02  0.00000000000E+00 0. -1.
         11    1    3    3    0    0 -0.13763982107E+02 -0.12663591843E+02 -0.30490691634E+01  0.18950213319E+02  0.51100000000E-03 0. -1.
        -11    1    3    3    0    0 -0.70344101023E+01 -0.14003816671E+02 -0.29464687429E+01  0.15945892423E+02  0.51100000000E-03 0.  1.
         12    1    3    3    0    0 -0.33564346117E+01 -0.10157424011E+02 -0.34696360415E+01  0.11246212256E+02  0.00000000000E+00 0. -1.
</event>
<event>
 7    1  0.2353206E-008  0.4614232E+02  0.7816164E-02  0.1320468E+00
        -11   -1    0    0    0    0  0.00000000000E+00  0.00000000000E+00  0.45593999997E+02  0.45594000000E+02  0.51100000000E-03 0.  1.
         11   -1    0    0    0    0 -0.00000000000E+00 -0.00000000000E+00 -0.45593999997E+02  0.45594000000E+02  0.51100000000E-03 0. -1.
    9900012    2    1    2    0    0  0.27163618939E+02  0.58282755912E+01  0.35458179940E+02  0.46142317467E+02  0.99999973167E+01 0.  0.
         12    1    1    2    0    0 -0.27163618939E+02 -0.58282755912E+01 -0.35458179940E+02  0.45045682533E+02  0.00000000000E+00 0. -1.
         11    1    3    3    0    0  0.61305022468E+01  0.49916570158E+01  0.10416126294E+02  0.13076520363E+02  0.51100000000E-03 0. -1.
        -11    1    3    3    0    0  0.74138942463E+01  0.22747760892E+01  0.72751356548E+01  0.10633345344E+02  0.51100000000E-03 0.  1.
        -12    1    3    3    0    0  0.13619222445E+02 -0.14381575138E+01  0.17766917991E+02  0.22432451760E+02  0.00000000000E+00 0.  1.
</event>
<event>
 7    1  0.2353206E-008  0.4614232E+02  0.7816164E-02  0.1320468E+00
        -11   -1    0    0    0    0  0.00000000000E+00  0.00000000000E+00  0.45593999997E+02  0.45594000000E+02  0.51100000000E-03 0.  1.
         11   -1    0    0    0    0 -0.00000000000E+00 -0.00000000000E+00 -0.45593999997E+02  0.45594000000E+02  0.51100000000E-03 0. -1.
    9900012    2    1    2    0    0 -0.30108243791E+02 -0.13190812268E+02  0.30799507090E+02  0.46142317527E+02  0.99999978651E+01 0.  0.
         12    1    1    2    0    0  0.30108243791E+02  0.13190812268E+02 -0.30799507090E+02  0.45045682473E+02  0.00000000000E+00 0. -1.
         11    1    3    3    0    0 -0.59925277834E+01 -0.21215962362E+01  0.86784357374E+01  0.10757639468E+02  0.51100000000E-03 0. -1.
        -11    1    3    3    0    0 -0.18343191137E+02 -0.59882644854E+01  0.19016003899E+02  0.27091333986E+02  0.51100000000E-03 0.  1.
         12    1    3    3    0    0 -0.57725248715E+01 -0.50809515465E+01  0.31050674535E+01  0.82933440722E+01  0.00000000000E+00 0. -1.
</event>
<event>
 7    1  0.2353206E-008  0.4614232E+02  0.7816164E-02  0.1320468E+00
        -11   -1    0    0    0    0  0.00000000000E+00  0.00000000000E+00  0.45593999997E+02  0.45594000000E+02  0.51100000000E-03 0. -1.
         11   -1    0    0    0    0 -0.00000000000E+00 -0.00000000000E+00 -0.45593999997E+02  0.45594000000E+02  0.51100000000E-03 0.  1.
    9900012    2    1    2    0    0 -0.32874655976E+01  0.75387642475E+01 -0.44288520343E+02  0.46142318402E+02  0.10000005844E+02 0.  0.
         12    1    1    2    0    0  0.32874655976E+01 -0.75387642475E+01  0.44288520343E+02  0.45045681598E+02  0.00000000000E+00 0. -1.
         11    1    3    3    0    0 -0.16234408809E+01  0.33263750521E+01 -0.10968098644E+02  0.11575816144E+02  0.51100000000E-03 0.  1.
        -11    1    3    3    0    0  0.32339691123E+01  0.12311505558E+01 -0.12109300719E+02  0.12594024459E+02  0.51100000000E-03 0. -1.
         12    1    3    3    0    0 -0.48979938290E+01  0.29812386396E+01 -0.21211120980E+02  0.21972477799E+02  0.00000000000E+00 0. -1.
</event>
<event>
 7    1  0.2353206E-008  0.4614232E+02  0.7816164E-02  0.1320468E+00
        -11   -1    0    0    0    0  0.00000000000E+00  0.00000000000E+00  0.45593999997E+02  0.45594000000E+02  0.51100000000E-03 0. -1.
         11   -1    0    0    0    0 -0.00000000000E+00 -0.00000000000E+00 -0.45593999997E+02  0.45594000000E+02  0.51100000000E-03 0.  1.
    9900012    2    1    2    0    0 -0.12407191888E+02  0.87800666870E+01 -0.42403837404E+02  0.46142318651E+02  0.10000008117E+02 0.  0.
         12    1    1    2    0    0  0.12407191888E+02 -0.87800666870E+01  0.42403837404E+02  0.45045681349E+02  0.00000000000E+00 0. -1.
         11    1    3    3    0    0  0.19283933914E+00  0.55256897991E+00 -0.11416695924E+01  0.12829377255E+01  0.51100000000E-03 0. -1.
        -11    1    3    3    0    0 -0.13879072720E+02  0.68076069203E+01 -0.33988514948E+02  0.37338871437E+02  0.51100000000E-03 0.  1.
        -12    1    3    3    0    0  0.12790414929E+01  0.14198907867E+01 -0.72736528642E+01  0.75205094890E+01  0.00000000000E+00 0.  1.
</event>
<event>
 7    1  0.2353206E-008  0.4614232E+02  0.7816164E-02  0.1320468E+00
        -11   -1    0    0    0    0  0.00000000000E+00  0.00000000000E+00  0.45593999997E+02  0.45594000000E+02  0.51100000000E-03 0.  1.
         11   -1    0    0    0    0 -0.00000000000E+00 -0.00000000000E+00 -0.45593999997E+02  0.45594000000E+02  0.51100000000E-03 0. -1.
    9900012    2    1    2    0    0 -0.18784000128E+02  0.22174880704E+02  0.34417284342E+02  0.46142318114E+02  0.10000003221E+02 0.  0.
         12    1    1    2    0    0  0.18784000128E+02 -0.22174880704E+02 -0.34417284342E+02  0.45045681886E+02  0.00000000000E+00 0. -1.
         11    1    3    3    0    0 -0.11843713285E+02  0.14489536179E+02  0.18696024799E+02  0.26453006381E+02  0.51100000000E-03 0. -1.
        -11    1    3    3    0    0 -0.48540366925E+01  0.19030208616E+01  0.44669915748E+01  0.68656517973E+01  0.51100000000E-03 0.  1.
        -12    1    3    3    0    0 -0.20862501504E+01  0.57823236638E+01  0.11254267969E+02  0.12823659936E+02  0.00000000000E+00 0.  1.
</event>
<event>
 7    1  0.2353206E-008  0.4614232E+02  0.7816164E-02  0.1320468E+00
        -11   -1    0    0    0    0  0.00000000000E+00  0.00000000000E+00  0.45593999997E+02  0.45594000000E+02  0.51100000000E-03 0. -1.
         11   -1    0    0    0    0 -0.00000000000E+00 -0.00000000000E+00 -0.45593999997E+02  0.45594000000E+02  0.51100000000E-03 0.  1.
    9900012    2    1    2    0    0 -0.13517206467E+02 -0.31431299808E+02 -0.29299693069E+02  0.46142317718E+02  0.99999996043E+01 0.  0.
         12    1    1    2    0    0  0.13517206467E+02  0.31431299808E+02  0.29299693069E+02  0.45045682282E+02  0.00000000000E+00 0. -1.
         11    1    3    3    0    0 -0.40046867354E+01 -0.78706544017E+01 -0.11250112632E+02  0.14302089045E+02  0.51100000000E-03 0. -1.
        -11    1    3    3    0    0 -0.47342333135E+01 -0.11333508275E+02 -0.12690136160E+02  0.17660717168E+02  0.51100000000E-03 0.  1.
        -12    1    3    3    0    0 -0.47782864184E+01 -0.12227137132E+02 -0.53594442775E+01  0.14179511505E+02  0.00000000000E+00 0.  1.
</event>
<event>
 7    1  0.2353206E-008  0.4614232E+02  0.7816164E-02  0.1320468E+00
        -11   -1    0    0    0    0  0.00000000000E+00  0.00000000000E+00  0.45593999997E+02  0.45594000000E+02  0.51100000000E-03 0.  1.
         11   -1    0    0    0    0 -0.00000000000E+00 -0.00000000000E+00 -0.45593999997E+02  0.45594000000E+02  0.51100000000E-03 0. -1.
    9900012    2    1    2    0    0 -0.12012818932E+01  0.39948660707E+02  0.20779195338E+02  0.46142317306E+02  0.99999958505E+01 0.  0.
         12    1    1    2    0    0  0.12012818932E+01 -0.39948660707E+02 -0.20779195338E+02  0.45045682694E+02  0.00000000000E+00 0. -1.
         11    1    3    3    0    0 -0.10611882961E+01  0.28514951951E+01  0.28042197388E+01  0.41377281269E+01  0.51100000000E-03 0. -1.
        -11    1    3    3    0    0 -0.37993567170E+01  0.14749922150E+02  0.58347013475E+01  0.16310703693E+02  0.51100000000E-03 0.  1.
        -12    1    3    3    0    0  0.36592631199E+01  0.22347243362E+02  0.12140274252E+02  0.25693885486E+02  0.00000000000E+00 0.  1.
</event>
<event>
 7    1  0.2353206E-008  0.4614232E+02  0.7816164E-02  0.1320468E+00
        -11   -1    0    0    0    0  0.00000000000E+00  0.00000000000E+00  0.45593999997E+02  0.45594000000E+02  0.51100000000E-03 0. -1.
         11   -1    0    0    0    0 -0.00000000000E+00 -0.00000000000E+00 -0.45593999997E+02  0.45594000000E+02  0.51100000000E-03 0.  1.
    9900012    2    1    2    0    0  0.58550672331E+01  0.30554296292E+02 -0.32577087301E+02  0.46142318173E+02  0.10000003758E+02 0.  0.
         12    1    1    2    0    0 -0.58550672331E+01 -0.30554296292E+02  0.32577087301E+02  0.45045681827E+02  0.00000000000E+00 0. -1.
         11    1    3    3    0    0  0.47047865793E+01  0.11217487626E+02 -0.89163871583E+01  0.15082075640E+02  0.51100000000E-03 0. -1.
        -11    1    3    3    0    0  0.37807358416E-01  0.50772994746E+00 -0.31671843464E+01  0.32078460127E+01  0.51100000000E-03 0.  1.
        -12    1    3    3    0    0  0.11124732953E+01  0.18829078718E+02 -0.20493515797E+02  0.27852396520E+02  0.00000000000E+00 0.  1.
</event>
<event>
 7    1  0.2353206E-008  0.4614232E+02  0.7816164E-02  0.1320468E+00
        -11   -1    0    0    0    0  0.00000000000E+00  0.00000000000E+00  0.45593999997E+02  0.45594000000E+02  0.51100000000E-03 0.  1.
         11   -1    0    0    0    0 -0.00000000000E+00 -0.00000000000E+00 -0.45593999997E+02  0.45594000000E+02  0.51100000000E-03 0. -1.
    9900012    2    1    2    0    0 -0.32006835354E+02 -0.87338746234E+01  0.30469582787E+02  0.46142317071E+02  0.99999937049E+01 0.  0.
         12    1    1    2    0    0  0.32006835354E+02  0.87338746234E+01 -0.30469582787E+02  0.45045682929E+02  0.00000000000E+00 0. -1.
         11    1    3    3    0    0 -0.90921501047E+01 -0.40945710713E+01  0.70509447448E+01  0.12212638038E+02  0.51100000000E-03 0. -1.
        -11    1    3    3    0    0 -0.18574722963E+02 -0.61547193833E+01  0.21114733318E+02  0.28787720771E+02  0.51100000000E-03 0.  1.
         12    1    3    3    0    0 -0.43399622865E+01  0.15154158311E+01  0.23039047247E+01  0.51419582622E+01  0.00000000000E+00 0. -1.
</event>
<event>
 7    1  0.2353206E-008  0.4614232E+02  0.7816164E-02  0.1320468E+00
        -11   -1    0    0    0    0  0.00000000000E+00  0.00000000000E+00  0.45593999997E+02  0.45594000000E+02  0.51100000000E-03 0.  1.
         11   -1    0    0    0    0 -0.00000000000E+00 -0.00000000000E+00 -0.45593999997E+02  0.45594000000E+02  0.51100000000E-03 0. -1.
    9900012    2    1    2    0    0  0.27449444191E+02 -0.35441100982E+02  0.44237843274E+01  0.46142317710E+02  0.99999995320E+01 0.  0.
         12    1    1    2    0    0 -0.27449444191E+02  0.35441100982E+02 -0.44237843274E+01  0.45045682290E+02  0.00000000000E+00 0. -1.
         11    1    3    3    0    0  0.23651197083E+02 -0.30652265855E+02  0.65409348504E+01  0.39264797905E+02  0.51100000000E-03 0.  1.
        -11    1    3    3    0    0  0.48596904407E+00 -0.31597088865E+00  0.46388175757E+00  0.74242175372E+00  0.51100000000E-03 0. -1.
        -12    1    3    3    0    0  0.33122780633E+01 -0.44728642386E+01 -0.25810322806E+01  0.61350980513E+01  0.00000000000E+00 0.  1.
</event>
<event>
 7    1  0.2353206E-008  0.4614232E+02  0.7816164E-02  0.1320468E+00
        -11   -1    0    0    0    0  0.00000000000E+00  0.00000000000E+00  0.45593999997E+02  0.45594000000E+02  0.51100000000E-03 0.  1.
         11   -1    0    0    0    0 -0.00000000000E+00 -0.00000000000E+00 -0.45593999997E+02  0.45594000000E+02  0.51100000000E-03 0. -1.
    9900012    2    1    2    0    0 -0.41835295575E+02  0.60320809861E+01  0.15573545738E+02  0.46142320032E+02  0.10000020710E+02 0.  0.
         12    1    1    2    0    0  0.41835295575E+02 -0.60320809861E+01 -0.15573545738E+02  0.45045679968E+02  0.00000000000E+00 0. -1.
         11    1    3    3    0    0 -0.14539997266E+01 -0.13130887601E+01  0.80824695493E+00  0.21193349660E+01  0.51100000000E-03 0. -1.
        -11    1    3    3    0    0 -0.23140860143E+02  0.68032320686E+01  0.70674839208E+01  0.25134293386E+02  0.51100000000E-03 0.  1.
        -12    1    3    3    0    0 -0.17240435705E+02  0.54193767755E+00  0.76978148621E+01  0.18888691681E+02  0.00000000000E+00 0.  1.
</event>
<event>
 7    1  0.2353206E-008  0.4614232E+02  0.7816164E-02  0.1320468E+00
        -11   -1    0    0    0    0  0.00000000000E+00  0.00000000000E+00  0.45593999997E+02  0.45594000000E+02  0.51100000000E-03 0.  1.
         11   -1    0    0    0    0 -0.00000000000E+00 -0.00000000000E+00 -0.45593999997E+02  0.45594000000E+02  0.51100000000E-03 0. -1.
    9900012    2    1    2    0    0 -0.15423708298E+02 -0.14237892147E+02  0.39856056343E+02  0.46142316770E+02  0.99999909620E+01 0.  0.
         12    1    1    2    0    0  0.15423708298E+02  0.14237892147E+02 -0.39856056343E+02  0.45045683230E+02  0.00000000000E+00 0. -1.
         11    1    3    3    0    0 -0.18816186142E+01 -0.25264240470E+00  0.11020749337E+02  0.11183077976E+02  0.51100000000E-03 0. -1.
        -11    1    3    3    0    0 -0.63554213658E+01 -0.86966387887E+01  0.17236980369E+02  0.20325757046E+02  0.51100000000E-03 0.  1.
        -12    1    3    3    0    0 -0.71866683179E+01 -0.52886109540E+01  0.11598326636E+02  0.14633481749E+02  0.00000000000E+00 0.  1.
</event>
<event>
 7    1  0.2353206E-008  0.4614232E+02  0.7816164E-02  0.1320468E+00
        -11   -1    0    0    0    0  0.00000000000E+00  0.00000000000E+00  0.45593999997E+02  0.45594000000E+02  0.51100000000E-03 0. -1.
         11   -1    0    0    0    0 -0.00000000000E+00 -0.00000000000E+00 -0.45593999997E+02  0.45594000000E+02  0.51100000000E-03 0.  1.
    9900012    2    1    2    0    0  0.23005456588E+01 -0.53614660209E+01 -0.44666270073E+02  0.46142317516E+02  0.99999977623E+01 0.  0.
         12    1    1    2    0    0 -0.23005456588E+01  0.53614660209E+01  0.44666270073E+02  0.45045682484E+02  0.00000000000E+00 0. -1.
         11    1    3    3    0    0  0.14098597529E+01 -0.54403085871E+00 -0.49785731193E+00  0.15910802187E+01  0.51100000000E-03 0. -1.
        -11    1    3    3    0    0 -0.11549576692E+01 -0.20977530117E+01 -0.16057231525E+02  0.16234813809E+02  0.51100000000E-03 0.  1.
        -12    1    3    3    0    0  0.20456435751E+01 -0.27196821505E+01 -0.28111181237E+02  0.28316423488E+02  0.00000000000E+00 0.  1.
</event>
<event>
 7    1  0.2353206E-008  0.4614232E+02  0.7816164E-02  0.1320468E+00
        -11   -1    0    0    0    0  0.00000000000E+00  0.00000000000E+00  0.45593999997E+02  0.45594000000E+02  0.51100000000E-03 0.  1.
         11   -1    0    0    0    0 -0.00000000000E+00 -0.00000000000E+00 -0.45593999997E+02  0.45594000000E+02  0.51100000000E-03 0. -1.
    9900012    2    1    2    0    0 -0.42504528510E+02  0.12846421381E+02 -0.75794466947E+01  0.46142317650E+02  0.99999989886E+01 0.  0.
         12    1    1    2    0    0  0.42504528510E+02 -0.12846421381E+02  0.75794466947E+01  0.45045682350E+02  0.00000000000E+00 0. -1.
         11    1    3    3    0    0 -0.11538355266E+02  0.59417272508E+01 -0.56107055322E+01  0.14139228473E+02  0.51100000000E-03 0. -1.
        -11    1    3    3    0    0 -0.74567844301E+01  0.24086572074E+01  0.93673096387E+00  0.78919407460E+01  0.51100000000E-03 0.  1.
        -12    1    3    3    0    0 -0.23509388814E+02  0.44960369230E+01 -0.29054721263E+01  0.24111148431E+02  0.00000000000E+00 0.  1.
</event>
<event>
 7    1  0.2353206E-008  0.4614232E+02  0.7816164E-02  0.1320468E+00
        -11   -1    0    0    0    0  0.00000000000E+00  0.00000000000E+00  0.45593999997E+02  0.45594000000E+02  0.51100000000E-03 0.  1.
         11   -1    0    0    0    0 -0.00000000000E+00 -0.00000000000E+00 -0.45593999997E+02  0.45594000000E+02  0.51100000000E-03 0. -1.
    9900012    2    1    2    0    0  0.36394144885E+02  0.12811633566E+02  0.23247402086E+02  0.46142318295E+02  0.10000004865E+02 0.  0.
         12    1    1    2    0    0 -0.36394144885E+02 -0.12811633566E+02 -0.23247402086E+02  0.45045681705E+02  0.00000000000E+00 0. -1.
         11    1    3    3    0    0 -0.10812228168E+00  0.45196007720E+00  0.70651656867E+00  0.84565020079E+00  0.51100000000E-03 0. -1.
        -11    1    3    3    0    0  0.68860062872E+01  0.49794887299E+01  0.28005247431E+01  0.89473643995E+01  0.51100000000E-03 0.  1.
         12    1    3    3    0    0  0.29616260880E+02  0.73801847590E+01  0.19740360774E+02  0.36349303694E+02  0.00000000000E+00 0. -1.
</event>
<event>
 7    1  0.2353206E-008  0.4614232E+02  0.7816164E-02  0.1320468E+00
        -11   -1    0    0    0    0  0.00000000000E+00  0.00000000000E+00  0.45593999997E+02  0.45594000000E+02  0.51100000000E-03 0. -1.
         11   -1    0    0    0    0 -0.00000000000E+00 -0.00000000000E+00 -0.45593999997E+02  0.45594000000E+02  0.51100000000E-03 0.  1.
    9900012    2    1    2    0    0  0.14738491052E+02  0.41398206911E+02  0.99034698137E+01  0.46142319094E+02  0.10000012156E+02 0.  0.
         12    1    1    2    0    0 -0.14738491052E+02 -0.41398206911E+02 -0.99034698137E+01  0.45045680906E+02  0.00000000000E+00 0. -1.
         11    1    3    3    0    0  0.44198141620E+01  0.51272286594E+01  0.75723374954E-01  0.67697093914E+01  0.51100000000E-03 0. -1.
        -11    1    3    3    0    0  0.41763487451E+01  0.74619192795E+01  0.93028363486E+00  0.86016019483E+01  0.51100000000E-03 0.  1.
         12    1    3    3    0    0  0.61423281446E+01  0.28809058972E+02  0.88974628039E+01  0.30771007755E+02  0.00000000000E+00 0. -1.
</event>
<event>
 7    1  0.2353206E-008  0.4614232E+02  0.7816164E-02  0.1320468E+00
        -11   -1    0    0    0    0  0.00000000000E+00  0.00000000000E+00  0.45593999997E+02  0.45594000000E+02  0.51100000000E-03 0.  1.
         11   -1    0    0    0    0 -0.00000000000E+00 -0.00000000000E+00 -0.45593999997E+02  0.45594000000E+02  0.51100000000E-03 0. -1.
    9900012    2    1    2    0    0  0.93737874727E-01  0.18297756895E+02  0.41161836475E+02  0.46142317896E+02  0.10000001232E+02 0.  0.
         12    1    1    2    0    0 -0.93737874727E-01 -0.18297756895E+02 -0.41161836475E+02  0.45045682104E+02  0.00000000000E+00 0. -1.
         11    1    3    3    0    0  0.11992479795E+01  0.10559750533E+01  0.12685692336E+01  0.20402321415E+01  0.51100000000E-03 0. -1.
        -11    1    3    3    0    0 -0.19314213635E+01  0.46543409382E+01  0.54555750774E+01  0.74267474536E+01  0.51100000000E-03 0.  1.
        -12    1    3    3    0    0  0.82591125876E+00  0.12587440904E+02  0.34437692164E+02  0.36675338301E+02  0.00000000000E+00 0.  1.
</event>
<event>
 7    1  0.2353206E-008  0.4614232E+02  0.7816164E-02  0.1320468E+00
        -11   -1    0    0    0    0  0.00000000000E+00  0.00000000000E+00  0.45593999997E+02  0.45594000000E+02  0.51100000000E-03 0. -1.
         11   -1    0    0    0    0 -0.00000000000E+00 -0.00000000000E+00 -0.45593999997E+02  0.45594000000E+02  0.51100000000E-03 0.  1.
    9900012    2    1    2    0    0  0.42563666423E+02 -0.15771327831E+01 -0.14661525518E+02  0.46142318989E+02  0.10000011201E+02 0.  0.
         12    1    1    2    0    0 -0.42563666423E+02  0.15771327831E+01  0.14661525518E+02  0.45045681011E+02  0.00000000000E+00 0. -1.
         11    1    3    3    0    0  0.23772878812E+02  0.89104974129E+00 -0.12400721274E+02  0.26827628017E+02  0.51100000000E-03 0.  1.
        -11    1    3    3    0    0  0.58195930921E+01 -0.15721929743E+01 -0.18514951117E+01  0.63061469152E+01  0.51100000000E-03 0. -1.
        -12    1    3    3    0    0  0.12971194519E+02 -0.89598955005E+00 -0.40930913232E+00  0.13008544057E+02  0.00000000000E+00 0.  1.
</event>
<event>
 7    1  0.2353206E-008  0.4614232E+02  0.7816164E-02  0.1320468E+00
        -11   -1    0    0    0    0  0.00000000000E+00  0.00000000000E+00  0.45593999997E+02  0.45594000000E+02  0.51100000000E-03 0.  1.
         11   -1    0    0    0    0 -0.00000000000E+00 -0.00000000000E+00 -0.45593999997E+02  0.45594000000E+02  0.51100000000E-03 0. -1.
    9900012    2    1    2    0    0 -0.16440104408E+02  0.14943142245E+02  0.39185954088E+02  0.46142317289E+02  0.99999956970E+01 0.  0.
         12    1    1    2    0    0  0.16440104408E+02 -0.14943142245E+02 -0.39185954088E+02  0.45045682711E+02  0.00000000000E+00 0. -1.
         11    1    3    3    0    0 -0.87288454235E+00  0.49158740760E+01  0.13192671252E+02  0.14105825761E+02  0.51100000000E-03 0. -1.
        -11    1    3    3    0    0 -0.11173054070E+02  0.85573624759E+01  0.20173152045E+02  0.24597187918E+02  0.51100000000E-03 0.  1.
         12    1    3    3    0    0 -0.43941657964E+01  0.14699056935E+01  0.58201307904E+01  0.74393036106E+01  0.00000000000E+00 0. -1.
</event>
<event>
 7    1  0.2353206E-008  0.4614232E+02  0.7816164E-02  0.1320468E+00
        -11   -1    0    0    0    0  0.00000000000E+00  0.00000000000E+00  0.45593999997E+02  0.45594000000E+02  0.51100000000E-03 0.  1.
         11   -1    0    0    0    0 -0.00000000000E+00 -0.00000000000E+00 -0.45593999997E+02  0.45594000000E+02  0.51100000000E-03 0. -1.
    9900012    2    1    2    0    0  0.30049490804E+02 -0.20391489044E+02  0.26651994186E+02  0.46142317442E+02  0.99999970899E+01 0.  0.
         12    1    1    2    0    0 -0.30049490804E+02  0.20391489044E+02 -0.26651994186E+02  0.45045682558E+02  0.00000000000E+00 0. -1.
         11    1    3    3    0    0  0.42026054733E+01 -0.42168674304E+01  0.50525454783E+01  0.78084620612E+01  0.51100000000E-03 0. -1.
        -11    1    3    3    0    0  0.23573626381E+02 -0.16359947914E+02  0.17407676971E+02  0.33561748678E+02  0.51100000000E-03 0.  1.
        -12    1    3    3    0    0  0.22732589491E+01  0.18532630049E+00  0.41917717374E+01  0.47721067031E+01  0.00000000000E+00 0.  1.
</event>
<event>
 7    1  0.2353206E-008  0.4614231E+02  0.7816164E-02  0.1320468E+00
        -11   -1    0    0    0    0  0.00000000000E+00  0.00000000000E+00  0.45593999997E+02  0.45594000000E+02  0.51100000000E-03 0.  1.
         11   -1    0    0    0    0 -0.00000000000E+00 -0.00000000000E+00 -0.45593999997E+02  0.45594000000E+02  0.51100000000E-03 0. -1.
    9900012    2    1    2    0    0 -0.17721739834E+02  0.11197831688E+02  0.39870568594E+02  0.46142314998E+02  0.99999748056E+01 0.  0.
         12    1    1    2    0    0  0.17721739834E+02 -0.11197831688E+02 -0.39870568594E+02  0.45045685002E+02  0.00000000000E+00 0. -1.
         11    1    3    3    0    0  0.86463834048E+00  0.14382668519E+01  0.26120347227E+01  0.31046636937E+01  0.51100000000E-03 0. -1.
        -11    1    3    3    0    0 -0.13500191264E+02  0.83685163327E+01  0.24116137735E+02  0.28876899579E+02  0.51100000000E-03 0.  1.
         12    1    3    3    0    0 -0.50861869112E+01  0.13910485030E+01  0.13142396136E+02  0.14160751726E+02  0.00000000000E+00 0. -1.
</event>
<event>
 7    1  0.2353206E-008  0.4614232E+02  0.7816164E-02  0.1320468E+00
        -11   -1    0    0    0    0  0.00000000000E+00  0.00000000000E+00  0.45593999997E+02  0.45594000000E+02  0.51100000000E-03 0.  1.
         11   -1    0    0    0    0 -0.00000000000E+00 -0.00000000000E+00 -0.45593999997E+02  0.45594000000E+02  0.51100000000E-03 0. -1.
    9900012    2    1    2    0    0  0.33019560613E+02  0.17936529633E+02  0.24841556883E+02  0.46142318445E+02  0.10000006239E+02 0.  0.
         12    1    1    2    0    0 -0.33019560613E+02 -0.17936529633E+02 -0.24841556883E+02  0.45045681555E+02  0.00000000000E+00 0. -1.
         11    1    3    3    0    0  0.68339909368E+01  0.30937518457E+01  0.19036985082E+01  0.77394315604E+01  0.51100000000E-03 0. -1.
        -11    1    3    3    0    0  0.82575487736E+01  0.38403172850E+01  0.10762325752E+02  0.14098326300E+02  0.51100000000E-03 0.  1.
         12    1    3    3    0    0  0.17928020902E+02  0.11002460503E+02  0.12175532622E+02  0.24304560585E+02  0.00000000000E+00 0. -1.
</event>
<event>
 7    1  0.2353206E-008  0.4614232E+02  0.7816164E-02  0.1320468E+00
        -11   -1    0    0    0    0  0.00000000000E+00  0.00000000000E+00  0.45593999997E+02  0.45594000000E+02  0.51100000000E-03 0. -1.
         11   -1    0    0    0    0 -0.00000000000E+00 -0.00000000000E+00 -0.45593999997E+02  0.45594000000E+02  0.51100000000E-03 0.  1.
    9900012    2    1    2    0    0  0.62752005961E+01 -0.21165272575E+02 -0.39265335334E+02  0.46142318025E+02  0.10000002408E+02 0.  0.
         12    1    1    2    0    0 -0.62752005961E+01  0.21165272575E+02  0.39265335334E+02  0.45045681975E+02  0.00000000000E+00 0. -1.
         11    1    3    3    0    0 -0.69642945927E+00 -0.25254795138E+01 -0.53885789914E+01  0.59916479014E+01  0.51100000000E-03 0. -1.
        -11    1    3    3    0    0  0.61484853575E+00 -0.69100897607E+01 -0.57139571801E+01  0.89875851116E+01  0.51100000000E-03 0.  1.
        -12    1    3    3    0    0  0.63567815196E+01 -0.11729703300E+02 -0.28162799163E+02  0.31163085012E+02  0.00000000000E+00 0.  1.
</event>
<event>
 7    1  0.2353206E-008  0.4614232E+02  0.7816164E-02  0.1320468E+00
        -11   -1    0    0    0    0  0.00000000000E+00  0.00000000000E+00  0.45593999997E+02  0.45594000000E+02  0.51100000000E-03 0. -1.
         11   -1    0    0    0    0 -0.00000000000E+00 -0.00000000000E+00 -0.45593999997E+02  0.45594000000E+02  0.51100000000E-03 0.  1.
    9900012    2    1    2    0    0 -0.20283458692E+02 -0.15126444042E+02 -0.37267754766E+02  0.46142317064E+02  0.99999936420E+01 0.  0.
         12    1    1    2    0    0  0.20283458692E+02  0.15126444042E+02  0.37267754766E+02  0.45045682936E+02  0.00000000000E+00 0. -1.
         11    1    3    3    0    0 -0.55243823915E+00  0.34564113353E+00 -0.42357049800E+00  0.77721813487E+00  0.51100000000E-03 0. -1.
        -11    1    3    3    0    0 -0.15039986996E+01  0.57250420946E+00 -0.54086824286E+01  0.56430150658E+01  0.51100000000E-03 0.  1.
         12    1    3    3    0    0 -0.18227021753E+02 -0.16044589385E+02 -0.31435501840E+02  0.39722083863E+02  0.00000000000E+00 0. -1.
</event>
<event>
 7    1  0.2353206E-008  0.4614231E+02  0.7816164E-02  0.1320468E+00
        -11   -1    0    0    0    0  0.00000000000E+00  0.00000000000E+00  0.45593999997E+02  0.45594000000E+02  0.51100000000E-03 0.  1.
         11   -1    0    0    0    0 -0.00000000000E+00 -0.00000000000E+00 -0.45593999997E+02  0.45594000000E+02  0.51100000000E-03 0. -1.
    9900012    2    1    2    0    0  0.28880450747E+02  0.34514564673E+02 -0.19437500314E+01  0.46142314590E+02  0.99999710821E+01 0.  0.
         12    1    1    2    0    0 -0.28880450747E+02 -0.34514564673E+02  0.19437500314E+01  0.45045685410E+02  0.00000000000E+00 0. -1.
         11    1    3    3    0    0  0.83223125639E+01  0.91710655738E+01 -0.69509173172E+00  0.12403728591E+02  0.51100000000E-03 0. -1.
        -11    1    3    3    0    0  0.19720832428E+02  0.19758823711E+02  0.16662061862E+00  0.27916842743E+02  0.51100000000E-03 0.  1.
         12    1    3    3    0    0  0.83730575496E+00  0.55846753884E+01 -0.14152789183E+01  0.58217432559E+01  0.00000000000E+00 0. -1.
</event>
<event>
 7    1  0.2353206E-008  0.4614232E+02  0.7816164E-02  0.1320468E+00
        -11   -1    0    0    0    0  0.00000000000E+00  0.00000000000E+00  0.45593999997E+02  0.45594000000E+02  0.51100000000E-03 0.  1.
         11   -1    0    0    0    0 -0.00000000000E+00 -0.00000000000E+00 -0.45593999997E+02  0.45594000000E+02  0.51100000000E-03 0. -1.
    9900012    2    1    2    0    0  0.75367356363E+01  0.97588463683E+00  0.44399985834E+02  0.46142317888E+02  0.10000001153E+02 0.  0.
         12    1    1    2    0    0 -0.75367356363E+01 -0.97588463683E+00 -0.44399985834E+02  0.45045682112E+02  0.00000000000E+00 0. -1.
         11    1    3    3    0    0  0.11107127438E-01  0.11663726775E+01  0.23140915591E+01  0.25914414128E+01  0.51100000000E-03 0. -1.
        -11    1    3    3    0    0  0.70033187730E+01  0.30613391609E+01  0.33353427070E+02  0.34217968509E+02  0.51100000000E-03 0.  1.
        -12    1    3    3    0    0  0.52230973590E+00 -0.32518272016E+01  0.87324672055E+01  0.93329079661E+01  0.00000000000E+00 0.  1.
</event>
<event>
 7    1  0.2353206E-008  0.4614232E+02  0.7816164E-02  0.1320468E+00
        -11   -1    0    0    0    0  0.00000000000E+00  0.00000000000E+00  0.45593999997E+02  0.45594000000E+02  0.51100000000E-03 0.  1.
         11   -1    0    0    0    0 -0.00000000000E+00 -0.00000000000E+00 -0.45593999997E+02  0.45594000000E+02  0.51100000000E-03 0. -1.
    9900012    2    1    2    0    0 -0.27310956292E+00  0.35673566100E+02  0.27503373397E+02  0.46142318128E+02  0.10000003343E+02 0.  0.
         12    1    1    2    0    0  0.27310956292E+00 -0.35673566100E+02 -0.27503373397E+02  0.45045681872E+02  0.00000000000E+00 0. -1.
         11    1    3    3    0    0  0.84127813577E-01 -0.15193103223E+00  0.17188335728E+01  0.17275849154E+01  0.51100000000E-03 0. -1.
        -11    1    3    3    0    0 -0.33916415870E+00  0.58701693439E+01  0.21587368038E+01  0.62637101866E+01  0.51100000000E-03 0.  1.
        -12    1    3    3    0    0 -0.18073217798E-01  0.29955327789E+02  0.23625803020E+02  0.38151023026E+02  0.00000000000E+00 0.  1.
</event>
<event>
 7    1  0.2353206E-008  0.4614232E+02  0.7816164E-02  0.1320468E+00
        -11   -1    0    0    0    0  0.00000000000E+00  0.00000000000E+00  0.45593999997E+02  0.45594000000E+02  0.51100000000E-03 0.  1.
         11   -1    0    0    0    0 -0.00000000000E+00 -0.00000000000E+00 -0.45593999997E+02  0.45594000000E+02  0.51100000000E-03 0. -1.
    9900012    2    1    2    0    0  0.12495293026E+02 -0.25156630532E+02  0.35215406468E+02  0.46142320293E+02  0.10000023087E+02 0.  0.
         12    1    1    2    0    0 -0.12495293026E+02  0.25156630532E+02 -0.35215406468E+02  0.45045679707E+02  0.00000000000E+00 0. -1.
         11    1    3    3    0    0 -0.42551860332E+00 -0.91795114277E+01  0.10135800554E+02  0.13681335800E+02  0.51100000000E-03 0. -1.
        -11    1    3    3    0    0  0.35893849264E+01 -0.54192181851E+01  0.85599952205E+01  0.10748261642E+02  0.51100000000E-03 0.  1.
         12    1    3    3    0    0  0.93314267029E+01 -0.10557900920E+02  0.16519610693E+02  0.21712722851E+02  0.00000000000E+00 0. -1.
</event>
<event>
 7    1  0.2353206E-008  0.4614232E+02  0.7816164E-02  0.1320468E+00
        -11   -1    0    0    0    0  0.00000000000E+00  0.00000000000E+00  0.45593999997E+02  0.45594000000E+02  0.51100000000E-03 0. -1.
         11   -1    0    0    0    0 -0.00000000000E+00 -0.00000000000E+00 -0.45593999997E+02  0.45594000000E+02  0.51100000000E-03 0.  1.
    9900012    2    1    2    0    0  0.37511465104E+02  0.14588993756E+02 -0.20227824337E+02  0.46142316184E+02  0.99999856146E+01 0.  0.
         12    1    1    2    0    0 -0.37511465104E+02 -0.14588993756E+02  0.20227824337E+02  0.45045683816E+02  0.00000000000E+00 0. -1.
         11    1    3    3    0    0  0.13709840356E+02  0.21313349366E+01 -0.62766354827E+01  0.15228212779E+02  0.51100000000E-03 0. -1.
        -11    1    3    3    0    0  0.64672447073E+01  0.60677581428E+01 -0.26437423736E+01  0.92537731214E+01  0.51100000000E-03 0.  1.
        -12    1    3    3    0    0  0.17334380041E+02  0.63899006767E+01 -0.11307446481E+02  0.21660330283E+02  0.00000000000E+00 0.  1.
</event>
<event>
 7    1  0.2353206E-008  0.4614232E+02  0.7816164E-02  0.1320468E+00
        -11   -1    0    0    0    0  0.00000000000E+00  0.00000000000E+00  0.45593999997E+02  0.45594000000E+02  0.51100000000E-03 0.  1.
         11   -1    0    0    0    0 -0.00000000000E+00 -0.00000000000E+00 -0.45593999997E+02  0.45594000000E+02  0.51100000000E-03 0. -1.
    9900012    2    1    2    0    0  0.34172079405E+02  0.25381155412E+02  0.14737012270E+02  0.46142316616E+02  0.99999895578E+01 0.  0.
         12    1    1    2    0    0 -0.34172079405E+02 -0.25381155412E+02 -0.14737012270E+02  0.45045683384E+02  0.00000000000E+00 0. -1.
         11    1    3    3    0    0  0.50283634723E+01  0.34796567957E+01  0.44727120188E+01  0.75761206227E+01  0.51100000000E-03 0. -1.
        -11    1    3    3    0    0  0.23697852487E+02  0.19024333104E+02  0.11094701420E+02  0.32351288419E+02  0.51100000000E-03 0.  1.
         12    1    3    3    0    0  0.54458634460E+01  0.28771655115E+01 -0.83040116801E+00  0.62149075739E+01  0.00000000000E+00 0. -1.
</event>
<event>
 7    1  0.2353206E-008  0.4614232E+02  0.7816164E-02  0.1320468E+00
        -11   -1    0    0    0    0  0.00000000000E+00  0.00000000000E+00  0.45593999997E+02  0.45594000000E+02  0.51100000000E-03 0.  1.
         11   -1    0    0    0    0 -0.00000000000E+00 -0.00000000000E+00 -0.45593999997E+02  0.45594000000E+02  0.51100000000E-03 0. -1.
    9900012    2    1    2    0    0  0.10428050024E+02 -0.92721169002E+01  0.42829858255E+02  0.46142321658E+02  0.10000035539E+02 0.  0.
         12    1    1    2    0    0 -0.10428050024E+02  0.92721169002E+01 -0.42829858255E+02  0.45045678342E+02  0.00000000000E+00 0. -1.
         11    1    3    3    0    0  0.20905295683E+01 -0.23614750759E+01  0.12398311072E+02  0.12793162084E+02  0.51100000000E-03 0. -1.
        -11    1    3    3    0    0  0.18167315257E+01 -0.85422376568E+00  0.17711834961E+02  0.17825243606E+02  0.51100000000E-03 0.  1.
         12    1    3    3    0    0  0.65207889301E+01 -0.60564180587E+01  0.12719712222E+02  0.15523915968E+02  0.00000000000E+00 0. -1.
</event>
<event>
 7    1  0.2353206E-008  0.4614232E+02  0.7816164E-02  0.1320468E+00
        -11   -1    0    0    0    0  0.00000000000E+00  0.00000000000E+00  0.45593999997E+02  0.45594000000E+02  0.51100000000E-03 0. -1.
         11   -1    0    0    0    0 -0.00000000000E+00 -0.00000000000E+00 -0.45593999997E+02  0.45594000000E+02  0.51100000000E-03 0.  1.
    9900012    2    1    2    0    0  0.24206150573E+02 -0.36342629259E+02  0.11062958735E+02  0.46142317821E+02  0.10000000549E+02 0.  0.
         12    1    1    2    0    0 -0.24206150573E+02  0.36342629259E+02 -0.11062958735E+02  0.45045682179E+02  0.00000000000E+00 0. -1.
         11    1    3    3    0    0  0.30601493926E+01 -0.63163456214E+01  0.32543186307E+01  0.77363638956E+01  0.51100000000E-03 0. -1.
        -11    1    3    3    0    0  0.19775714244E+02 -0.23578344395E+02  0.47466234859E+01  0.31137559844E+02  0.51100000000E-03 0.  1.
         12    1    3    3    0    0  0.13702869365E+01 -0.64479392419E+01  0.30620166181E+01  0.72683940816E+01  0.00000000000E+00 0. -1.
</event>
<event>
 7    1  0.2353206E-008  0.4614232E+02  0.7816164E-02  0.1320468E+00
        -11   -1    0    0    0    0  0.00000000000E+00  0.00000000000E+00  0.45593999997E+02  0.45594000000E+02  0.51100000000E-03 0.  1.
         11   -1    0    0    0    0 -0.00000000000E+00 -0.00000000000E+00 -0.45593999997E+02  0.45594000000E+02  0.51100000000E-03 0. -1.
    9900012    2    1    2    0    0  0.30522003814E+02 -0.32270957159E+02  0.74903990474E+01  0.46142317957E+02  0.10000001790E+02 0.  0.
         12    1    1    2    0    0 -0.30522003814E+02  0.32270957159E+02 -0.74903990474E+01  0.45045682043E+02  0.00000000000E+00 0. -1.
         11    1    3    3    0    0  0.61898882660E+01 -0.10569438503E+02  0.47008263585E+01  0.13119661418E+02  0.51100000000E-03 0. -1.
        -11    1    3    3    0    0  0.19108019692E+02 -0.19234113827E+02  0.26784096173E+01  0.27244108163E+02  0.51100000000E-03 0.  1.
         12    1    3    3    0    0  0.52240958564E+01 -0.24674048287E+01  0.11116307157E+00  0.57785483760E+01  0.00000000000E+00 0. -1.
</event>
<event>
 7    1  0.2353206E-008  0.4614232E+02  0.7816164E-02  0.1320468E+00
        -11   -1    0    0    0    0  0.00000000000E+00  0.00000000000E+00  0.45593999997E+02  0.45594000000E+02  0.51100000000E-03 0.  1.
         11   -1    0    0    0    0 -0.00000000000E+00 -0.00000000000E+00 -0.45593999997E+02  0.45594000000E+02  0.51100000000E-03 0. -1.
    9900012    2    1    2    0    0  0.36906834648E+02 -0.16898703519E+02  0.19530307500E+02  0.46142317239E+02  0.99999952345E+01 0.  0.
         12    1    1    2    0    0 -0.36906834648E+02  0.16898703519E+02 -0.19530307500E+02  0.45045682761E+02  0.00000000000E+00 0. -1.
         11    1    3    3    0    0  0.16112781506E+02 -0.93386648376E+01  0.12174655860E+02  0.22249823244E+02  0.51100000000E-03 0. -1.
        -11    1    3    3    0    0  0.17151352702E+02 -0.81218414857E+01  0.54556319401E+01  0.19745812943E+02  0.51100000000E-03 0.  1.
        -12    1    3    3    0    0  0.36427004397E+01  0.56180280418E+00  0.19000197000E+01  0.41466810517E+01  0.00000000000E+00 0.  1.
</event>
<event>
 7    1  0.2353206E-008  0.4614231E+02  0.7816164E-02  0.1320468E+00
        -11   -1    0    0    0    0  0.00000000000E+00  0.00000000000E+00  0.45593999997E+02  0.45594000000E+02  0.51100000000E-03 0.  1.
         11   -1    0    0    0    0 -0.00000000000E+00 -0.00000000000E+00 -0.45593999997E+02  0.45594000000E+02  0.51100000000E-03 0. -1.
    9900012    2    1    2    0    0  0.61889830838E+01 -0.17551923267E+02  0.41021219659E+02  0.46142312257E+02  0.99999498067E+01 0.  0.
         12    1    1    2    0    0 -0.61889830838E+01  0.17551923267E+02 -0.41021219659E+02  0.45045687743E+02  0.00000000000E+00 0. -1.
         11    1    3    3    0    0  0.65912368142E+00 -0.37045551775E+01  0.65209930685E+01  0.75287132998E+01  0.51100000000E-03 0. -1.
        -11    1    3    3    0    0  0.30464401964E+01 -0.11387412875E+02  0.32532502987E+02  0.34602279125E+02  0.51100000000E-03 0.  1.
         12    1    3    3    0    0  0.24834192059E+01 -0.24599552144E+01  0.19677236038E+01  0.40113198315E+01  0.00000000000E+00 0. -1.
</event>
<event>
 7    1  0.2353206E-008  0.4614232E+02  0.7816164E-02  0.1320468E+00
        -11   -1    0    0    0    0  0.00000000000E+00  0.00000000000E+00  0.45593999997E+02  0.45594000000E+02  0.51100000000E-03 0.  1.
         11   -1    0    0    0    0 -0.00000000000E+00 -0.00000000000E+00 -0.45593999997E+02  0.45594000000E+02  0.51100000000E-03 0. -1.
    9900012    2    1    2    0    0  0.16709133794E+02  0.31471567763E+02  0.27558280022E+02  0.46142317328E+02  0.99999960517E+01 0.  0.
         12    1    1    2    0    0 -0.16709133794E+02 -0.31471567763E+02 -0.27558280022E+02  0.45045682672E+02  0.00000000000E+00 0. -1.
         11    1    3    3    0    0  0.10849202680E+02  0.19668144023E+02  0.18186627276E+02  0.28901461902E+02  0.51100000000E-03 0. -1.
        -11    1    3    3    0    0  0.70790224238E+01  0.10444480618E+02  0.85321543251E+01  0.15231460585E+02  0.51100000000E-03 0.  1.
         12    1    3    3    0    0 -0.12190913104E+01  0.13589431220E+01  0.83949842138E+00  0.20093948421E+01  0.00000000000E+00 0. -1.
</event>
<event>
 7    1  0.2353206E-008  0.4614232E+02  0.7816164E-02  0.1320468E+00
        -11   -1    0    0    0    0  0.00000000000E+00  0.00000000000E+00  0.45593999997E+02  0.45594000000E+02  0.51100000000E-03 0.  1.
         11   -1    0    0    0    0 -0.00000000000E+00 -0.00000000000E+00 -0.45593999997E+02  0.45594000000E+02  0.51100000000E-03 0. -1.
    9900012    2    1    2    0    0  0.29931248961E+02 -0.24536770430E+02  0.23047358481E+02  0.46142317627E+02  0.99999987741E+01 0.  0.
         12    1    1    2    0    0 -0.29931248961E+02  0.24536770430E+02 -0.23047358481E+02  0.45045682373E+02  0.00000000000E+00 0. -1.
         11    1    3    3    0    0  0.34067275063E+01 -0.40611274612E+01  0.15037986247E-01  0.53008277618E+01  0.51100000000E-03 0.  1.
        -11    1    3    3    0    0  0.49907492892E+01 -0.41372499800E+01  0.63674347748E+01  0.90867288799E+01  0.51100000000E-03 0. -1.
        -12    1    3    3    0    0  0.21533772166E+02 -0.16338392989E+02  0.16664885720E+02  0.31754760985E+02  0.00000000000E+00 0.  1.
</event>
<event>
 7    1  0.2353206E-008  0.4614231E+02  0.7816164E-02  0.1320468E+00
        -11   -1    0    0    0    0  0.00000000000E+00  0.00000000000E+00  0.45593999997E+02  0.45594000000E+02  0.51100000000E-03 0.  1.
         11   -1    0    0    0    0 -0.00000000000E+00 -0.00000000000E+00 -0.45593999997E+02  0.45594000000E+02  0.51100000000E-03 0. -1.
    9900012    2    1    2    0    0 -0.32387215054E+02  0.10024912679E+01  0.31291806294E+02  0.46142313982E+02  0.99999655390E+01 0.  0.
         12    1    1    2    0    0  0.32387215054E+02 -0.10024912679E+01 -0.31291806294E+02  0.45045686018E+02  0.00000000000E+00 0. -1.
         11    1    3    3    0    0 -0.13514967921E+02 -0.12879622977E+01  0.73959196171E+01  0.15460039845E+02  0.51100000000E-03 0. -1.
        -11    1    3    3    0    0 -0.87828440708E+01  0.19812018921E+01  0.93814199760E+01  0.13002867066E+02  0.51100000000E-03 0.  1.
        -12    1    3    3    0    0 -0.10089403062E+02  0.30925167340E+00  0.14514466701E+02  0.17679407071E+02  0.00000000000E+00 0.  1.
</event>
<event>
 7    1  0.2353206E-008  0.4614232E+02  0.7816164E-02  0.1320468E+00
        -11   -1    0    0    0    0  0.00000000000E+00  0.00000000000E+00  0.45593999997E+02  0.45594000000E+02  0.51100000000E-03 0.  1.
         11   -1    0    0    0    0 -0.00000000000E+00 -0.00000000000E+00 -0.45593999997E+02  0.45594000000E+02  0.51100000000E-03 0. -1.
    9900012    2    1    2    0    0 -0.29429950484E+02  0.68972271026E+01  0.33397899812E+02  0.46142318308E+02  0.10000004990E+02 0.  0.
         12    1    1    2    0    0  0.29429950484E+02 -0.68972271026E+01 -0.33397899812E+02  0.45045681692E+02  0.00000000000E+00 0. -1.
         11    1    3    3    0    0 -0.27284232556E+01  0.25458372305E+01  0.12223429890E+01  0.39267930057E+01  0.51100000000E-03 0. -1.
        -11    1    3    3    0    0 -0.32410636427E+01 -0.35715304881E+00  0.53809206203E+01  0.62917691327E+01  0.51100000000E-03 0.  1.
        -12    1    3    3    0    0 -0.23460463586E+02  0.47085429209E+01  0.26794636203E+02  0.35923756170E+02  0.00000000000E+00 0.  1.
</event>
<event>
 7    1  0.2353206E-008  0.4614232E+02  0.7816164E-02  0.1320468E+00
        -11   -1    0    0    0    0  0.00000000000E+00  0.00000000000E+00  0.45593999997E+02  0.45594000000E+02  0.51100000000E-03 0.  1.
         11   -1    0    0    0    0 -0.00000000000E+00 -0.00000000000E+00 -0.45593999997E+02  0.45594000000E+02  0.51100000000E-03 0. -1.
    9900012    2    1    2    0    0 -0.34867131515E+02  0.23382701271E+02  0.16329298883E+02  0.46142316735E+02  0.99999906451E+01 0.  0.
         12    1    1    2    0    0  0.34867131515E+02 -0.23382701271E+02 -0.16329298883E+02  0.45045683265E+02  0.00000000000E+00 0. -1.
         11    1    3    3    0    0 -0.66019491283E+01  0.79747170724E+01  0.38274949780E+01  0.11037733587E+02  0.51100000000E-03 0. -1.
        -11    1    3    3    0    0 -0.24757533279E+02  0.15301792741E+02  0.12277251275E+02  0.31588149902E+02  0.51100000000E-03 0.  1.
        -12    1    3    3    0    0 -0.35076491074E+01  0.10619145757E+00  0.22455263080E+00  0.35164332455E+01  0.00000000000E+00 0.  1.
</event>
<event>
 7    1  0.2353206E-008  0.4614232E+02  0.7816164E-02  0.1320468E+00
        -11   -1    0    0    0    0  0.00000000000E+00  0.00000000000E+00  0.45593999997E+02  0.45594000000E+02  0.51100000000E-03 0.  1.
         11   -1    0    0    0    0 -0.00000000000E+00 -0.00000000000E+00 -0.45593999997E+02  0.45594000000E+02  0.51100000000E-03 0. -1.
    9900012    2    1    2    0    0 -0.43187172009E+02 -0.11869773971E+02 -0.48052180936E+01  0.46142317841E+02  0.10000000729E+02 0.  0.
         12    1    1    2    0    0  0.43187172009E+02  0.11869773971E+02  0.48052180936E+01  0.45045682159E+02  0.00000000000E+00 0. -1.
         11    1    3    3    0    0 -0.75609651376E+01 -0.36854125608E+01 -0.35972351417E+01  0.91482545046E+01  0.51100000000E-03 0. -1.
        -11    1    3    3    0    0 -0.16593606797E+02 -0.99098389469E+00 -0.25435344176E+00  0.16625117490E+02  0.51100000000E-03 0.  1.
        -12    1    3    3    0    0 -0.19032600074E+02 -0.71933775158E+01 -0.95362951013E+00  0.20368945847E+02  0.00000000000E+00 0.  1.
</event>
<event>
 7    1  0.2353206E-008  0.4614232E+02  0.7816164E-02  0.1320468E+00
        -11   -1    0    0    0    0  0.00000000000E+00  0.00000000000E+00  0.45593999997E+02  0.45594000000E+02  0.51100000000E-03 0.  1.
         11   -1    0    0    0    0 -0.00000000000E+00 -0.00000000000E+00 -0.45593999997E+02  0.45594000000E+02  0.51100000000E-03 0. -1.
    9900012    2    1    2    0    0  0.22969434351E+02  0.13879804726E+01  0.38724566893E+02  0.46142317796E+02  0.10000000316E+02 0.  0.
         12    1    1    2    0    0 -0.22969434351E+02 -0.13879804726E+01 -0.38724566893E+02  0.45045682204E+02  0.00000000000E+00 0. -1.
         11    1    3    3    0    0  0.24364902952E+00 -0.14891440573E+00  0.57011727931E+01  0.57083195274E+01  0.51100000000E-03 0. -1.
        -11    1    3    3    0    0  0.18940625893E+02 -0.96410519342E-01  0.29239070750E+02  0.34837908416E+02  0.51100000000E-03 0.  1.
        -12    1    3    3    0    0  0.37851594282E+01  0.16333053977E+01  0.37843233502E+01  0.55960898526E+01  0.00000000000E+00 0.  1.
</event>
<event>
 7    1  0.2353206E-008  0.4614232E+02  0.7816164E-02  0.1320468E+00
        -11   -1    0    0    0    0  0.00000000000E+00  0.00000000000E+00  0.45593999997E+02  0.45594000000E+02  0.51100000000E-03 0.  1.
         11   -1    0    0    0    0 -0.00000000000E+00 -0.00000000000E+00 -0.45593999997E+02  0.45594000000E+02  0.51100000000E-03 0. -1.
    9900012    2    1    2    0    0  0.16655093370E+02  0.30511307278E+01  0.41742207793E+02  0.46142318239E+02  0.10000004358E+02 0.  0.
         12    1    1    2    0    0 -0.16655093370E+02 -0.30511307278E+01 -0.41742207793E+02  0.45045681761E+02  0.00000000000E+00 0. -1.
         11    1    3    3    0    0  0.67668098910E+01  0.45518503193E+01  0.12178901724E+02  0.14657240699E+02  0.51100000000E-03 0.  1.
        -11    1    3    3    0    0  0.56249004179E+00 -0.90621514207E+00  0.11225213359E+01  0.15484428764E+01  0.51100000000E-03 0. -1.
        -12    1    3    3    0    0  0.93257934369E+01 -0.59450444934E+00  0.28440784733E+02  0.29936634664E+02  0.00000000000E+00 0.  1.
</event>
<event>
 7    1  0.2353206E-008  0.4614232E+02  0.7816164E-02  0.1320468E+00
        -11   -1    0    0    0    0  0.00000000000E+00  0.00000000000E+00  0.45593999997E+02  0.45594000000E+02  0.51100000000E-03 0.  1.
         11   -1    0    0    0    0 -0.00000000000E+00 -0.00000000000E+00 -0.45593999997E+02  0.45594000000E+02  0.51100000000E-03 0. -1.
    9900012    2    1    2    0    0  0.29862997489E+02  0.33571295318E+02 -0.32067043812E+01  0.46142318283E+02  0.10000004761E+02 0.  0.
         12    1    1    2    0    0 -0.29862997489E+02 -0.33571295318E+02  0.32067043812E+01  0.45045681717E+02  0.00000000000E+00 0. -1.
         11    1    3    3    0    0  0.42162844702E+01  0.60196018999E+01  0.12229267106E+01  0.74503833302E+01  0.51100000000E-03 0. -1.
        -11    1    3    3    0    0  0.19125791918E+02  0.21593393766E+02 -0.79487509395E-01  0.28845743002E+02  0.51100000000E-03 0.  1.
         12    1    3    3    0    0  0.65209211008E+01  0.59582996515E+01 -0.43501435824E+01  0.98461919506E+01  0.00000000000E+00 0. -1.
</event>
<event>
 7    1  0.2353206E-008  0.4614232E+02  0.7816164E-02  0.1320468E+00
        -11   -1    0    0    0    0  0.00000000000E+00  0.00000000000E+00  0.45593999997E+02  0.45594000000E+02  0.51100000000E-03 0. -1.
         11   -1    0    0    0    0 -0.00000000000E+00 -0.00000000000E+00 -0.45593999997E+02  0.45594000000E+02  0.51100000000E-03 0.  1.
    9900012    2    1    2    0    0  0.57191586830E+01  0.18121171989E+02 -0.40841496693E+02  0.46142317605E+02  0.99999985794E+01 0.  0.
         12    1    1    2    0    0 -0.57191586830E+01 -0.18121171989E+02  0.40841496693E+02  0.45045682395E+02  0.00000000000E+00 0. -1.
         11    1    3    3    0    0  0.19399678074E+01  0.50239848029E+00 -0.37416415506E+01  0.42444977420E+01  0.51100000000E-03 0. -1.
        -11    1    3    3    0    0  0.32691205588E+01  0.10839870218E+02 -0.15110766316E+02  0.18881874761E+02  0.51100000000E-03 0.  1.
        -12    1    3    3    0    0  0.51007031673E+00  0.67789032903E+01 -0.21989088826E+02  0.23015945102E+02  0.00000000000E+00 0.  1.
</event>
<event>
 7    1  0.2353206E-008  0.4614232E+02  0.7816164E-02  0.1320468E+00
        -11   -1    0    0    0    0  0.00000000000E+00  0.00000000000E+00  0.45593999997E+02  0.45594000000E+02  0.51100000000E-03 0.  1.
         11   -1    0    0    0    0 -0.00000000000E+00 -0.00000000000E+00 -0.45593999997E+02  0.45594000000E+02  0.51100000000E-03 0. -1.
    9900012    2    1    2    0    0 -0.34887086652E+02  0.14857307022E+02  0.24315940951E+02  0.46142319060E+02  0.10000011840E+02 0.  0.
         12    1    1    2    0    0  0.34887086652E+02 -0.14857307022E+02 -0.24315940951E+02  0.45045680940E+02  0.00000000000E+00 0. -1.
         11    1    3    3    0    0 -0.17952169047E+02  0.89740466881E+01  0.10256052288E+02  0.22538866348E+02  0.51100000000E-03 0. -1.
        -11    1    3    3    0    0 -0.12380128204E+02  0.22284205487E+01  0.68436195900E+01  0.14320215147E+02  0.51100000000E-03 0.  1.
         12    1    3    3    0    0 -0.45547894011E+01  0.36548397852E+01  0.72162690736E+01  0.92832375649E+01  0.00000000000E+00 0. -1.
</event>
<event>
 7    1  0.2353206E-008  0.4614232E+02  0.7816164E-02  0.1320468E+00
        -11   -1    0    0    0    0  0.00000000000E+00  0.00000000000E+00  0.45593999997E+02  0.45594000000E+02  0.51100000000E-03 0.  1.
         11   -1    0    0    0    0 -0.00000000000E+00 -0.00000000000E+00 -0.45593999997E+02  0.45594000000E+02  0.51100000000E-03 0. -1.
    9900012    2    1    2    0    0 -0.24109170606E+02  0.12197881540E+02  0.36042656451E+02  0.46142317571E+02  0.99999982701E+01 0.  0.
         12    1    1    2    0    0  0.24109170606E+02 -0.12197881540E+02 -0.36042656451E+02  0.45045682429E+02  0.00000000000E+00 0. -1.
         11    1    3    3    0    0 -0.28625294376E+01  0.13157459603E+01  0.20330305470E+01  0.37494633856E+01  0.51100000000E-03 0. -1.
        -11    1    3    3    0    0 -0.11489893927E+02  0.10461773245E+02  0.21206748740E+02  0.26290541156E+02  0.51100000000E-03 0.  1.
        -12    1    3    3    0    0 -0.97567472413E+01  0.42036233458E+00  0.12802877164E+02  0.16102313029E+02  0.00000000000E+00 0.  1.
</event>
<event>
 7    1  0.2353206E-008  0.4614232E+02  0.7816164E-02  0.1320468E+00
        -11   -1    0    0    0    0  0.00000000000E+00  0.00000000000E+00  0.45593999997E+02  0.45594000000E+02  0.51100000000E-03 0.  1.
         11   -1    0    0    0    0 -0.00000000000E+00 -0.00000000000E+00 -0.45593999997E+02  0.45594000000E+02  0.51100000000E-03 0. -1.
    9900012    2    1    2    0    0 -0.21597429864E+02 -0.39386520237E+02 -0.33714227016E+01  0.46142318252E+02  0.10000004479E+02 0.  0.
         12    1    1    2    0    0  0.21597429864E+02  0.39386520237E+02  0.33714227016E+01  0.45045681748E+02  0.00000000000E+00 0. -1.
         11    1    3    3    0    0 -0.27081943703E+01 -0.10163181322E+02 -0.27480751112E+01  0.10870900993E+02  0.51100000000E-03 0. -1.
        -11    1    3    3    0    0 -0.73654599625E+00 -0.11151721653E+01  0.11515171564E+01  0.17641147880E+01  0.51100000000E-03 0.  1.
        -12    1    3    3    0    0 -0.18152689498E+02 -0.28108166749E+02 -0.17748647468E+01  0.33507302471E+02  0.00000000000E+00 0.  1.
</event>
<event>
 7    1  0.2353206E-008  0.4614232E+02  0.7816164E-02  0.1320468E+00
        -11   -1    0    0    0    0  0.00000000000E+00  0.00000000000E+00  0.45593999997E+02  0.45594000000E+02  0.51100000000E-03 0.  1.
         11   -1    0    0    0    0 -0.00000000000E+00 -0.00000000000E+00 -0.45593999997E+02  0.45594000000E+02  0.51100000000E-03 0. -1.
    9900012    2    1    2    0    0  0.29879109563E+02 -0.14832418609E+02  0.30271302504E+02  0.46142316684E+02  0.99999901782E+01 0.  0.
         12    1    1    2    0    0 -0.29879109563E+02  0.14832418609E+02 -0.30271302504E+02  0.45045683316E+02  0.00000000000E+00 0. -1.
         11    1    3    3    0    0  0.59406750312E+01  0.59536729271E+00  0.41163018271E+01  0.72518978917E+01  0.51100000000E-03 0. -1.
        -11    1    3    3    0    0  0.46815934885E+01 -0.46519870187E+01  0.46138234213E+01  0.80526807734E+01  0.51100000000E-03 0.  1.
         12    1    3    3    0    0  0.19256841044E+02 -0.10775798883E+02  0.21541177256E+02  0.30837738019E+02  0.00000000000E+00 0. -1.
</event>
<event>
 7    1  0.2353206E-008  0.4614232E+02  0.7816164E-02  0.1320468E+00
        -11   -1    0    0    0    0  0.00000000000E+00  0.00000000000E+00  0.45593999997E+02  0.45594000000E+02  0.51100000000E-03 0.  1.
         11   -1    0    0    0    0 -0.00000000000E+00 -0.00000000000E+00 -0.45593999997E+02  0.45594000000E+02  0.51100000000E-03 0. -1.
    9900012    2    1    2    0    0  0.36505104880E+01 -0.42014899624E+02  0.15828315694E+02  0.46142316578E+02  0.99999892144E+01 0.  0.
         12    1    1    2    0    0 -0.36505104880E+01  0.42014899624E+02 -0.15828315694E+02  0.45045683422E+02  0.00000000000E+00 0. -1.
         11    1    3    3    0    0  0.55454430872E+01 -0.15039858535E+02  0.50621208084E+01  0.16809947981E+02  0.51100000000E-03 0. -1.
        -11    1    3    3    0    0  0.67185837810E+00 -0.95977989211E+01  0.50096319568E+01  0.10847375278E+02  0.51100000000E-03 0.  1.
         12    1    3    3    0    0 -0.25667909773E+01 -0.17377242167E+02  0.57565629291E+01  0.18484993320E+02  0.00000000000E+00 0. -1.
</event>
<event>
 7    1  0.2353206E-008  0.4614232E+02  0.7816164E-02  0.1320468E+00
        -11   -1    0    0    0    0  0.00000000000E+00  0.00000000000E+00  0.45593999997E+02  0.45594000000E+02  0.51100000000E-03 0.  1.
         11   -1    0    0    0    0 -0.00000000000E+00 -0.00000000000E+00 -0.45593999997E+02  0.45594000000E+02  0.51100000000E-03 0. -1.
    9900012    2    1    2    0    0 -0.30874098237E+02 -0.22512326770E+02  0.23855790121E+02  0.46142317401E+02  0.99999967160E+01 0.  0.
         12    1    1    2    0    0  0.30874098237E+02  0.22512326770E+02 -0.23855790121E+02  0.45045682599E+02  0.00000000000E+00 0. -1.
         11    1    3    3    0    0 -0.16442338625E+02 -0.13283769942E+02  0.81395877280E+01  0.22650870446E+02  0.51100000000E-03 0. -1.
        -11    1    3    3    0    0 -0.10342532184E+02 -0.82501056704E+01  0.12455233762E+02  0.18170444791E+02  0.51100000000E-03 0.  1.
         12    1    3    3    0    0 -0.40892274268E+01 -0.97845115737E+00  0.32609686309E+01  0.53210021638E+01  0.00000000000E+00 0. -1.
</event>
<event>
 7    1  0.2353206E-008  0.4614232E+02  0.7816164E-02  0.1320468E+00
        -11   -1    0    0    0    0  0.00000000000E+00  0.00000000000E+00  0.45593999997E+02  0.45594000000E+02  0.51100000000E-03 0. -1.
         11   -1    0    0    0    0 -0.00000000000E+00 -0.00000000000E+00 -0.45593999997E+02  0.45594000000E+02  0.51100000000E-03 0.  1.
    9900012    2    1    2    0    0  0.44441389851E+01 -0.43145849565E+02 -0.12157255194E+02  0.46142316968E+02  0.99999927664E+01 0.  0.
         12    1    1    2    0    0 -0.44441389851E+01  0.43145849565E+02  0.12157255194E+02  0.45045683032E+02  0.00000000000E+00 0. -1.
         11    1    3    3    0    0 -0.71129250548E+00 -0.20582442439E+02 -0.64092710408E+01  0.21568996948E+02  0.51100000000E-03 0. -1.
        -11    1    3    3    0    0  0.60522311792E+01 -0.17236632372E+02 -0.30007536823E+01  0.18513117531E+02  0.51100000000E-03 0.  1.
        -12    1    3    3    0    0 -0.89679968869E+00 -0.53267747531E+01 -0.27472304707E+01  0.60602024893E+01  0.00000000000E+00 0.  1.
</event>
<event>
 7    1  0.2353206E-008  0.4614232E+02  0.7816164E-02  0.1320468E+00
        -11   -1    0    0    0    0  0.00000000000E+00  0.00000000000E+00  0.45593999997E+02  0.45594000000E+02  0.51100000000E-03 0.  1.
         11   -1    0    0    0    0 -0.00000000000E+00 -0.00000000000E+00 -0.45593999997E+02  0.45594000000E+02  0.51100000000E-03 0. -1.
    9900012    2    1    2    0    0 -0.32088076333E+01 -0.43087439771E+02  0.12739276743E+02  0.46142322245E+02  0.10000040891E+02 0.  0.
         12    1    1    2    0    0  0.32088076333E+01  0.43087439771E+02 -0.12739276743E+02  0.45045677755E+02  0.00000000000E+00 0. -1.
         11    1    3    3    0    0  0.65702514163E+00 -0.20793747904E+01  0.28422413950E+01  0.35824318506E+01  0.51100000000E-03 0. -1.
        -11    1    3    3    0    0 -0.53857389264E+00 -0.22384078962E+02  0.40146763204E+01  0.22747630185E+02  0.51100000000E-03 0.  1.
         12    1    3    3    0    0 -0.33272588823E+01 -0.18623986019E+02  0.58823590272E+01  0.19812260210E+02  0.00000000000E+00 0. -1.
</event>
<event>
 7    1  0.2353206E-008  0.4614232E+02  0.7816164E-02  0.1320468E+00
        -11   -1    0    0    0    0  0.00000000000E+00  0.00000000000E+00  0.45593999997E+02  0.45594000000E+02  0.51100000000E-03 0. -1.
         11   -1    0    0    0    0 -0.00000000000E+00 -0.00000000000E+00 -0.45593999997E+02  0.45594000000E+02  0.51100000000E-03 0.  1.
    9900012    2    1    2    0    0 -0.25382002056E+02  0.37174671693E+02  0.17062689426E+01  0.46142316549E+02  0.99999889472E+01 0.  0.
         12    1    1    2    0    0  0.25382002056E+02 -0.37174671693E+02 -0.17062689426E+01  0.45045683451E+02  0.00000000000E+00 0. -1.
         11    1    3    3    0    0 -0.21002214582E+01  0.73037851717E+01 -0.96205582674E+00  0.76604020575E+01  0.51100000000E-03 0. -1.
        -11    1    3    3    0    0 -0.16198003959E+00  0.15664395563E+01 -0.80835305958E+00  0.17701427476E+01  0.51100000000E-03 0.  1.
        -12    1    3    3    0    0 -0.23119800558E+02  0.28304446965E+02  0.34766778290E+01  0.36711771744E+02  0.00000000000E+00 0.  1.
</event>
<event>
 7    1  0.2353206E-008  0.4614232E+02  0.7816164E-02  0.1320468E+00
        -11   -1    0    0    0    0  0.00000000000E+00  0.00000000000E+00  0.45593999997E+02  0.45594000000E+02  0.51100000000E-03 0.  1.
         11   -1    0    0    0    0 -0.00000000000E+00 -0.00000000000E+00 -0.45593999997E+02  0.45594000000E+02  0.51100000000E-03 0. -1.
    9900012    2    1    2    0    0 -0.11165412319E+02  0.42746765508E+02 -0.87841370962E+01  0.46142318096E+02  0.10000003056E+02 0.  0.
         12    1    1    2    0    0  0.11165412319E+02 -0.42746765508E+02  0.87841370962E+01  0.45045681904E+02  0.00000000000E+00 0. -1.
         11    1    3    3    0    0 -0.22610279541E+00  0.37906371347E+01  0.47875135734E+00  0.38274345826E+01  0.51100000000E-03 0. -1.
        -11    1    3    3    0    0 -0.38964373271E+01  0.19026075444E+02 -0.83991564136E+01  0.21159385609E+02  0.51100000000E-03 0.  1.
        -12    1    3    3    0    0 -0.70428721968E+01  0.19930052930E+02 -0.86373203998E+00  0.21155497905E+02  0.00000000000E+00 0.  1.
</event>
<event>
 7    1  0.2353206E-008  0.4614232E+02  0.7816164E-02  0.1320468E+00
        -11   -1    0    0    0    0  0.00000000000E+00  0.00000000000E+00  0.45593999997E+02  0.45594000000E+02  0.51100000000E-03 0.  1.
         11   -1    0    0    0    0 -0.00000000000E+00 -0.00000000000E+00 -0.45593999997E+02  0.45594000000E+02  0.51100000000E-03 0. -1.
    9900012    2    1    2    0    0  0.13639450937E+02 -0.26753955117E+02  0.33575359746E+02  0.46142317428E+02  0.99999969652E+01 0.  0.
         12    1    1    2    0    0 -0.13639450937E+02  0.26753955117E+02 -0.33575359746E+02  0.45045682572E+02  0.00000000000E+00 0. -1.
         11    1    3    3    0    0  0.30514972210E+01 -0.13143850713E+02  0.15274250801E+02  0.20380755252E+02  0.51100000000E-03 0. -1.
        -11    1    3    3    0    0  0.90219063020E+01 -0.11399684705E+02  0.17840514279E+02  0.23013725355E+02  0.51100000000E-03 0.  1.
         12    1    3    3    0    0  0.15660474140E+01 -0.22104196998E+01  0.46059466556E+00  0.27478368216E+01  0.00000000000E+00 0. -1.
</event>
<event>
 7    1  0.2353206E-008  0.4614232E+02  0.7816164E-02  0.1320468E+00
        -11   -1    0    0    0    0  0.00000000000E+00  0.00000000000E+00  0.45593999997E+02  0.45594000000E+02  0.51100000000E-03 0.  1.
         11   -1    0    0    0    0 -0.00000000000E+00 -0.00000000000E+00 -0.45593999997E+02  0.45594000000E+02  0.51100000000E-03 0. -1.
    9900012    2    1    2    0    0  0.15166930309E+02 -0.65167409550E+01 -0.41911929111E+02  0.46142317749E+02  0.99999998894E+01 0.  0.
         12    1    1    2    0    0 -0.15166930309E+02  0.65167409550E+01  0.41911929111E+02  0.45045682251E+02  0.00000000000E+00 0. -1.
         11    1    3    3    0    0  0.13020069048E+01  0.64237877379E+00 -0.44093225982E+01  0.46421975944E+01  0.51100000000E-03 0. -1.
        -11    1    3    3    0    0  0.13840284644E+02 -0.66549467142E+01 -0.27601426193E+02  0.31586081159E+02  0.51100000000E-03 0.  1.
        -12    1    3    3    0    0  0.24638760101E-01 -0.50417301454E+00 -0.99011803194E+01  0.99140389960E+01  0.00000000000E+00 0.  1.
</event>
<event>
 7    1  0.2353206E-008  0.4614232E+02  0.7816164E-02  0.1320468E+00
        -11   -1    0    0    0    0  0.00000000000E+00  0.00000000000E+00  0.45593999997E+02  0.45594000000E+02  0.51100000000E-03 0.  1.
         11   -1    0    0    0    0 -0.00000000000E+00 -0.00000000000E+00 -0.45593999997E+02  0.45594000000E+02  0.51100000000E-03 0. -1.
    9900012    2    1    2    0    0  0.28123481892E+02  0.15235122433E+02  0.31718674176E+02  0.46142317845E+02  0.10000000769E+02 0.  0.
         12    1    1    2    0    0 -0.28123481892E+02 -0.15235122433E+02 -0.31718674176E+02  0.45045682155E+02  0.00000000000E+00 0. -1.
         11    1    3    3    0    0  0.31414815161E+01  0.11052986116E+01  0.80198352974E+01  0.86837981089E+01  0.51100000000E-03 0. -1.
        -11    1    3    3    0    0  0.14774383013E+02  0.68574036747E+01  0.11266909256E+02  0.19805292803E+02  0.51100000000E-03 0.  1.
         12    1    3    3    0    0  0.10207617364E+02  0.72724201471E+01  0.12431929623E+02  0.17653226934E+02  0.00000000000E+00 0. -1.
</event>
<event>
 7    1  0.2353206E-008  0.4614232E+02  0.7816164E-02  0.1320468E+00
        -11   -1    0    0    0    0  0.00000000000E+00  0.00000000000E+00  0.45593999997E+02  0.45594000000E+02  0.51100000000E-03 0.  1.
         11   -1    0    0    0    0 -0.00000000000E+00 -0.00000000000E+00 -0.45593999997E+02  0.45594000000E+02  0.51100000000E-03 0. -1.
    9900012    2    1    2    0    0  0.18982457393E+02  0.26275991443E+02  0.31278620551E+02  0.46142317426E+02  0.99999969433E+01 0.  0.
         12    1    1    2    0    0 -0.18982457393E+02 -0.26275991443E+02 -0.31278620551E+02  0.45045682574E+02  0.00000000000E+00 0. -1.
         11    1    3    3    0    0  0.26660347701E+00  0.13938769928E+01  0.29746585516E+00  0.14499850623E+01  0.51100000000E-03 0. -1.
        -11    1    3    3    0    0  0.15425767884E+02  0.14291934278E+02  0.21870845151E+02  0.30340526827E+02  0.51100000000E-03 0.  1.
        -12    1    3    3    0    0  0.32900860322E+01  0.10590180172E+02  0.91103095447E+01  0.14351805537E+02  0.00000000000E+00 0.  1.
</event>
<event>
 7    1  0.2353206E-008  0.4614232E+02  0.7816164E-02  0.1320468E+00
        -11   -1    0    0    0    0  0.00000000000E+00  0.00000000000E+00  0.45593999997E+02  0.45594000000E+02  0.51100000000E-03 0.  1.
         11   -1    0    0    0    0 -0.00000000000E+00 -0.00000000000E+00 -0.45593999997E+02  0.45594000000E+02  0.51100000000E-03 0. -1.
    9900012    2    1    2    0    0  0.37975828062E+02 -0.23329883184E+02  0.65319624305E+01  0.46142317637E+02  0.99999988689E+01 0.  0.
         12    1    1    2    0    0 -0.37975828062E+02  0.23329883184E+02 -0.65319624305E+01  0.45045682363E+02  0.00000000000E+00 0. -1.
         11    1    3    3    0    0  0.18993036119E+02 -0.91954098096E+01 -0.63012571677E+00  0.21111324953E+02  0.51100000000E-03 0. -1.
        -11    1    3    3    0    0  0.12563101779E+02 -0.83297181581E+01  0.62859676574E+01  0.16331843759E+02  0.51100000000E-03 0.  1.
         12    1    3    3    0    0  0.64196901633E+01 -0.58047552162E+01  0.87612048988E+00  0.86991489253E+01  0.00000000000E+00 0. -1.
</event>
<event>
 7    1  0.2353206E-008  0.4614232E+02  0.7816164E-02  0.1320468E+00
        -11   -1    0    0    0    0  0.00000000000E+00  0.00000000000E+00  0.45593999997E+02  0.45594000000E+02  0.51100000000E-03 0.  1.
         11   -1    0    0    0    0 -0.00000000000E+00 -0.00000000000E+00 -0.45593999997E+02  0.45594000000E+02  0.51100000000E-03 0. -1.
    9900012    2    1    2    0    0  0.37555056538E+02 -0.17698449630E+02  0.17478447350E+02  0.46142317491E+02  0.99999975412E+01 0.  0.
         12    1    1    2    0    0 -0.37555056538E+02  0.17698449630E+02 -0.17478447350E+02  0.45045682509E+02  0.00000000000E+00 0. -1.
         11    1    3    3    0    0  0.86918367341E+01 -0.65495078084E+01  0.27905898381E+01  0.11235277934E+02  0.51100000000E-03 0. -1.
        -11    1    3    3    0    0  0.16969856808E+02 -0.97693037430E+01  0.10528304167E+02  0.22231970776E+02  0.51100000000E-03 0.  1.
        -12    1    3    3    0    0  0.11893362996E+02 -0.13796380788E+01  0.41595533457E+01  0.12675068782E+02  0.00000000000E+00 0.  1.
</event>
<event>
 7    1  0.2353206E-008  0.4614232E+02  0.7816164E-02  0.1320468E+00
        -11   -1    0    0    0    0  0.00000000000E+00  0.00000000000E+00  0.45593999997E+02  0.45594000000E+02  0.51100000000E-03 0.  1.
         11   -1    0    0    0    0 -0.00000000000E+00 -0.00000000000E+00 -0.45593999997E+02  0.45594000000E+02  0.51100000000E-03 0. -1.
    9900012    2    1    2    0    0  0.33824997316E+02  0.11007807781E+02 -0.27637134392E+02  0.46142317932E+02  0.10000001556E+02 0.  0.
         12    1    1    2    0    0 -0.33824997316E+02 -0.11007807781E+02  0.27637134392E+02  0.45045682068E+02  0.00000000000E+00 0. -1.
         11    1    3    3    0    0  0.99830067574E+01  0.60259575408E+01 -0.12348657042E+02  0.16984166721E+02  0.51100000000E-03 0. -1.
        -11    1    3    3    0    0  0.16443758902E+02  0.34469208739E+01 -0.78117256586E+01  0.18528397890E+02  0.51100000000E-03 0.  1.
        -12    1    3    3    0    0  0.73982316563E+01  0.15349293659E+01 -0.74767516917E+01  0.10629753321E+02  0.00000000000E+00 0.  1.
</event>
<event>
 7    1  0.2353206E-008  0.4614232E+02  0.7816164E-02  0.1320468E+00
        -11   -1    0    0    0    0  0.00000000000E+00  0.00000000000E+00  0.45593999997E+02  0.45594000000E+02  0.51100000000E-03 0. -1.
         11   -1    0    0    0    0 -0.00000000000E+00 -0.00000000000E+00 -0.45593999997E+02  0.45594000000E+02  0.51100000000E-03 0.  1.
    9900012    2    1    2    0    0 -0.14638330403E+02 -0.37711308443E+02 -0.19816405077E+02  0.46142318613E+02  0.10000007767E+02 0.  0.
         12    1    1    2    0    0  0.14638330403E+02  0.37711308443E+02  0.19816405077E+02  0.45045681387E+02  0.00000000000E+00 0. -1.
         11    1    3    3    0    0 -0.21948874890E+01 -0.11870740941E+02 -0.27509041715E+01  0.12381417350E+02  0.51100000000E-03 0. -1.
        -11    1    3    3    0    0 -0.57919736217E+01 -0.66934659683E+01 -0.48004581543E+01  0.10069451021E+02  0.51100000000E-03 0.  1.
        -12    1    3    3    0    0 -0.66514692924E+01 -0.19147101533E+02 -0.12265042752E+02  0.23691450242E+02  0.00000000000E+00 0.  1.
</event>
<event>
 7    1  0.2353206E-008  0.4614232E+02  0.7816164E-02  0.1320468E+00
        -11   -1    0    0    0    0  0.00000000000E+00  0.00000000000E+00  0.45593999997E+02  0.45594000000E+02  0.51100000000E-03 0.  1.
         11   -1    0    0    0    0 -0.00000000000E+00 -0.00000000000E+00 -0.45593999997E+02  0.45594000000E+02  0.51100000000E-03 0. -1.
    9900012    2    1    2    0    0 -0.64745646302E+00 -0.24937515716E+01  0.44971941351E+02  0.46142317569E+02  0.99999982489E+01 0.  0.
         12    1    1    2    0    0  0.64745646302E+00  0.24937515716E+01 -0.44971941351E+02  0.45045682431E+02  0.00000000000E+00 0. -1.
         11    1    3    3    0    0 -0.30066689819E+01 -0.12794971352E+01  0.68424594349E+01  0.75826395579E+01  0.51100000000E-03 0. -1.
        -11    1    3    3    0    0 -0.14653474579E+01 -0.11840692612E+01  0.14667972701E+02  0.14788464647E+02  0.51100000000E-03 0.  1.
        -12    1    3    3    0    0  0.38245599768E+01 -0.30185175187E-01  0.23461509215E+02  0.23771213364E+02  0.00000000000E+00 0.  1.
</event>
<event>
 7    1  0.2353206E-008  0.4614230E+02  0.7816164E-02  0.1320468E+00
        -11   -1    0    0    0    0  0.00000000000E+00  0.00000000000E+00  0.45593999997E+02  0.45594000000E+02  0.51100000000E-03 0.  1.
         11   -1    0    0    0    0 -0.00000000000E+00 -0.00000000000E+00 -0.45593999997E+02  0.45594000000E+02  0.51100000000E-03 0. -1.
    9900012    2    1    2    0    0  0.34236753223E+01 -0.30308487968E+02  0.33147984147E+02  0.46142302662E+02  0.99998623168E+01 0.  0.
         12    1    1    2    0    0 -0.34236753223E+01  0.30308487968E+02 -0.33147984147E+02  0.45045697338E+02  0.00000000000E+00 0. -1.
         11    1    3    3    0    0  0.54547809777E+01 -0.13735855426E+02  0.15279778323E+02  0.21257939355E+02  0.51100000000E-03 0. -1.
        -11    1    3    3    0    0  0.14579630931E+01 -0.55733445665E+01  0.65061233107E+01  0.86900786436E+01  0.51100000000E-03 0.  1.
         12    1    3    3    0    0 -0.34890687485E+01 -0.10999287976E+02  0.11362082513E+02  0.16194284663E+02  0.00000000000E+00 0. -1.
</event>
<event>
 7    1  0.2353206E-008  0.4614232E+02  0.7816164E-02  0.1320468E+00
        -11   -1    0    0    0    0  0.00000000000E+00  0.00000000000E+00  0.45593999997E+02  0.45594000000E+02  0.51100000000E-03 0.  1.
         11   -1    0    0    0    0 -0.00000000000E+00 -0.00000000000E+00 -0.45593999997E+02  0.45594000000E+02  0.51100000000E-03 0. -1.
    9900012    2    1    2    0    0  0.52193322149E+00  0.29599757966E+02  0.33951366386E+02  0.46142319126E+02  0.10000012446E+02 0.  0.
         12    1    1    2    0    0 -0.52193322149E+00 -0.29599757966E+02 -0.33951366386E+02  0.45045680874E+02  0.00000000000E+00 0. -1.
         11    1    3    3    0    0  0.33775280657E+01  0.92725441624E+01  0.99533528833E+01  0.14016312103E+02  0.51100000000E-03 0. -1.
        -11    1    3    3    0    0  0.71446527937E+00  0.12866630177E+02  0.12420839586E+02  0.17897985614E+02  0.51100000000E-03 0.  1.
         12    1    3    3    0    0 -0.35700601236E+01  0.74605836264E+01  0.11577173917E+02  0.14228021410E+02  0.00000000000E+00 0. -1.
</event>
<event>
 7    1  0.2353206E-008  0.4614232E+02  0.7816164E-02  0.1320468E+00
        -11   -1    0    0    0    0  0.00000000000E+00  0.00000000000E+00  0.45593999997E+02  0.45594000000E+02  0.51100000000E-03 0. -1.
         11   -1    0    0    0    0 -0.00000000000E+00 -0.00000000000E+00 -0.45593999997E+02  0.45594000000E+02  0.51100000000E-03 0.  1.
    9900012    2    1    2    0    0  0.35669919513E+02  0.24140583688E+02  0.13191003974E+02  0.46142317358E+02  0.99999963216E+01 0.  0.
         12    1    1    2    0    0 -0.35669919513E+02 -0.24140583688E+02 -0.13191003974E+02  0.45045682642E+02  0.00000000000E+00 0. -1.
         11    1    3    3    0    0  0.17076526235E+02  0.12345670452E+02  0.66343264174E+01  0.22091573381E+02  0.51100000000E-03 0. -1.
        -11    1    3    3    0    0  0.15113297785E+02  0.12417741894E+02  0.60784581031E+01  0.20483157394E+02  0.51100000000E-03 0.  1.
         12    1    3    3    0    0  0.34800954935E+01 -0.62282865740E+00  0.47821945302E+00  0.35675865828E+01  0.00000000000E+00 0. -1.
</event>
<event>
 7    1  0.2353206E-008  0.4614232E+02  0.7816164E-02  0.1320468E+00
        -11   -1    0    0    0    0  0.00000000000E+00  0.00000000000E+00  0.45593999997E+02  0.45594000000E+02  0.51100000000E-03 0.  1.
         11   -1    0    0    0    0 -0.00000000000E+00 -0.00000000000E+00 -0.45593999997E+02  0.45594000000E+02  0.51100000000E-03 0. -1.
    9900012    2    1    2    0    0 -0.36894462864E+02  0.18757038628E+00  0.25843304026E+02  0.46142323896E+02  0.10000055942E+02 0.  0.
         12    1    1    2    0    0  0.36894462864E+02 -0.18757038628E+00 -0.25843304026E+02  0.45045676104E+02  0.00000000000E+00 0. -1.
         11    1    3    3    0    0 -0.18446474964E+02 -0.78807576824E+00  0.13430661010E+02  0.22831472958E+02  0.51100000000E-03 0. -1.
        -11    1    3    3    0    0 -0.18394787342E+02  0.13393026568E+01  0.10216343987E+02  0.21084013320E+02  0.51100000000E-03 0.  1.
         12    1    3    3    0    0 -0.53200558483E-01 -0.36365650231E+00  0.21962990289E+01  0.22268376177E+01  0.00000000000E+00 0. -1.
</event>
<event>
 7    1  0.2353206E-008  0.4614232E+02  0.7816164E-02  0.1320468E+00
        -11   -1    0    0    0    0  0.00000000000E+00  0.00000000000E+00  0.45593999997E+02  0.45594000000E+02  0.51100000000E-03 0.  1.
         11   -1    0    0    0    0 -0.00000000000E+00 -0.00000000000E+00 -0.45593999997E+02  0.45594000000E+02  0.51100000000E-03 0. -1.
    9900012    2    1    2    0    0 -0.41014250506E+02  0.30757296946E+01  0.18370757994E+02  0.46142316445E+02  0.99999879952E+01 0.  0.
         12    1    1    2    0    0  0.41014250506E+02 -0.30757296946E+01 -0.18370757994E+02  0.45045683555E+02  0.00000000000E+00 0. -1.
         11    1    3    3    0    0 -0.11740038960E+02 -0.28174170734E+01  0.32533120620E+01  0.12504015091E+02  0.51100000000E-03 0. -1.
        -11    1    3    3    0    0 -0.21456986784E+02  0.45554084856E+01  0.94162560001E+01  0.23870900813E+02  0.51100000000E-03 0.  1.
         12    1    3    3    0    0 -0.78172247619E+01  0.13377382825E+01  0.57011899316E+01  0.97674005409E+01  0.00000000000E+00 0. -1.
</event>
<event>
 7    1  0.2353206E-008  0.4614232E+02  0.7816164E-02  0.1320468E+00
        -11   -1    0    0    0    0  0.00000000000E+00  0.00000000000E+00  0.45593999997E+02  0.45594000000E+02  0.51100000000E-03 0.  1.
         11   -1    0    0    0    0 -0.00000000000E+00 -0.00000000000E+00 -0.45593999997E+02  0.45594000000E+02  0.51100000000E-03 0. -1.
    9900012    2    1    2    0    0 -0.89078898762E+01  0.39624440500E+02  0.19485038908E+02  0.46142317319E+02  0.99999959663E+01 0.  0.
         12    1    1    2    0    0  0.89078898762E+01 -0.39624440500E+02 -0.19485038908E+02  0.45045682681E+02  0.00000000000E+00 0. -1.
         11    1    3    3    0    0 -0.18692854914E+01  0.15367856302E+02  0.50633343909E+01  0.16288111953E+02  0.51100000000E-03 0. -1.
        -11    1    3    3    0    0 -0.61551148670E+01  0.17590207258E+02  0.13618610171E+02  0.23081754129E+02  0.51100000000E-03 0.  1.
        -12    1    3    3    0    0 -0.88348951783E+00  0.66663769396E+01  0.80309434560E+00  0.67724512369E+01  0.00000000000E+00 0.  1.
</event>
<event>
 7    1  0.2353206E-008  0.4614232E+02  0.7816164E-02  0.1320468E+00
        -11   -1    0    0    0    0  0.00000000000E+00  0.00000000000E+00  0.45593999997E+02  0.45594000000E+02  0.51100000000E-03 0.  1.
         11   -1    0    0    0    0 -0.00000000000E+00 -0.00000000000E+00 -0.45593999997E+02  0.45594000000E+02  0.51100000000E-03 0. -1.
    9900012    2    1    2    0    0  0.51786002042E+00  0.34263435717E+02  0.29238029617E+02  0.46142316722E+02  0.99999905230E+01 0.  0.
         12    1    1    2    0    0 -0.51786002042E+00 -0.34263435717E+02 -0.29238029617E+02  0.45045683278E+02  0.00000000000E+00 0. -1.
         11    1    3    3    0    0  0.14201589430E+01  0.23054942570E+02  0.18629454950E+02  0.29674969593E+02  0.51100000000E-03 0. -1.
        -11    1    3    3    0    0 -0.27391030617E+01  0.66423891750E+01  0.84537767683E+01  0.11094609567E+02  0.51100000000E-03 0.  1.
         12    1    3    3    0    0  0.18368041391E+01  0.45661039723E+01  0.21547978981E+01  0.53727375622E+01  0.00000000000E+00 0. -1.
</event>
<event>
 7    1  0.2353206E-008  0.4614232E+02  0.7816164E-02  0.1320468E+00
        -11   -1    0    0    0    0  0.00000000000E+00  0.00000000000E+00  0.45593999997E+02  0.45594000000E+02  0.51100000000E-03 0.  1.
         11   -1    0    0    0    0 -0.00000000000E+00 -0.00000000000E+00 -0.45593999997E+02  0.45594000000E+02  0.51100000000E-03 0. -1.
    9900012    2    1    2    0    0  0.27848794448E+02 -0.32045107985E+02  0.15055535072E+02  0.46142318362E+02  0.10000005475E+02 0.  0.
         12    1    1    2    0    0 -0.27848794448E+02  0.32045107985E+02 -0.15055535072E+02  0.45045681638E+02  0.00000000000E+00 0. -1.
         11    1    3    3    0    0  0.33933357116E+01 -0.21276811043E+01  0.26921681426E+01  0.48259220572E+01  0.51100000000E-03 0. -1.
        -11    1    3    3    0    0  0.20126713976E+02 -0.24826593853E+02  0.13206213153E+02  0.34581041684E+02  0.51100000000E-03 0.  1.
         12    1    3    3    0    0  0.43287447603E+01 -0.50908330273E+01 -0.84284622294E+00  0.67353546207E+01  0.00000000000E+00 0. -1.
</event>
<event>
 7    1  0.2353206E-008  0.4614232E+02  0.7816164E-02  0.1320468E+00
        -11   -1    0    0    0    0  0.00000000000E+00  0.00000000000E+00  0.45593999997E+02  0.45594000000E+02  0.51100000000E-03 0. -1.
         11   -1    0    0    0    0 -0.00000000000E+00 -0.00000000000E+00 -0.45593999997E+02  0.45594000000E+02  0.51100000000E-03 0.  1.
    9900012    2    1    2    0    0  0.11988270705E+02 -0.22557145084E+02 -0.37102158107E+02  0.46142316910E+02  0.99999922410E+01 0.  0.
         12    1    1    2    0    0 -0.11988270705E+02  0.22557145084E+02  0.37102158107E+02  0.45045683090E+02  0.00000000000E+00 0. -1.
         11    1    3    3    0    0 -0.64655871007E+00 -0.13301037383E+01 -0.92940739222E+00  0.17467147684E+01  0.51100000000E-03 0. -1.
        -11    1    3    3    0    0  0.30041697935E+01 -0.81905648255E+00 -0.34648927056E+01  0.46584730751E+01  0.51100000000E-03 0.  1.
        -12    1    3    3    0    0  0.96306596215E+01 -0.20407984863E+02 -0.32707858009E+02  0.39737129067E+02  0.00000000000E+00 0.  1.
</event>
<event>
 7    1  0.2353206E-008  0.4614232E+02  0.7816164E-02  0.1320468E+00
        -11   -1    0    0    0    0  0.00000000000E+00  0.00000000000E+00  0.45593999997E+02  0.45594000000E+02  0.51100000000E-03 0. -1.
         11   -1    0    0    0    0 -0.00000000000E+00 -0.00000000000E+00 -0.45593999997E+02  0.45594000000E+02  0.51100000000E-03 0.  1.
    9900012    2    1    2    0    0  0.14596090072E+02  0.31940238803E+02 -0.28211502251E+02  0.46142316972E+02  0.99999928026E+01 0.  0.
         12    1    1    2    0    0 -0.14596090072E+02 -0.31940238803E+02  0.28211502251E+02  0.45045683028E+02  0.00000000000E+00 0. -1.
         11    1    3    3    0    0  0.78234735023E+01  0.25632577717E+02 -0.17939793831E+02  0.32250146992E+02  0.51100000000E-03 0. -1.
        -11    1    3    3    0    0  0.16457273313E+01  0.16180828670E+01 -0.34815655954E+01  0.41770695313E+01  0.51100000000E-03 0.  1.
         12    1    3    3    0    0  0.51268892386E+01  0.46895782194E+01 -0.67901428249E+01  0.97151004484E+01  0.00000000000E+00 0. -1.
</event>
<event>
 7    1  0.2353206E-008  0.4614232E+02  0.7816164E-02  0.1320468E+00
        -11   -1    0    0    0    0  0.00000000000E+00  0.00000000000E+00  0.45593999997E+02  0.45594000000E+02  0.51100000000E-03 0.  1.
         11   -1    0    0    0    0 -0.00000000000E+00 -0.00000000000E+00 -0.45593999997E+02  0.45594000000E+02  0.51100000000E-03 0. -1.
    9900012    2    1    2    0    0 -0.41760494465E+02  0.16582167892E+02  0.31947223489E+01  0.46142318289E+02  0.10000004813E+02 0.  0.
         12    1    1    2    0    0  0.41760494465E+02 -0.16582167892E+02 -0.31947223489E+01  0.45045681711E+02  0.00000000000E+00 0. -1.
         11    1    3    3    0    0 -0.15721624180E+02  0.20233341548E+01  0.78262855477E+00  0.15870597206E+02  0.51100000000E-03 0. -1.
        -11    1    3    3    0    0 -0.15158339920E+02  0.65195015743E+01 -0.15669271107E+00  0.16501627882E+02  0.51100000000E-03 0.  1.
        -12    1    3    3    0    0 -0.10880530365E+02  0.80393321627E+01  0.25687865052E+01  0.13770093200E+02  0.00000000000E+00 0.  1.
</event>
<event>
 7    1  0.2353206E-008  0.4614232E+02  0.7816164E-02  0.1320468E+00
        -11   -1    0    0    0    0  0.00000000000E+00  0.00000000000E+00  0.45593999997E+02  0.45594000000E+02  0.51100000000E-03 0.  1.
         11   -1    0    0    0    0 -0.00000000000E+00 -0.00000000000E+00 -0.45593999997E+02  0.45594000000E+02  0.51100000000E-03 0. -1.
    9900012    2    1    2    0    0 -0.29290969743E+02 -0.34219862724E+02  0.39205368870E+00  0.46142316306E+02  0.99999867313E+01 0.  0.
         12    1    1    2    0    0  0.29290969743E+02  0.34219862724E+02 -0.39205368870E+00  0.45045683694E+02  0.00000000000E+00 0. -1.
         11    1    3    3    0    0 -0.46178566841E+01 -0.51582739967E+01  0.32334821613E+01  0.76411908842E+01  0.51100000000E-03 0. -1.
        -11    1    3    3    0    0 -0.17748799237E+02 -0.19307224301E+02 -0.86773941608E-01  0.26225871092E+02  0.51100000000E-03 0.  1.
         12    1    3    3    0    0 -0.69243138223E+01 -0.97543644271E+01 -0.27546545310E+01  0.12275254330E+02  0.00000000000E+00 0. -1.
</event>
<event>
 7    1  0.2353206E-008  0.4614232E+02  0.7816164E-02  0.1320468E+00
        -11   -1    0    0    0    0  0.00000000000E+00  0.00000000000E+00  0.45593999997E+02  0.45594000000E+02  0.51100000000E-03 0. -1.
         11   -1    0    0    0    0 -0.00000000000E+00 -0.00000000000E+00 -0.45593999997E+02  0.45594000000E+02  0.51100000000E-03 0.  1.
    9900012    2    1    2    0    0  0.24397321544E+02  0.34496041407E+02 -0.15617532680E+02  0.46142317651E+02  0.99999989931E+01 0.  0.
         12    1    1    2    0    0 -0.24397321544E+02 -0.34496041407E+02  0.15617532680E+02  0.45045682349E+02  0.00000000000E+00 0. -1.
         11    1    3    3    0    0  0.16093507140E+02  0.14448979494E+02 -0.91886026299E+01  0.23499029747E+02  0.51100000000E-03 0. -1.
        -11    1    3    3    0    0  0.54577635254E+01  0.12646314251E+02 -0.37731271408E+01  0.14281209176E+02  0.51100000000E-03 0.  1.
         12    1    3    3    0    0  0.28460508783E+01  0.74007476620E+01 -0.26558029098E+01  0.83620787280E+01  0.00000000000E+00 0. -1.
</event>
<event>
 7    1  0.2353206E-008  0.4614232E+02  0.7816164E-02  0.1320468E+00
        -11   -1    0    0    0    0  0.00000000000E+00  0.00000000000E+00  0.45593999997E+02  0.45594000000E+02  0.51100000000E-03 0. -1.
         11   -1    0    0    0    0 -0.00000000000E+00 -0.00000000000E+00 -0.45593999997E+02  0.45594000000E+02  0.51100000000E-03 0.  1.
    9900012    2    1    2    0    0  0.32959505964E+02  0.11439112444E+02  0.28494406606E+02  0.46142317247E+02  0.99999953080E+01 0.  0.
         12    1    1    2    0    0 -0.32959505964E+02 -0.11439112444E+02 -0.28494406606E+02  0.45045682753E+02  0.00000000000E+00 0. -1.
         11    1    3    3    0    0 -0.24381344628E+00 -0.33469348238E+00 -0.12468376418E-01  0.41427098047E+00  0.51100000000E-03 0.  1.
        -11    1    3    3    0    0  0.13836854527E+00  0.28668654894E+00 -0.26741291293E+00  0.41574626732E+00  0.51100000000E-03 0. -1.
        -12    1    3    3    0    0  0.33064950865E+02  0.11487119377E+02  0.28774287895E+02  0.45312299999E+02  0.00000000000E+00 0.  1.
</event>
<event>
 7    1  0.2353206E-008  0.4614232E+02  0.7816164E-02  0.1320468E+00
        -11   -1    0    0    0    0  0.00000000000E+00  0.00000000000E+00  0.45593999997E+02  0.45594000000E+02  0.51100000000E-03 0.  1.
         11   -1    0    0    0    0 -0.00000000000E+00 -0.00000000000E+00 -0.45593999997E+02  0.45594000000E+02  0.51100000000E-03 0. -1.
    9900012    2    1    2    0    0  0.12499680553E+01  0.14908603219E+02  0.42488639643E+02  0.46142319088E+02  0.10000012101E+02 0.  0.
         12    1    1    2    0    0 -0.12499680553E+01 -0.14908603219E+02 -0.42488639643E+02  0.45045680912E+02  0.00000000000E+00 0. -1.
         11    1    3    3    0    0  0.37574636322E+01  0.56931086718E+01  0.11988299283E+02  0.13793090272E+02  0.51100000000E-03 0. -1.
        -11    1    3    3    0    0  0.14775150332E+01  0.27001045958E+01  0.10436987357E+02  0.10881374952E+02  0.51100000000E-03 0.  1.
        -12    1    3    3    0    0 -0.39850106102E+01  0.65153899513E+01  0.20063353003E+02  0.21467853864E+02  0.00000000000E+00 0.  1.
</event>
<event>
 7    1  0.2353206E-008  0.4614231E+02  0.7816164E-02  0.1320468E+00
        -11   -1    0    0    0    0  0.00000000000E+00  0.00000000000E+00  0.45593999997E+02  0.45594000000E+02  0.51100000000E-03 0. -1.
         11   -1    0    0    0    0 -0.00000000000E+00 -0.00000000000E+00 -0.45593999997E+02  0.45594000000E+02  0.51100000000E-03 0.  1.
    9900012    2    1    2    0    0 -0.14255604564E+02 -0.40048998372E+02 -0.14898631050E+02  0.46142314977E+02  0.99999746089E+01 0.  0.
         12    1    1    2    0    0  0.14255604564E+02  0.40048998372E+02  0.14898631050E+02  0.45045685023E+02  0.00000000000E+00 0. -1.
         11    1    3    3    0    0 -0.78049700332E+01 -0.25326966708E+02 -0.77317748735E+01  0.27607121234E+02  0.51100000000E-03 0.  1.
        -11    1    3    3    0    0 -0.54693577150E+01 -0.11351282059E+02 -0.27565765687E+01  0.12898224406E+02  0.51100000000E-03 0. -1.
        -12    1    3    3    0    0 -0.98127681544E+00 -0.33707496052E+01 -0.44102796075E+01  0.56369693370E+01  0.00000000000E+00 0.  1.
</event>
<event>
 7    1  0.2353206E-008  0.4614232E+02  0.7816164E-02  0.1320468E+00
        -11   -1    0    0    0    0  0.00000000000E+00  0.00000000000E+00  0.45593999997E+02  0.45594000000E+02  0.51100000000E-03 0. -1.
         11   -1    0    0    0    0 -0.00000000000E+00 -0.00000000000E+00 -0.45593999997E+02  0.45594000000E+02  0.51100000000E-03 0.  1.
    9900012    2    1    2    0    0 -0.29476586545E+02  0.16180620447E+02 -0.29973843008E+02  0.46142324324E+02  0.10000059848E+02 0.  0.
         12    1    1    2    0    0  0.29476586545E+02 -0.16180620447E+02  0.29973843008E+02  0.45045675676E+02  0.00000000000E+00 0. -1.
         11    1    3    3    0    0 -0.89990064835E+01  0.80468663955E+01 -0.10720675834E+02  0.16145187118E+02  0.51100000000E-03 0. -1.
        -11    1    3    3    0    0 -0.19462992002E+02  0.88729697936E+01 -0.19195809669E+02  0.28740507298E+02  0.51100000000E-03 0.  1.
         12    1    3    3    0    0 -0.10145880593E+01 -0.73921574200E+00 -0.57357505628E-01  0.12566299085E+01  0.00000000000E+00 0. -1.
</event>
<event>
 7    1  0.2353206E-008  0.4614232E+02  0.7816164E-02  0.1320468E+00
        -11   -1    0    0    0    0  0.00000000000E+00  0.00000000000E+00  0.45593999997E+02  0.45594000000E+02  0.51100000000E-03 0.  1.
         11   -1    0    0    0    0 -0.00000000000E+00 -0.00000000000E+00 -0.45593999997E+02  0.45594000000E+02  0.51100000000E-03 0. -1.
    9900012    2    1    2    0    0  0.23610125932E+02 -0.58064263676E+01  0.37920454575E+02  0.46142317533E+02  0.99999979239E+01 0.  0.
         12    1    1    2    0    0 -0.23610125932E+02  0.58064263676E+01 -0.37920454575E+02  0.45045682467E+02  0.00000000000E+00 0. -1.
         11    1    3    3    0    0  0.37087458947E+01 -0.11265088855E+01  0.78255417498E+01  0.87328644968E+01  0.51100000000E-03 0. -1.
        -11    1    3    3    0    0  0.34567746699E+01 -0.36490137321E+01  0.35031523057E+01  0.61267176101E+01  0.51100000000E-03 0.  1.
        -12    1    3    3    0    0  0.16444605367E+02 -0.10309037500E+01  0.26591760520E+02  0.31282735427E+02  0.00000000000E+00 0.  1.
</event>
<event>
 7    1  0.2353206E-008  0.4614232E+02  0.7816164E-02  0.1320468E+00
        -11   -1    0    0    0    0  0.00000000000E+00  0.00000000000E+00  0.45593999997E+02  0.45594000000E+02  0.51100000000E-03 0. -1.
         11   -1    0    0    0    0 -0.00000000000E+00 -0.00000000000E+00 -0.45593999997E+02  0.45594000000E+02  0.51100000000E-03 0.  1.
    9900012    2    1    2    0    0 -0.36337548288E+02  0.19563097967E+02  0.18054951046E+02  0.46142317910E+02  0.10000001361E+02 0.  0.
         12    1    1    2    0    0  0.36337548288E+02 -0.19563097967E+02 -0.18054951046E+02  0.45045682090E+02  0.00000000000E+00 0. -1.
         11    1    3    3    0    0 -0.48206792814E+00  0.15427857775E+01  0.10677338220E+01  0.19371714478E+01  0.51100000000E-03 0. -1.
        -11    1    3    3    0    0 -0.15439837870E+02  0.10225286049E+02  0.45848992856E+01  0.19077902661E+02  0.51100000000E-03 0.  1.
        -12    1    3    3    0    0 -0.20415642490E+02  0.77950261407E+01  0.12402317939E+02  0.25127243801E+02  0.00000000000E+00 0.  1.
</event>
<event>
 7    1  0.2353206E-008  0.4614232E+02  0.7816164E-02  0.1320468E+00
        -11   -1    0    0    0    0  0.00000000000E+00  0.00000000000E+00  0.45593999997E+02  0.45594000000E+02  0.51100000000E-03 0.  1.
         11   -1    0    0    0    0 -0.00000000000E+00 -0.00000000000E+00 -0.45593999997E+02  0.45594000000E+02  0.51100000000E-03 0. -1.
    9900012    2    1    2    0    0 -0.93702686818E+01 -0.43484536389E+02 -0.70997620818E+01  0.46142318057E+02  0.10000002697E+02 0.  0.
         12    1    1    2    0    0  0.93702686818E+01  0.43484536389E+02  0.70997620818E+01  0.45045681943E+02  0.00000000000E+00 0. -1.
         11    1    3    3    0    0 -0.14248264607E+01 -0.70498683294E+01 -0.35346970639E+01  0.80140412714E+01  0.51100000000E-03 0. -1.
        -11    1    3    3    0    0 -0.98602029831E+00 -0.10940592038E+02  0.18842980453E+01  0.11145374357E+02  0.51100000000E-03 0.  1.
        -12    1    3    3    0    0 -0.69594219228E+01 -0.25494076021E+02 -0.54493630631E+01  0.26982902428E+02  0.00000000000E+00 0.  1.
</event>
<event>
 7    1  0.2353206E-008  0.4614232E+02  0.7816164E-02  0.1320468E+00
        -11   -1    0    0    0    0  0.00000000000E+00  0.00000000000E+00  0.45593999997E+02  0.45594000000E+02  0.51100000000E-03 0.  1.
         11   -1    0    0    0    0 -0.00000000000E+00 -0.00000000000E+00 -0.45593999997E+02  0.45594000000E+02  0.51100000000E-03 0. -1.
    9900012    2    1    2    0    0  0.56316151278E+01 -0.27948905711E+02  0.34874878572E+02  0.46142316802E+02  0.99999912529E+01 0.  0.
         12    1    1    2    0    0 -0.56316151278E+01  0.27948905711E+02 -0.34874878572E+02  0.45045683198E+02  0.00000000000E+00 0. -1.
         11    1    3    3    0    0 -0.43702730349E+00 -0.25785599479E+01  0.55612349160E+00  0.26738058770E+01  0.51100000000E-03 0. -1.
        -11    1    3    3    0    0  0.14149679681E+01 -0.81486789581E+00  0.28254892946E+01  0.32633623846E+01  0.51100000000E-03 0.  1.
        -12    1    3    3    0    0  0.46536744632E+01 -0.24555477868E+02  0.31493265785E+02  0.40205148540E+02  0.00000000000E+00 0.  1.
</event>
<event>
 7    1  0.2353206E-008  0.4614232E+02  0.7816164E-02  0.1320468E+00
        -11   -1    0    0    0    0  0.00000000000E+00  0.00000000000E+00  0.45593999997E+02  0.45594000000E+02  0.51100000000E-03 0. -1.
         11   -1    0    0    0    0 -0.00000000000E+00 -0.00000000000E+00 -0.45593999997E+02  0.45594000000E+02  0.51100000000E-03 0.  1.
    9900012    2    1    2    0    0  0.20315260182E+02  0.40174224486E+02  0.15605733488E+01  0.46142317649E+02  0.99999989740E+01 0.  0.
         12    1    1    2    0    0 -0.20315260182E+02 -0.40174224486E+02 -0.15605733488E+01  0.45045682351E+02  0.00000000000E+00 0. -1.
         11    1    3    3    0    0  0.66496459728E+01  0.17880924511E+02 -0.35371211705E+01  0.19402486423E+02  0.51100000000E-03 0. -1.
        -11    1    3    3    0    0  0.56498219736E+01  0.92433244811E+01  0.96092434902E+00  0.10875794760E+02  0.51100000000E-03 0.  1.
         12    1    3    3    0    0  0.80157922356E+01  0.13049975494E+02  0.41367701703E+01  0.15864036466E+02  0.00000000000E+00 0. -1.
</event>
<event>
 7    1  0.2353206E-008  0.4614232E+02  0.7816164E-02  0.1320468E+00
        -11   -1    0    0    0    0  0.00000000000E+00  0.00000000000E+00  0.45593999997E+02  0.45594000000E+02  0.51100000000E-03 0.  1.
         11   -1    0    0    0    0 -0.00000000000E+00 -0.00000000000E+00 -0.45593999997E+02  0.45594000000E+02  0.51100000000E-03 0. -1.
    9900012    2    1    2    0    0  0.15096942474E+00 -0.20236482259E+02  0.40243949671E+02  0.46142317731E+02  0.99999997215E+01 0.  0.
         12    1    1    2    0    0 -0.15096942474E+00  0.20236482259E+02 -0.40243949671E+02  0.45045682269E+02  0.00000000000E+00 0. -1.
         11    1    3    3    0    0 -0.13960902441E+01 -0.63918685030E+00  0.24096293289E+01  0.28572611996E+01  0.51100000000E-03 0. -1.
        -11    1    3    3    0    0  0.14309887847E+00 -0.17170425850E+02  0.26257449245E+02  0.31373518169E+02  0.51100000000E-03 0.  1.
        -12    1    3    3    0    0  0.14039607904E+01 -0.24268695588E+01  0.11576871097E+02  0.11911538362E+02  0.00000000000E+00 0.  1.
</event>
<event>
 7    1  0.2353206E-008  0.4614232E+02  0.7816164E-02  0.1320468E+00
        -11   -1    0    0    0    0  0.00000000000E+00  0.00000000000E+00  0.45593999997E+02  0.45594000000E+02  0.51100000000E-03 0.  1.
         11   -1    0    0    0    0 -0.00000000000E+00 -0.00000000000E+00 -0.45593999997E+02  0.45594000000E+02  0.51100000000E-03 0. -1.
    9900012    2    1    2    0    0 -0.17736083543E+02  0.11054125835E+02  0.39904275231E+02  0.46142317197E+02  0.99999948590E+01 0.  0.
         12    1    1    2    0    0  0.17736083543E+02 -0.11054125835E+02 -0.39904275231E+02  0.45045682803E+02  0.00000000000E+00 0. -1.
         11    1    3    3    0    0 -0.82279936174E+01  0.29976070959E+01  0.19273709779E+02  0.21169823244E+02  0.51100000000E-03 0. -1.
        -11    1    3    3    0    0 -0.38402733555E+01 -0.29576079503E+00  0.42862146715E+01  0.57625350640E+01  0.51100000000E-03 0.  1.
        -12    1    3    3    0    0 -0.56678165705E+01  0.83522795341E+01  0.16344350780E+02  0.19209958889E+02  0.00000000000E+00 0.  1.
</event>
<event>
 7    1  0.2353206E-008  0.4614232E+02  0.7816164E-02  0.1320468E+00
        -11   -1    0    0    0    0  0.00000000000E+00  0.00000000000E+00  0.45593999997E+02  0.45594000000E+02  0.51100000000E-03 0.  1.
         11   -1    0    0    0    0 -0.00000000000E+00 -0.00000000000E+00 -0.45593999997E+02  0.45594000000E+02  0.51100000000E-03 0. -1.
    9900012    2    1    2    0    0  0.29427657548E+02  0.32409284136E+02  0.10619075084E+02  0.46142317826E+02  0.10000000588E+02 0.  0.
         12    1    1    2    0    0 -0.29427657548E+02 -0.32409284136E+02 -0.10619075084E+02  0.45045682174E+02  0.00000000000E+00 0. -1.
         11    1    3    3    0    0  0.19820744655E+01  0.95969555348E+00  0.20867568376E+01  0.30338406521E+01  0.51100000000E-03 0. -1.
        -11    1    3    3    0    0  0.15171680541E+02  0.21983036831E+02  0.44377159905E+01  0.27076320323E+02  0.51100000000E-03 0.  1.
        -12    1    3    3    0    0  0.12273902541E+02  0.94665517512E+01  0.40946022556E+01  0.16032156851E+02  0.00000000000E+00 0.  1.
</event>
<event>
 7    1  0.2353206E-008  0.4614232E+02  0.7816164E-02  0.1320468E+00
        -11   -1    0    0    0    0  0.00000000000E+00  0.00000000000E+00  0.45593999997E+02  0.45594000000E+02  0.51100000000E-03 0.  1.
         11   -1    0    0    0    0 -0.00000000000E+00 -0.00000000000E+00 -0.45593999997E+02  0.45594000000E+02  0.51100000000E-03 0. -1.
    9900012    2    1    2    0    0  0.97505116858E+01  0.30728153248E+02  0.31461428708E+02  0.46142319002E+02  0.10000011320E+02 0.  0.
         12    1    1    2    0    0 -0.97505116858E+01 -0.30728153248E+02 -0.31461428708E+02  0.45045680998E+02  0.00000000000E+00 0. -1.
         11    1    3    3    0    0  0.29540577310E+01  0.47179817146E+01  0.30465463878E+01  0.63456484059E+01  0.51100000000E-03 0. -1.
        -11    1    3    3    0    0 -0.12265058738E+01  0.86346873109E+01  0.85948313805E+01  0.12244724102E+02  0.51100000000E-03 0.  1.
        -12    1    3    3    0    0  0.80229598287E+01  0.17375484223E+02  0.19820050939E+02  0.27551946495E+02  0.00000000000E+00 0.  1.
</event>
<event>
 7    1  0.2353206E-008  0.4614232E+02  0.7816164E-02  0.1320468E+00
        -11   -1    0    0    0    0  0.00000000000E+00  0.00000000000E+00  0.45593999997E+02  0.45594000000E+02  0.51100000000E-03 0.  1.
         11   -1    0    0    0    0 -0.00000000000E+00 -0.00000000000E+00 -0.45593999997E+02  0.45594000000E+02  0.51100000000E-03 0. -1.
    9900012    2    1    2    0    0 -0.10454238658E+02 -0.20092840359E+02  0.38937130644E+02  0.46142317827E+02  0.10000000605E+02 0.  0.
         12    1    1    2    0    0  0.10454238658E+02  0.20092840359E+02 -0.38937130644E+02  0.45045682173E+02  0.00000000000E+00 0. -1.
         11    1    3    3    0    0  0.13342917605E+01 -0.19541904441E+01  0.21204336505E+01  0.31773312577E+01  0.51100000000E-03 0. -1.
        -11    1    3    3    0    0 -0.34757327011E+01 -0.42974690872E+01  0.58884867332E+01  0.80760903061E+01  0.51100000000E-03 0.  1.
        -12    1    3    3    0    0 -0.83127977170E+01 -0.13841180827E+02  0.30928210260E+02  0.34888896264E+02  0.00000000000E+00 0.  1.
</event>
<event>
 7    1  0.2353206E-008  0.4614232E+02  0.7816164E-02  0.1320468E+00
        -11   -1    0    0    0    0  0.00000000000E+00  0.00000000000E+00  0.45593999997E+02  0.45594000000E+02  0.51100000000E-03 0. -1.
         11   -1    0    0    0    0 -0.00000000000E+00 -0.00000000000E+00 -0.45593999997E+02  0.45594000000E+02  0.51100000000E-03 0.  1.
    9900012    2    1    2    0    0  0.44603155696E+02 -0.52523910094E+01 -0.34762619416E+01  0.46142317560E+02  0.99999981687E+01 0.  0.
         12    1    1    2    0    0 -0.44603155696E+02  0.52523910094E+01  0.34762619416E+01  0.45045682440E+02  0.00000000000E+00 0. -1.
         11    1    3    3    0    0  0.34073470435E+02 -0.92358438692E+00 -0.32008633859E+00  0.34087488191E+02  0.51100000000E-03 0. -1.
        -11    1    3    3    0    0  0.27464947360E+01 -0.19057872648E+01 -0.85532428085E-01  0.33440356593E+01  0.51100000000E-03 0.  1.
        -12    1    3    3    0    0  0.77831905248E+01 -0.24230193576E+01 -0.30706431749E+01  0.87107937101E+01  0.00000000000E+00 0.  1.
</event>
<event>
 7    1  0.2353206E-008  0.4614232E+02  0.7816164E-02  0.1320468E+00
        -11   -1    0    0    0    0  0.00000000000E+00  0.00000000000E+00  0.45593999997E+02  0.45594000000E+02  0.51100000000E-03 0.  1.
         11   -1    0    0    0    0 -0.00000000000E+00 -0.00000000000E+00 -0.45593999997E+02  0.45594000000E+02  0.51100000000E-03 0. -1.
    9900012    2    1    2    0    0  0.41910981434E+02 -0.11995931057E+02  0.11343756295E+02  0.46142317260E+02  0.99999954277E+01 0.  0.
         12    1    1    2    0    0 -0.41910981434E+02  0.11995931057E+02 -0.11343756295E+02  0.45045682740E+02  0.00000000000E+00 0. -1.
         11    1    3    3    0    0  0.11734864104E+02 -0.41716578587E+01  0.44922951290E+01  0.13239731139E+02  0.51100000000E-03 0. -1.
        -11    1    3    3    0    0  0.30159973859E+02 -0.76520327984E+01  0.55708153570E+01  0.31610308653E+02  0.51100000000E-03 0.  1.
         12    1    3    3    0    0  0.16143470108E-01 -0.17224039954E+00  0.12806458084E+01  0.12922774677E+01  0.00000000000E+00 0. -1.
</event>
<event>
 7    1  0.2353206E-008  0.4614232E+02  0.7816164E-02  0.1320468E+00
        -11   -1    0    0    0    0  0.00000000000E+00  0.00000000000E+00  0.45593999997E+02  0.45594000000E+02  0.51100000000E-03 0.  1.
         11   -1    0    0    0    0 -0.00000000000E+00 -0.00000000000E+00 -0.45593999997E+02  0.45594000000E+02  0.51100000000E-03 0. -1.
    9900012    2    1    2    0    0 -0.27543782441E+02  0.30774051871E+02 -0.17983634602E+02  0.46142319483E+02  0.10000015705E+02 0.  0.
         12    1    1    2    0    0  0.27543782441E+02 -0.30774051871E+02  0.17983634602E+02  0.45045680517E+02  0.00000000000E+00 0. -1.
         11    1    3    3    0    0 -0.82241241334E+00  0.99820263091E+00  0.57552517065E+00  0.14156271236E+01  0.51100000000E-03 0. -1.
        -11    1    3    3    0    0 -0.15174789540E+02  0.16294212140E+02 -0.14332067350E+02  0.26479874276E+02  0.51100000000E-03 0.  1.
        -12    1    3    3    0    0 -0.11546580488E+02  0.13481637100E+02 -0.42270924221E+01  0.18246818084E+02  0.00000000000E+00 0.  1.
</event>
<event>
 7    1  0.2353206E-008  0.4614232E+02  0.7816164E-02  0.1320468E+00
        -11   -1    0    0    0    0  0.00000000000E+00  0.00000000000E+00  0.45593999997E+02  0.45594000000E+02  0.51100000000E-03 0.  1.
         11   -1    0    0    0    0 -0.00000000000E+00 -0.00000000000E+00 -0.45593999997E+02  0.45594000000E+02  0.51100000000E-03 0. -1.
    9900012    2    1    2    0    0  0.21831012559E+02 -0.17543273080E+02  0.35281070513E+02  0.46142317895E+02  0.10000001225E+02 0.  0.
         12    1    1    2    0    0 -0.21831012559E+02  0.17543273080E+02 -0.35281070513E+02  0.45045682105E+02  0.00000000000E+00 0. -1.
         11    1    3    3    0    0  0.93785761891E+01 -0.39841527171E+01  0.72799104563E+01  0.12523109068E+02  0.51100000000E-03 0. -1.
        -11    1    3    3    0    0  0.29456979682E+00  0.81165838774E-01  0.74310513394E+00  0.80347044737E+00  0.51100000000E-03 0.  1.
        -12    1    3    3    0    0  0.12157866573E+02 -0.13640286202E+02  0.27258054922E+02  0.32815738380E+02  0.00000000000E+00 0.  1.
</event>
<event>
 7    1  0.2353206E-008  0.4614232E+02  0.7816164E-02  0.1320468E+00
        -11   -1    0    0    0    0  0.00000000000E+00  0.00000000000E+00  0.45593999997E+02  0.45594000000E+02  0.51100000000E-03 0.  1.
         11   -1    0    0    0    0 -0.00000000000E+00 -0.00000000000E+00 -0.45593999997E+02  0.45594000000E+02  0.51100000000E-03 0. -1.
    9900012    2    1    2    0    0  0.24176818232E+02  0.25818918778E+02 -0.27892262226E+02  0.46142318755E+02  0.10000009067E+02 0.  0.
         12    1    1    2    0    0 -0.24176818232E+02 -0.25818918778E+02  0.27892262226E+02  0.45045681245E+02  0.00000000000E+00 0. -1.
         11    1    3    3    0    0  0.15107047547E+01  0.25053944024E+01 -0.43086573818E+01  0.52080474904E+01  0.51100000000E-03 0. -1.
        -11    1    3    3    0    0  0.69312114792E+01  0.11589682889E+02 -0.68319097390E+01  0.15133982720E+02  0.51100000000E-03 0.  1.
        -12    1    3    3    0    0  0.15734901998E+02  0.11723841487E+02 -0.16751695105E+02  0.25800288545E+02  0.00000000000E+00 0.  1.
</event>
<event>
 7    1  0.2353206E-008  0.4614232E+02  0.7816164E-02  0.1320468E+00
        -11   -1    0    0    0    0  0.00000000000E+00  0.00000000000E+00  0.45593999997E+02  0.45594000000E+02  0.51100000000E-03 0.  1.
         11   -1    0    0    0    0 -0.00000000000E+00 -0.00000000000E+00 -0.45593999997E+02  0.45594000000E+02  0.51100000000E-03 0. -1.
    9900012    2    1    2    0    0  0.13036858896E+01  0.42896241680E+02 -0.13686719596E+02  0.46142318292E+02  0.10000004844E+02 0.  0.
         12    1    1    2    0    0 -0.13036858896E+01 -0.42896241680E+02  0.13686719596E+02  0.45045681708E+02  0.00000000000E+00 0. -1.
         11    1    3    3    0    0 -0.19996617477E+00  0.51882725025E+01  0.38935407534E+00  0.52067028808E+01  0.51100000000E-03 0. -1.
        -11    1    3    3    0    0 -0.10940341655E+01  0.17956361489E+02 -0.10065865443E+02  0.20614302706E+02  0.51100000000E-03 0.  1.
        -12    1    3    3    0    0  0.25976862299E+01  0.19751607689E+02 -0.40102082292E+01  0.20321312706E+02  0.00000000000E+00 0.  1.
</event>
<event>
 7    1  0.2353206E-008  0.4614232E+02  0.7816164E-02  0.1320468E+00
        -11   -1    0    0    0    0  0.00000000000E+00  0.00000000000E+00  0.45593999997E+02  0.45594000000E+02  0.51100000000E-03 0. -1.
         11   -1    0    0    0    0 -0.00000000000E+00 -0.00000000000E+00 -0.45593999997E+02  0.45594000000E+02  0.51100000000E-03 0.  1.
    9900012    2    1    2    0    0  0.19131808504E+02  0.18994107344E+02 -0.36087550601E+02  0.46142317423E+02  0.99999969163E+01 0.  0.
         12    1    1    2    0    0 -0.19131808504E+02 -0.18994107344E+02  0.36087550601E+02  0.45045682577E+02  0.00000000000E+00 0. -1.
         11    1    3    3    0    0  0.29787533431E-01  0.16040843392E+01 -0.36982242419E+01  0.40312326488E+01  0.51100000000E-03 0. -1.
        -11    1    3    3    0    0  0.47338707275E-01  0.29197919521E+01 -0.45053430151E+01  0.53689423485E+01  0.51100000000E-03 0.  1.
         12    1    3    3    0    0  0.19054682264E+02  0.14470231053E+02 -0.27883983344E+02  0.36742142426E+02  0.00000000000E+00 0. -1.
</event>
<event>
 7    1  0.2353206E-008  0.4614232E+02  0.7816164E-02  0.1320468E+00
        -11   -1    0    0    0    0  0.00000000000E+00  0.00000000000E+00  0.45593999997E+02  0.45594000000E+02  0.51100000000E-03 0.  1.
         11   -1    0    0    0    0 -0.00000000000E+00 -0.00000000000E+00 -0.45593999997E+02  0.45594000000E+02  0.51100000000E-03 0. -1.
    9900012    2    1    2    0    0 -0.27956488070E+01 -0.10611038219E+02  0.43688713803E+02  0.46142317654E+02  0.99999990191E+01 0.  0.
         12    1    1    2    0    0  0.27956488070E+01  0.10611038219E+02 -0.43688713803E+02  0.45045682346E+02  0.00000000000E+00 0. -1.
         11    1    3    3    0    0 -0.19182951861E+01 -0.36795100618E+01  0.68807164819E+01  0.80351048706E+01  0.51100000000E-03 0. -1.
        -11    1    3    3    0    0 -0.20341803375E+01 -0.80109160612E+01  0.29994143272E+02  0.31112076380E+02  0.51100000000E-03 0.  1.
        -12    1    3    3    0    0  0.11568267166E+01  0.10793879043E+01  0.68138540489E+01  0.69951364033E+01  0.00000000000E+00 0.  1.
</event>
<event>
 7    1  0.2353206E-008  0.4614232E+02  0.7816164E-02  0.1320468E+00
        -11   -1    0    0    0    0  0.00000000000E+00  0.00000000000E+00  0.45593999997E+02  0.45594000000E+02  0.51100000000E-03 0.  1.
         11   -1    0    0    0    0 -0.00000000000E+00 -0.00000000000E+00 -0.45593999997E+02  0.45594000000E+02  0.51100000000E-03 0. -1.
    9900012    2    1    2    0    0 -0.13621653851E+02  0.37072510914E+02  0.21660859849E+02  0.46142319092E+02  0.10000012134E+02 0.  0.
         12    1    1    2    0    0  0.13621653851E+02 -0.37072510914E+02 -0.21660859849E+02  0.45045680908E+02  0.00000000000E+00 0. -1.
         11    1    3    3    0    0 -0.54631245553E+01  0.13243424233E+02  0.95247692659E+01  0.17203349823E+02  0.51100000000E-03 0. -1.
        -11    1    3    3    0    0 -0.90168540081E+01  0.19255922210E+02  0.80138555182E+01  0.22722589573E+02  0.51100000000E-03 0.  1.
         12    1    3    3    0    0  0.85832471231E+00  0.45731644712E+01  0.41222350648E+01  0.62163796957E+01  0.00000000000E+00 0. -1.
</event>
<event>
 7    1  0.2353206E-008  0.4614232E+02  0.7816164E-02  0.1320468E+00
        -11   -1    0    0    0    0  0.00000000000E+00  0.00000000000E+00  0.45593999997E+02  0.45594000000E+02  0.51100000000E-03 0.  1.
         11   -1    0    0    0    0 -0.00000000000E+00 -0.00000000000E+00 -0.45593999997E+02  0.45594000000E+02  0.51100000000E-03 0. -1.
    9900012    2    1    2    0    0  0.41570286328E+02  0.69532676292E+01 -0.15895813265E+02  0.46142317461E+02  0.99999972598E+01 0.  0.
         12    1    1    2    0    0 -0.41570286328E+02 -0.69532676292E+01  0.15895813265E+02  0.45045682539E+02  0.00000000000E+00 0. -1.
         11    1    3    3    0    0  0.31442283836E+01  0.91947636574E-01 -0.32565962660E+01  0.45276976485E+01  0.51100000000E-03 0. -1.
        -11    1    3    3    0    0  0.88169748425E+01  0.36056581843E+01 -0.79559930252E+00  0.95589118014E+01  0.51100000000E-03 0.  1.
        -12    1    3    3    0    0  0.29609083102E+02  0.32556618083E+01 -0.11843617696E+02  0.32055708011E+02  0.00000000000E+00 0.  1.
</event>
<event>
 7    1  0.2353206E-008  0.4614232E+02  0.7816164E-02  0.1320468E+00
        -11   -1    0    0    0    0  0.00000000000E+00  0.00000000000E+00  0.45593999997E+02  0.45594000000E+02  0.51100000000E-03 0.  1.
         11   -1    0    0    0    0 -0.00000000000E+00 -0.00000000000E+00 -0.45593999997E+02  0.45594000000E+02  0.51100000000E-03 0. -1.
    9900012    2    1    2    0    0  0.23121616260E+01 -0.29485622935E+02  0.33975953631E+02  0.46142317894E+02  0.10000001207E+02 0.  0.
         12    1    1    2    0    0 -0.23121616260E+01  0.29485622935E+02 -0.33975953631E+02  0.45045682106E+02  0.00000000000E+00 0. -1.
         11    1    3    3    0    0 -0.15762182223E+01 -0.34127609996E+01  0.35393284651E+01  0.51631625744E+01  0.51100000000E-03 0. -1.
        -11    1    3    3    0    0 -0.16046759744E+01 -0.12301093248E+02  0.11383652962E+02  0.16836847540E+02  0.51100000000E-03 0.  1.
        -12    1    3    3    0    0  0.54930558228E+01 -0.13771768688E+02  0.19052972205E+02  0.24142307779E+02  0.00000000000E+00 0.  1.
</event>
<event>
 7    1  0.2353206E-008  0.4614232E+02  0.7816164E-02  0.1320468E+00
        -11   -1    0    0    0    0  0.00000000000E+00  0.00000000000E+00  0.45593999997E+02  0.45594000000E+02  0.51100000000E-03 0.  1.
         11   -1    0    0    0    0 -0.00000000000E+00 -0.00000000000E+00 -0.45593999997E+02  0.45594000000E+02  0.51100000000E-03 0. -1.
    9900012    2    1    2    0    0 -0.28020096723E+01  0.43718929655E+02  0.10484126877E+02  0.46142323351E+02  0.10000050973E+02 0.  0.
         12    1    1    2    0    0  0.28020096723E+01 -0.43718929655E+02 -0.10484126877E+02  0.45045676649E+02  0.00000000000E+00 0. -1.
         11    1    3    3    0    0 -0.29510157389E+01  0.10650602999E+02  0.21880484012E+01  0.11266383368E+02  0.51100000000E-03 0. -1.
        -11    1    3    3    0    0 -0.33278781120E+01  0.11284196007E+02  0.19840376788E+01  0.11930811290E+02  0.51100000000E-03 0.  1.
        -12    1    3    3    0    0  0.34768841785E+01  0.21784130649E+02  0.63120407967E+01  0.22945128693E+02  0.00000000000E+00 0.  1.
</event>
<event>
 7    1  0.2353206E-008  0.4614232E+02  0.7816164E-02  0.1320468E+00
        -11   -1    0    0    0    0  0.00000000000E+00  0.00000000000E+00  0.45593999997E+02  0.45594000000E+02  0.51100000000E-03 0. -1.
         11   -1    0    0    0    0 -0.00000000000E+00 -0.00000000000E+00 -0.45593999997E+02  0.45594000000E+02  0.51100000000E-03 0.  1.
    9900012    2    1    2    0    0  0.33374574654E+02  0.25703172503E+02 -0.15956130250E+02  0.46142318713E+02  0.10000008682E+02 0.  0.
         12    1    1    2    0    0 -0.33374574654E+02 -0.25703172503E+02  0.15956130250E+02  0.45045681287E+02  0.00000000000E+00 0. -1.
         11    1    3    3    0    0  0.10081338047E+02  0.95027687384E+01 -0.61851323168E+01  0.15172074761E+02  0.51100000000E-03 0. -1.
        -11    1    3    3    0    0  0.84429500513E+01  0.97600787281E+01 -0.21644829546E+01  0.13085393730E+02  0.51100000000E-03 0.  1.
        -12    1    3    3    0    0  0.14850286556E+02  0.64403250360E+01 -0.76065149782E+01  0.17884850222E+02  0.00000000000E+00 0.  1.
</event>
<event>
 7    1  0.2353206E-008  0.4614232E+02  0.7816164E-02  0.1320468E+00
        -11   -1    0    0    0    0  0.00000000000E+00  0.00000000000E+00  0.45593999997E+02  0.45594000000E+02  0.51100000000E-03 0.  1.
         11   -1    0    0    0    0 -0.00000000000E+00 -0.00000000000E+00 -0.45593999997E+02  0.45594000000E+02  0.51100000000E-03 0. -1.
    9900012    2    1    2    0    0 -0.72365310814E+01  0.10066786246E+02  0.43305957087E+02  0.46142317780E+02  0.10000000175E+02 0.  0.
         12    1    1    2    0    0  0.72365310814E+01 -0.10066786246E+02 -0.43305957087E+02  0.45045682220E+02  0.00000000000E+00 0. -1.
         11    1    3    3    0    0 -0.25281149320E+01  0.36251491820E+01  0.15955406581E+02  0.16556209443E+02  0.51100000000E-03 0. -1.
        -11    1    3    3    0    0 -0.57946114519E+01  0.32357407834E+01  0.23682556687E+02  0.24594939150E+02  0.51100000000E-03 0.  1.
         12    1    3    3    0    0  0.10861953026E+01  0.32058962808E+01  0.36679938187E+01  0.49911691869E+01  0.00000000000E+00 0. -1.
</event>
<event>
 7    1  0.2353206E-008  0.4614232E+02  0.7816164E-02  0.1320468E+00
        -11   -1    0    0    0    0  0.00000000000E+00  0.00000000000E+00  0.45593999997E+02  0.45594000000E+02  0.51100000000E-03 0.  1.
         11   -1    0    0    0    0 -0.00000000000E+00 -0.00000000000E+00 -0.45593999997E+02  0.45594000000E+02  0.51100000000E-03 0. -1.
    9900012    2    1    2    0    0  0.35364724020E+02 -0.18801044964E+02  0.20614808383E+02  0.46142319615E+02  0.10000016902E+02 0.  0.
         12    1    1    2    0    0 -0.35364724020E+02  0.18801044964E+02 -0.20614808383E+02  0.45045680385E+02  0.00000000000E+00 0. -1.
         11    1    3    3    0    0  0.39207085720E+01  0.82324907989E+00  0.15576062103E+01  0.42983522566E+01  0.51100000000E-03 0. -1.
        -11    1    3    3    0    0  0.24166714788E+02 -0.13434437690E+02  0.13215227507E+02  0.30645659693E+02  0.51100000000E-03 0.  1.
         12    1    3    3    0    0  0.72773006600E+01 -0.61898563539E+01  0.58419746656E+01  0.11198307665E+02  0.00000000000E+00 0. -1.
</event>
<event>
 7    1  0.2353206E-008  0.4614231E+02  0.7816164E-02  0.1320468E+00
        -11   -1    0    0    0    0  0.00000000000E+00  0.00000000000E+00  0.45593999997E+02  0.45594000000E+02  0.51100000000E-03 0.  1.
         11   -1    0    0    0    0 -0.00000000000E+00 -0.00000000000E+00 -0.45593999997E+02  0.45594000000E+02  0.51100000000E-03 0. -1.
    9900012    2    1    2    0    0 -0.32048327452E+02  0.20103266645E+02  0.24451537520E+02  0.46142308648E+02  0.99999168994E+01 0.  0.
         12    1    1    2    0    0  0.32048327452E+02 -0.20103266645E+02 -0.24451537520E+02  0.45045691352E+02  0.00000000000E+00 0. -1.
         11    1    3    3    0    0 -0.28887836665E+01  0.45162118114E+01  0.17818426075E+01  0.56494427634E+01  0.51100000000E-03 0. -1.
        -11    1    3    3    0    0 -0.15262064513E+02  0.93551207804E+01  0.90406799004E+01  0.20054495539E+02  0.51100000000E-03 0.  1.
         12    1    3    3    0    0 -0.13897479273E+02  0.62319340536E+01  0.13629015012E+02  0.20438370345E+02  0.00000000000E+00 0. -1.
</event>
<event>
 7    1  0.2353206E-008  0.4614232E+02  0.7816164E-02  0.1320468E+00
        -11   -1    0    0    0    0  0.00000000000E+00  0.00000000000E+00  0.45593999997E+02  0.45594000000E+02  0.51100000000E-03 0.  1.
         11   -1    0    0    0    0 -0.00000000000E+00 -0.00000000000E+00 -0.45593999997E+02  0.45594000000E+02  0.51100000000E-03 0. -1.
    9900012    2    1    2    0    0 -0.17899995429E+02  0.63922350893E+01  0.40839233198E+02  0.46142317920E+02  0.10000001452E+02 0.  0.
         12    1    1    2    0    0  0.17899995429E+02 -0.63922350893E+01 -0.40839233198E+02  0.45045682080E+02  0.00000000000E+00 0. -1.
         11    1    3    3    0    0 -0.58516921589E+01  0.10046174859E+01  0.11656245402E+02  0.13081269608E+02  0.51100000000E-03 0. -1.
        -11    1    3    3    0    0 -0.84759380166E+01  0.54835206125E+01  0.27112511782E+02  0.28930931871E+02  0.51100000000E-03 0.  1.
         12    1    3    3    0    0 -0.35723652536E+01 -0.95903009085E-01  0.20704760144E+01  0.41301164413E+01  0.00000000000E+00 0. -1.
</event>
<event>
 7    1  0.2353206E-008  0.4614232E+02  0.7816164E-02  0.1320468E+00
        -11   -1    0    0    0    0  0.00000000000E+00  0.00000000000E+00  0.45593999997E+02  0.45594000000E+02  0.51100000000E-03 0.  1.
         11   -1    0    0    0    0 -0.00000000000E+00 -0.00000000000E+00 -0.45593999997E+02  0.45594000000E+02  0.51100000000E-03 0. -1.
    9900012    2    1    2    0    0  0.41804110450E+02 -0.70765841748E+01  0.15213540511E+02  0.46142317532E+02  0.99999979097E+01 0.  0.
         12    1    1    2    0    0 -0.41804110450E+02  0.70765841748E+01 -0.15213540511E+02  0.45045682468E+02  0.00000000000E+00 0. -1.
         11    1    3    3    0    0  0.10894762779E+02 -0.86241902712E+00  0.74092365573E+01  0.13203651359E+02  0.51100000000E-03 0.  1.
        -11    1    3    3    0    0  0.20536799586E+02 -0.45719761943E+01  0.25429759313E+01  0.21192683417E+02  0.51100000000E-03 0. -1.
         12    1    3    3    0    0  0.10372548086E+02 -0.16421889534E+01  0.52613280223E+01  0.11745982756E+02  0.00000000000E+00 0. -1.
</event>
<event>
 7    1  0.2353206E-008  0.4614231E+02  0.7816164E-02  0.1320468E+00
        -11   -1    0    0    0    0  0.00000000000E+00  0.00000000000E+00  0.45593999997E+02  0.45594000000E+02  0.51100000000E-03 0. -1.
         11   -1    0    0    0    0 -0.00000000000E+00 -0.00000000000E+00 -0.45593999997E+02  0.45594000000E+02  0.51100000000E-03 0.  1.
    9900012    2    1    2    0    0 -0.27450700106E+02 -0.16205176352E+02 -0.31827124397E+02  0.46142306262E+02  0.99998951454E+01 0.  0.
         12    1    1    2    0    0  0.27450700106E+02  0.16205176352E+02  0.31827124397E+02  0.45045693738E+02  0.00000000000E+00 0. -1.
         11    1    3    3    0    0 -0.82504996749E+01 -0.20842220635E+01 -0.74167480124E+01  0.11288174247E+02  0.51100000000E-03 0. -1.
        -11    1    3    3    0    0 -0.12005699326E+02 -0.44774365949E+01 -0.13493121614E+02  0.18607756069E+02  0.51100000000E-03 0.  1.
         12    1    3    3    0    0 -0.71945011051E+01 -0.96435176940E+01 -0.10917254771E+02  0.16246375947E+02  0.00000000000E+00 0. -1.
</event>
<event>
 7    1  0.2353206E-008  0.4614232E+02  0.7816164E-02  0.1320468E+00
        -11   -1    0    0    0    0  0.00000000000E+00  0.00000000000E+00  0.45593999997E+02  0.45594000000E+02  0.51100000000E-03 0.  1.
         11   -1    0    0    0    0 -0.00000000000E+00 -0.00000000000E+00 -0.45593999997E+02  0.45594000000E+02  0.51100000000E-03 0. -1.
    9900012    2    1    2    0    0 -0.19599741318E+02  0.17893548567E+01  0.40518661206E+02  0.46142317006E+02  0.99999931114E+01 0.  0.
         12    1    1    2    0    0  0.19599741318E+02 -0.17893548567E+01 -0.40518661206E+02  0.45045682994E+02  0.00000000000E+00 0. -1.
         11    1    3    3    0    0 -0.32760227820E+01  0.40785050941E+01  0.13292278335E+02  0.14284648847E+02  0.51100000000E-03 0. -1.
        -11    1    3    3    0    0 -0.88000399115E+00 -0.60825388388E-01  0.94107952680E+00  0.12898595618E+01  0.51100000000E-03 0.  1.
         12    1    3    3    0    0 -0.15443714544E+02 -0.22283248490E+01  0.26285303344E+02  0.30567808597E+02  0.00000000000E+00 0. -1.
</event>
<event>
 7    1  0.2353206E-008  0.4614232E+02  0.7816164E-02  0.1320468E+00
        -11   -1    0    0    0    0  0.00000000000E+00  0.00000000000E+00  0.45593999997E+02  0.45594000000E+02  0.51100000000E-03 0.  1.
         11   -1    0    0    0    0 -0.00000000000E+00 -0.00000000000E+00 -0.45593999997E+02  0.45594000000E+02  0.51100000000E-03 0. -1.
    9900012    2    1    2    0    0  0.12322238804E+02 -0.25025376202E+02  0.35369569801E+02  0.46142317731E+02  0.99999997211E+01 0.  0.
         12    1    1    2    0    0 -0.12322238804E+02  0.25025376202E+02 -0.35369569801E+02  0.45045682269E+02  0.00000000000E+00 0. -1.
         11    1    3    3    0    0  0.14467831852E+01 -0.12332894839E+01  0.44572115834E+00  0.19526525928E+01  0.51100000000E-03 0. -1.
        -11    1    3    3    0    0  0.58854377579E+00 -0.91957887812E+01  0.11560993386E+02  0.14783960343E+02  0.51100000000E-03 0.  1.
        -12    1    3    3    0    0  0.10286911843E+02 -0.14596297937E+02  0.23362855257E+02  0.29405704795E+02  0.00000000000E+00 0.  1.
</event>
<event>
 7    1  0.2353206E-008  0.4614232E+02  0.7816164E-02  0.1320468E+00
        -11   -1    0    0    0    0  0.00000000000E+00  0.00000000000E+00  0.45593999997E+02  0.45594000000E+02  0.51100000000E-03 0.  1.
         11   -1    0    0    0    0 -0.00000000000E+00 -0.00000000000E+00 -0.45593999997E+02  0.45594000000E+02  0.51100000000E-03 0. -1.
    9900012    2    1    2    0    0  0.32136429009E+02  0.31174488834E+02  0.49512247790E+01  0.46142318184E+02  0.10000003853E+02 0.  0.
         12    1    1    2    0    0 -0.32136429009E+02 -0.31174488834E+02 -0.49512247790E+01  0.45045681816E+02  0.00000000000E+00 0. -1.
         11    1    3    3    0    0  0.14778726020E+02  0.12454321421E+02 -0.14994573061E+01  0.19384768178E+02  0.51100000000E-03 0. -1.
        -11    1    3    3    0    0  0.11301735310E+02  0.96334541159E+01  0.53404148528E+01  0.15781403305E+02  0.51100000000E-03 0.  1.
        -12    1    3    3    0    0  0.60559676788E+01  0.90867132970E+01  0.11102672323E+01  0.10976146701E+02  0.00000000000E+00 0.  1.
</event>
<event>
 7    1  0.2353206E-008  0.4614232E+02  0.7816164E-02  0.1320468E+00
        -11   -1    0    0    0    0  0.00000000000E+00  0.00000000000E+00  0.45593999997E+02  0.45594000000E+02  0.51100000000E-03 0.  1.
         11   -1    0    0    0    0 -0.00000000000E+00 -0.00000000000E+00 -0.45593999997E+02  0.45594000000E+02  0.51100000000E-03 0. -1.
    9900012    2    1    2    0    0 -0.24067852267E+02 -0.70239508163E+01  0.37423469588E+02  0.46142317922E+02  0.10000001471E+02 0.  0.
         12    1    1    2    0    0  0.24067852267E+02  0.70239508163E+01 -0.37423469588E+02  0.45045682078E+02  0.00000000000E+00 0. -1.
         11    1    3    3    0    0 -0.38672152410E+00  0.69210507569E+00  0.53983241531E+01  0.54562319320E+01  0.51100000000E-03 0. -1.
        -11    1    3    3    0    0 -0.51074108463E+01 -0.72582146727E+00  0.80744100911E+01  0.95816783986E+01  0.51100000000E-03 0.  1.
         12    1    3    3    0    0 -0.18573719897E+02 -0.69902344247E+01  0.23950735344E+02  0.31104407592E+02  0.00000000000E+00 0. -1.
</event>
<event>
 7    1  0.2353206E-008  0.4614232E+02  0.7816164E-02  0.1320468E+00
        -11   -1    0    0    0    0  0.00000000000E+00  0.00000000000E+00  0.45593999997E+02  0.45594000000E+02  0.51100000000E-03 0.  1.
         11   -1    0    0    0    0 -0.00000000000E+00 -0.00000000000E+00 -0.45593999997E+02  0.45594000000E+02  0.51100000000E-03 0. -1.
    9900012    2    1    2    0    0 -0.32613327795E+02  0.12089084469E+02  0.28624088042E+02  0.46142317305E+02  0.99999958447E+01 0.  0.
         12    1    1    2    0    0  0.32613327795E+02 -0.12089084469E+02 -0.28624088042E+02  0.45045682695E+02  0.00000000000E+00 0. -1.
         11    1    3    3    0    0 -0.19830339017E+01  0.32217870472E+01  0.22576507197E+01  0.44056012377E+01  0.51100000000E-03 0. -1.
        -11    1    3    3    0    0 -0.83599858629E+01  0.10720325138E+00  0.79807963080E+01  0.11558285605E+02  0.51100000000E-03 0.  1.
        -12    1    3    3    0    0 -0.22270308031E+02  0.87600941709E+01  0.18385641014E+02  0.30178430462E+02  0.00000000000E+00 0.  1.
</event>
<event>
 7    1  0.2353206E-008  0.4614232E+02  0.7816164E-02  0.1320468E+00
        -11   -1    0    0    0    0  0.00000000000E+00  0.00000000000E+00  0.45593999997E+02  0.45594000000E+02  0.51100000000E-03 0.  1.
         11   -1    0    0    0    0 -0.00000000000E+00 -0.00000000000E+00 -0.45593999997E+02  0.45594000000E+02  0.51100000000E-03 0. -1.
    9900012    2    1    2    0    0 -0.16358624455E+02 -0.26786361639E+02  0.32310984531E+02  0.46142317795E+02  0.10000000312E+02 0.  0.
         12    1    1    2    0    0  0.16358624455E+02  0.26786361639E+02 -0.32310984531E+02  0.45045682205E+02  0.00000000000E+00 0. -1.
         11    1    3    3    0    0  0.65886891400E-01 -0.50646884202E+01  0.46673719094E+01  0.68876534958E+01  0.51100000000E-03 0. -1.
        -11    1    3    3    0    0 -0.37323622941E+01 -0.96651868273E+01  0.10596059090E+02  0.14819677230E+02  0.51100000000E-03 0.  1.
         12    1    3    3    0    0 -0.12692149053E+02 -0.12056486391E+02  0.17047553532E+02  0.24434987070E+02  0.00000000000E+00 0. -1.
</event>
<event>
 7    1  0.2353206E-008  0.4614232E+02  0.7816164E-02  0.1320468E+00
        -11   -1    0    0    0    0  0.00000000000E+00  0.00000000000E+00  0.45593999997E+02  0.45594000000E+02  0.51100000000E-03 0.  1.
         11   -1    0    0    0    0 -0.00000000000E+00 -0.00000000000E+00 -0.45593999997E+02  0.45594000000E+02  0.51100000000E-03 0. -1.
    9900012    2    1    2    0    0  0.16084980073E+02  0.12299221076E+02  0.40238242687E+02  0.46142316549E+02  0.99999889485E+01 0.  0.
         12    1    1    2    0    0 -0.16084980073E+02 -0.12299221076E+02 -0.40238242687E+02  0.45045683451E+02  0.00000000000E+00 0. -1.
         11    1    3    3    0    0  0.42462971748E+01  0.58458828701E+01  0.10932169025E+02  0.13104110275E+02  0.51100000000E-03 0.  1.
        -11    1    3    3    0    0  0.24063898166E+01  0.43757855833E+01  0.14722163157E+02  0.15546070233E+02  0.51100000000E-03 0. -1.
         12    1    3    3    0    0  0.94322930821E+01  0.20775526226E+01  0.14583910505E+02  0.17492136041E+02  0.00000000000E+00 0. -1.
</event>
<event>
 7    1  0.2353206E-008  0.4614232E+02  0.7816164E-02  0.1320468E+00
        -11   -1    0    0    0    0  0.00000000000E+00  0.00000000000E+00  0.45593999997E+02  0.45594000000E+02  0.51100000000E-03 0.  1.
         11   -1    0    0    0    0 -0.00000000000E+00 -0.00000000000E+00 -0.45593999997E+02  0.45594000000E+02  0.51100000000E-03 0. -1.
    9900012    2    1    2    0    0 -0.13130187426E+02 -0.37762801608E+02  0.20752890594E+02  0.46142317908E+02  0.10000001336E+02 0.  0.
         12    1    1    2    0    0  0.13130187426E+02  0.37762801608E+02 -0.20752890594E+02  0.45045682092E+02  0.00000000000E+00 0. -1.
         11    1    3    3    0    0 -0.50186888143E+00 -0.66185808566E+00 -0.63931191495E+00  0.10481643408E+01  0.51100000000E-03 0. -1.
        -11    1    3    3    0    0 -0.48949371489E+01 -0.16195370145E+02  0.57744831781E+01  0.17877222381E+02  0.51100000000E-03 0.  1.
         12    1    3    3    0    0 -0.77333813958E+01 -0.20905573378E+02  0.15617719331E+02  0.27216931186E+02  0.00000000000E+00 0. -1.
</event>
<event>
 7    1  0.2353206E-008  0.4614232E+02  0.7816164E-02  0.1320468E+00
        -11   -1    0    0    0    0  0.00000000000E+00  0.00000000000E+00  0.45593999997E+02  0.45594000000E+02  0.51100000000E-03 0.  1.
         11   -1    0    0    0    0 -0.00000000000E+00 -0.00000000000E+00 -0.45593999997E+02  0.45594000000E+02  0.51100000000E-03 0. -1.
    9900012    2    1    2    0    0 -0.19835966225E+01  0.41566494937E+02 -0.17245443565E+02  0.46142317847E+02  0.10000000782E+02 0.  0.
         12    1    1    2    0    0  0.19835966225E+01 -0.41566494937E+02  0.17245443565E+02  0.45045682153E+02  0.00000000000E+00 0. -1.
         11    1    3    3    0    0 -0.82059463899E+00  0.26711501932E+01  0.73484512609E+00  0.28893626523E+01  0.51100000000E-03 0. -1.
        -11    1    3    3    0    0 -0.16735583185E+01  0.97539552776E+01 -0.23137716473E+01  0.10163364625E+02  0.51100000000E-03 0.  1.
         12    1    3    3    0    0  0.51055633500E+00  0.29141389466E+02 -0.15666517044E+02  0.33089590570E+02  0.00000000000E+00 0. -1.
</event>
<event>
 7    1  0.2353206E-008  0.4614232E+02  0.7816164E-02  0.1320468E+00
        -11   -1    0    0    0    0  0.00000000000E+00  0.00000000000E+00  0.45593999997E+02  0.45594000000E+02  0.51100000000E-03 0. -1.
         11   -1    0    0    0    0 -0.00000000000E+00 -0.00000000000E+00 -0.45593999997E+02  0.45594000000E+02  0.51100000000E-03 0.  1.
    9900012    2    1    2    0    0 -0.30292252825E+02  0.30791448282E+02 -0.12782003635E+02  0.46142317794E+02  0.10000000297E+02 0.  0.
         12    1    1    2    0    0  0.30292252825E+02 -0.30791448282E+02  0.12782003635E+02  0.45045682206E+02  0.00000000000E+00 0. -1.
         11    1    3    3    0    0 -0.11179065556E+02  0.12739262433E+02 -0.25831149815E+01  0.17144468417E+02  0.51100000000E-03 0. -1.
        -11    1    3    3    0    0 -0.19455759317E+02  0.17756534607E+02 -0.91994353487E+01  0.27900729432E+02  0.51100000000E-03 0.  1.
         12    1    3    3    0    0  0.34257204742E+00  0.29565124202E+00 -0.99945330477E+00  0.10971199447E+01  0.00000000000E+00 0. -1.
</event>
<event>
 7    1  0.2353206E-008  0.4614232E+02  0.7816164E-02  0.1320468E+00
        -11   -1    0    0    0    0  0.00000000000E+00  0.00000000000E+00  0.45593999997E+02  0.45594000000E+02  0.51100000000E-03 0.  1.
         11   -1    0    0    0    0 -0.00000000000E+00 -0.00000000000E+00 -0.45593999997E+02  0.45594000000E+02  0.51100000000E-03 0. -1.
    9900012    2    1    2    0    0 -0.41798122383E+02 -0.62255613941E+01  0.15597209281E+02  0.46142316669E+02  0.99999900383E+01 0.  0.
         12    1    1    2    0    0  0.41798122383E+02  0.62255613941E+01 -0.15597209281E+02  0.45045683331E+02  0.00000000000E+00 0. -1.
         11    1    3    3    0    0 -0.13326092173E+02 -0.17726949102E+01  0.62059826212E+01  0.14806802504E+02  0.51100000000E-03 0.  1.
        -11    1    3    3    0    0 -0.20731662523E+02 -0.20850830203E+01  0.30613188773E+01  0.21059940068E+02  0.51100000000E-03 0. -1.
         12    1    3    3    0    0 -0.77403676877E+01 -0.23677834637E+01  0.63299077820E+01  0.10275574096E+02  0.00000000000E+00 0. -1.
</event>
<event>
 7    1  0.2353206E-008  0.4614232E+02  0.7816164E-02  0.1320468E+00
        -11   -1    0    0    0    0  0.00000000000E+00  0.00000000000E+00  0.45593999997E+02  0.45594000000E+02  0.51100000000E-03 0.  1.
         11   -1    0    0    0    0 -0.00000000000E+00 -0.00000000000E+00 -0.45593999997E+02  0.45594000000E+02  0.51100000000E-03 0. -1.
    9900012    2    1    2    0    0  0.12287433297E+02 -0.20938223152E+02  0.37943682599E+02  0.46142320352E+02  0.10000023628E+02 0.  0.
         12    1    1    2    0    0 -0.12287433297E+02  0.20938223152E+02 -0.37943682599E+02  0.45045679648E+02  0.00000000000E+00 0. -1.
         11    1    3    3    0    0  0.27152374447E+01 -0.60871312783E+01  0.73775031420E+01  0.99424963893E+01  0.51100000000E-03 0. -1.
        -11    1    3    3    0    0  0.43554865455E+01 -0.10368879393E+02  0.12223981739E+02  0.16610528370E+02  0.51100000000E-03 0.  1.
         12    1    3    3    0    0  0.52167093071E+01 -0.44822124804E+01  0.18342197718E+02  0.19589295593E+02  0.00000000000E+00 0. -1.
</event>
<event>
 7    1  0.2353206E-008  0.4614232E+02  0.7816164E-02  0.1320468E+00
        -11   -1    0    0    0    0  0.00000000000E+00  0.00000000000E+00  0.45593999997E+02  0.45594000000E+02  0.51100000000E-03 0.  1.
         11   -1    0    0    0    0 -0.00000000000E+00 -0.00000000000E+00 -0.45593999997E+02  0.45594000000E+02  0.51100000000E-03 0. -1.
    9900012    2    1    2    0    0  0.39637032932E+02  0.12718482899E+02  0.17212185486E+02  0.46142317453E+02  0.99999971867E+01 0.  0.
         12    1    1    2    0    0 -0.39637032932E+02 -0.12718482899E+02 -0.17212185486E+02  0.45045682547E+02  0.00000000000E+00 0. -1.
         11    1    3    3    0    0  0.14563856079E+02  0.13217181127E+01  0.25894452092E+01  0.14851197575E+02  0.51100000000E-03 0. -1.
        -11    1    3    3    0    0  0.22498907956E+02  0.10754284484E+02  0.12507473977E+02  0.27897892385E+02  0.51100000000E-03 0.  1.
         12    1    3    3    0    0  0.25742688969E+01  0.64248030239E+00  0.21152663003E+01  0.33932274922E+01  0.00000000000E+00 0. -1.
</event>
<event>
 7    1  0.2353206E-008  0.4614232E+02  0.7816164E-02  0.1320468E+00
        -11   -1    0    0    0    0  0.00000000000E+00  0.00000000000E+00  0.45593999997E+02  0.45594000000E+02  0.51100000000E-03 0.  1.
         11   -1    0    0    0    0 -0.00000000000E+00 -0.00000000000E+00 -0.45593999997E+02  0.45594000000E+02  0.51100000000E-03 0. -1.
    9900012    2    1    2    0    0 -0.16664285940E+01 -0.42620231061E+02 -0.14486282229E+02  0.46142318157E+02  0.10000003606E+02 0.  0.
         12    1    1    2    0    0  0.16664285940E+01  0.42620231061E+02  0.14486282229E+02  0.45045681843E+02  0.00000000000E+00 0. -1.
         11    1    3    3    0    0  0.28177685398E+01 -0.20283619188E+02 -0.44286899882E+01  0.20951809521E+02  0.51100000000E-03 0. -1.
        -11    1    3    3    0    0 -0.17715221218E+01 -0.41863660918E+01 -0.72916147368E+00  0.46038710232E+01  0.51100000000E-03 0.  1.
        -12    1    3    3    0    0 -0.27126750120E+01 -0.18150245781E+02 -0.93284307671E+01  0.20586637613E+02  0.00000000000E+00 0.  1.
</event>
<event>
 7    1  0.2353206E-008  0.4614232E+02  0.7816164E-02  0.1320468E+00
        -11   -1    0    0    0    0  0.00000000000E+00  0.00000000000E+00  0.45593999997E+02  0.45594000000E+02  0.51100000000E-03 0. -1.
         11   -1    0    0    0    0 -0.00000000000E+00 -0.00000000000E+00 -0.45593999997E+02  0.45594000000E+02  0.51100000000E-03 0.  1.
    9900012    2    1    2    0    0  0.13688135207E+02 -0.42000978166E+02 -0.88128450091E+01  0.46142318193E+02  0.10000003936E+02 0.  0.
         12    1    1    2    0    0 -0.13688135207E+02  0.42000978166E+02  0.88128450091E+01  0.45045681807E+02  0.00000000000E+00 0. -1.
         11    1    3    3    0    0  0.72794439212E+01 -0.11409550336E+02 -0.22932034436E+01  0.13726868724E+02  0.51100000000E-03 0. -1.
        -11    1    3    3    0    0  0.34635408805E+01 -0.11515001089E+02 -0.50982160051E+01  0.13060749297E+02  0.51100000000E-03 0.  1.
        -12    1    3    3    0    0  0.29451504054E+01 -0.19076426740E+02 -0.14214255605E+01  0.19354700171E+02  0.00000000000E+00 0.  1.
</event>
<event>
 7    1  0.2353206E-008  0.4614232E+02  0.7816164E-02  0.1320468E+00
        -11   -1    0    0    0    0  0.00000000000E+00  0.00000000000E+00  0.45593999997E+02  0.45594000000E+02  0.51100000000E-03 0.  1.
         11   -1    0    0    0    0 -0.00000000000E+00 -0.00000000000E+00 -0.45593999997E+02  0.45594000000E+02  0.51100000000E-03 0. -1.
    9900012    2    1    2    0    0 -0.22968145451E+01  0.42567896937E+02  0.14553769355E+02  0.46142318640E+02  0.10000008017E+02 0.  0.
         12    1    1    2    0    0  0.22968145451E+01 -0.42567896937E+02 -0.14553769355E+02  0.45045681360E+02  0.00000000000E+00 0. -1.
         11    1    3    3    0    0 -0.42193663128E+00  0.49675269150E+01  0.68790486948E+00  0.50326501510E+01  0.51100000000E-03 0. -1.
        -11    1    3    3    0    0  0.25146685659E+01  0.13767440188E+02  0.20357487200E+01  0.14142497673E+02  0.51100000000E-03 0.  1.
        -12    1    3    3    0    0 -0.43895464797E+01  0.23832929834E+02  0.11830115766E+02  0.26967170816E+02  0.00000000000E+00 0.  1.
</event>
<event>
 7    1  0.2353206E-008  0.4614232E+02  0.7816164E-02  0.1320468E+00
        -11   -1    0    0    0    0  0.00000000000E+00  0.00000000000E+00  0.45593999997E+02  0.45594000000E+02  0.51100000000E-03 0.  1.
         11   -1    0    0    0    0 -0.00000000000E+00 -0.00000000000E+00 -0.45593999997E+02  0.45594000000E+02  0.51100000000E-03 0. -1.
    9900012    2    1    2    0    0 -0.20220721696E+02  0.75626442216E+01  0.39535326560E+02  0.46142320743E+02  0.10000027195E+02 0.  0.
         12    1    1    2    0    0  0.20220721696E+02 -0.75626442216E+01 -0.39535326560E+02  0.45045679257E+02  0.00000000000E+00 0. -1.
         11    1    3    3    0    0 -0.10043229132E+02  0.33966555022E+01  0.10891635321E+02  0.15199718426E+02  0.51100000000E-03 0. -1.
        -11    1    3    3    0    0 -0.95254533385E+01  0.35551134991E+01  0.21960278991E+02  0.24199730306E+02  0.51100000000E-03 0.  1.
         12    1    3    3    0    0 -0.65203922570E+00  0.61087522036E+00  0.66834122481E+01  0.67428720116E+01  0.00000000000E+00 0. -1.
</event>
<event>
 7    1  0.2353206E-008  0.4614232E+02  0.7816164E-02  0.1320468E+00
        -11   -1    0    0    0    0  0.00000000000E+00  0.00000000000E+00  0.45593999997E+02  0.45594000000E+02  0.51100000000E-03 0. -1.
         11   -1    0    0    0    0 -0.00000000000E+00 -0.00000000000E+00 -0.45593999997E+02  0.45594000000E+02  0.51100000000E-03 0.  1.
    9900012    2    1    2    0    0 -0.45768740734E+01  0.99958600459E+01 -0.43683504041E+02  0.46142317414E+02  0.99999968381E+01 0.  0.
         12    1    1    2    0    0  0.45768740734E+01 -0.99958600459E+01  0.43683504041E+02  0.45045682586E+02  0.00000000000E+00 0. -1.
         11    1    3    3    0    0 -0.20142500706E+01  0.61997249248E+01 -0.12729437393E+02  0.14301481360E+02  0.51100000000E-03 0. -1.
        -11    1    3    3    0    0 -0.30080355974E+01  0.77963156655E+00 -0.65807532208E+01  0.72775282032E+01  0.51100000000E-03 0.  1.
        -12    1    3    3    0    0  0.44541159458E+00  0.30165035545E+01 -0.24373313427E+02  0.24563307851E+02  0.00000000000E+00 0.  1.
</event>
<event>
 7    1  0.2353206E-008  0.4614232E+02  0.7816164E-02  0.1320468E+00
        -11   -1    0    0    0    0  0.00000000000E+00  0.00000000000E+00  0.45593999997E+02  0.45594000000E+02  0.51100000000E-03 0.  1.
         11   -1    0    0    0    0 -0.00000000000E+00 -0.00000000000E+00 -0.45593999997E+02  0.45594000000E+02  0.51100000000E-03 0. -1.
    9900012    2    1    2    0    0  0.24675188475E+02  0.37272162260E+02  0.55708619598E+01  0.46142317534E+02  0.99999979309E+01 0.  0.
         12    1    1    2    0    0 -0.24675188475E+02 -0.37272162260E+02 -0.55708619598E+01  0.45045682466E+02  0.00000000000E+00 0. -1.
         11    1    3    3    0    0  0.39168278077E+01  0.61211004923E+01  0.16352267012E+00  0.72688479993E+01  0.51100000000E-03 0.  1.
        -11    1    3    3    0    0  0.19450855553E+02  0.26795862971E+02  0.19636603133E+01  0.33169413866E+02  0.51100000000E-03 0. -1.
         12    1    3    3    0    0  0.13075051143E+01  0.43551987964E+01  0.34436789763E+01  0.57040556688E+01  0.00000000000E+00 0. -1.
</event>
<event>
 7    1  0.2353206E-008  0.4614232E+02  0.7816164E-02  0.1320468E+00
        -11   -1    0    0    0    0  0.00000000000E+00  0.00000000000E+00  0.45593999997E+02  0.45594000000E+02  0.51100000000E-03 0.  1.
         11   -1    0    0    0    0 -0.00000000000E+00 -0.00000000000E+00 -0.45593999997E+02  0.45594000000E+02  0.51100000000E-03 0. -1.
    9900012    2    1    2    0    0  0.61414169602E+01  0.17370278935E+02  0.41105593765E+02  0.46142318394E+02  0.10000005770E+02 0.  0.
         12    1    1    2    0    0 -0.61414169602E+01 -0.17370278935E+02 -0.41105593765E+02  0.45045681606E+02  0.00000000000E+00 0. -1.
         11    1    3    3    0    0  0.18843634007E+01  0.12260640781E+00  0.11393968065E+01  0.22054666402E+01  0.51100000000E-03 0. -1.
        -11    1    3    3    0    0  0.32376580746E+01  0.53703150449E+01  0.12116930045E+02  0.13643412603E+02  0.51100000000E-03 0.  1.
        -12    1    3    3    0    0  0.10193954850E+01  0.11877357482E+02  0.27849266914E+02  0.30293439151E+02  0.00000000000E+00 0.  1.
</event>
<event>
 7    1  0.2353206E-008  0.4614232E+02  0.7816164E-02  0.1320468E+00
        -11   -1    0    0    0    0  0.00000000000E+00  0.00000000000E+00  0.45593999997E+02  0.45594000000E+02  0.51100000000E-03 0.  1.
         11   -1    0    0    0    0 -0.00000000000E+00 -0.00000000000E+00 -0.45593999997E+02  0.45594000000E+02  0.51100000000E-03 0. -1.
    9900012    2    1    2    0    0  0.27259968515E+01  0.19071577325E+02  0.40718019173E+02  0.46142320897E+02  0.10000028596E+02 0.  0.
         12    1    1    2    0    0 -0.27259968515E+01 -0.19071577325E+02 -0.40718019173E+02  0.45045679103E+02  0.00000000000E+00 0. -1.
         11    1    3    3    0    0 -0.28105831170E+01  0.71324521912E+01  0.18416550518E+02  0.19948448184E+02  0.51100000000E-03 0. -1.
        -11    1    3    3    0    0  0.60533542748E+01  0.10837759253E+02  0.21119784579E+02  0.24497865714E+02  0.51100000000E-03 0.  1.
        -12    1    3    3    0    0 -0.51677430626E+00  0.11013658802E+01  0.11816840758E+01  0.16960069990E+01  0.00000000000E+00 0.  1.
</event>
<event>
 7    1  0.2353206E-008  0.4614232E+02  0.7816164E-02  0.1320468E+00
        -11   -1    0    0    0    0  0.00000000000E+00  0.00000000000E+00  0.45593999997E+02  0.45594000000E+02  0.51100000000E-03 0.  1.
         11   -1    0    0    0    0 -0.00000000000E+00 -0.00000000000E+00 -0.45593999997E+02  0.45594000000E+02  0.51100000000E-03 0. -1.
    9900012    2    1    2    0    0  0.18137223719E+02 -0.85104377581E+01  0.40345100323E+02  0.46142317020E+02  0.99999932457E+01 0.  0.
         12    1    1    2    0    0 -0.18137223719E+02  0.85104377581E+01 -0.40345100323E+02  0.45045682980E+02  0.00000000000E+00 0. -1.
         11    1    3    3    0    0  0.95202538842E+01 -0.38694454902E+01  0.24432632419E+02  0.26505874247E+02  0.51100000000E-03 0. -1.
        -11    1    3    3    0    0  0.93258839474E+01 -0.41929895456E+01  0.15756400142E+02  0.18783434682E+02  0.51100000000E-03 0.  1.
         12    1    3    3    0    0 -0.70891411275E+00 -0.44800272237E+00  0.15606776120E+00  0.85300809175E+00  0.00000000000E+00 0. -1.
</event>
<event>
 7    1  0.2353206E-008  0.4614232E+02  0.7816164E-02  0.1320468E+00
        -11   -1    0    0    0    0  0.00000000000E+00  0.00000000000E+00  0.45593999997E+02  0.45594000000E+02  0.51100000000E-03 0.  1.
         11   -1    0    0    0    0 -0.00000000000E+00 -0.00000000000E+00 -0.45593999997E+02  0.45594000000E+02  0.51100000000E-03 0. -1.
    9900012    2    1    2    0    0 -0.43256105914E+02 -0.89026831147E+00  0.12539152174E+02  0.46142316369E+02  0.99999873084E+01 0.  0.
         12    1    1    2    0    0  0.43256105914E+02  0.89026831147E+00 -0.12539152174E+02  0.45045683631E+02  0.00000000000E+00 0. -1.
         11    1    3    3    0    0 -0.80338547454E+01  0.12608216796E+01  0.57437055490E+01  0.99560357107E+01  0.51100000000E-03 0. -1.
        -11    1    3    3    0    0 -0.21846198048E+02 -0.19456878521E+00  0.24365171168E+01  0.21982512188E+02  0.51100000000E-03 0.  1.
         12    1    3    3    0    0 -0.13376053121E+02 -0.19565212058E+01  0.43589295083E+01  0.14203768471E+02  0.00000000000E+00 0. -1.
</event>
<event>
 7    1  0.2353206E-008  0.4614232E+02  0.7816164E-02  0.1320468E+00
        -11   -1    0    0    0    0  0.00000000000E+00  0.00000000000E+00  0.45593999997E+02  0.45594000000E+02  0.51100000000E-03 0.  1.
         11   -1    0    0    0    0 -0.00000000000E+00 -0.00000000000E+00 -0.45593999997E+02  0.45594000000E+02  0.51100000000E-03 0. -1.
    9900012    2    1    2    0    0 -0.10674884896E+01  0.10444461263E+02  0.43805104334E+02  0.46142317982E+02  0.10000002014E+02 0.  0.
         12    1    1    2    0    0  0.10674884896E+01 -0.10444461263E+02 -0.43805104334E+02  0.45045682018E+02  0.00000000000E+00 0. -1.
         11    1    3    3    0    0  0.41827471014E-01  0.11796242033E+01  0.14652010075E+01  0.18815092484E+01  0.51100000000E-03 0. -1.
        -11    1    3    3    0    0  0.68828025556E+00 -0.16629483964E+01  0.50493028718E+01  0.53604651693E+01  0.51100000000E-03 0.  1.
        -12    1    3    3    0    0 -0.17975962162E+01  0.10927785457E+02  0.37290600455E+02  0.38900343564E+02  0.00000000000E+00 0.  1.
</event>
<event>
 7    1  0.2353206E-008  0.4614232E+02  0.7816164E-02  0.1320468E+00
        -11   -1    0    0    0    0  0.00000000000E+00  0.00000000000E+00  0.45593999997E+02  0.45594000000E+02  0.51100000000E-03 0. -1.
         11   -1    0    0    0    0 -0.00000000000E+00 -0.00000000000E+00 -0.45593999997E+02  0.45594000000E+02  0.51100000000E-03 0.  1.
    9900012    2    1    2    0    0  0.13469018603E+02 -0.21338224402E+02 -0.37314598078E+02  0.46142317493E+02  0.99999975575E+01 0.  0.
         12    1    1    2    0    0 -0.13469018603E+02  0.21338224402E+02  0.37314598078E+02  0.45045682507E+02  0.00000000000E+00 0. -1.
         11    1    3    3    0    0  0.50248729889E+01 -0.60207694605E+01 -0.17576391384E+02  0.19246520407E+02  0.51100000000E-03 0.  1.
        -11    1    3    3    0    0  0.12004836250E+01  0.21061907175E-01 -0.21363512957E+01  0.24506329096E+01  0.51100000000E-03 0. -1.
        -12    1    3    3    0    0  0.72436619891E+01 -0.15338516849E+02 -0.17601855399E+02  0.24445164176E+02  0.00000000000E+00 0.  1.
</event>
<event>
 7    1  0.2353206E-008  0.4614232E+02  0.7816164E-02  0.1320468E+00
        -11   -1    0    0    0    0  0.00000000000E+00  0.00000000000E+00  0.45593999997E+02  0.45594000000E+02  0.51100000000E-03 0. -1.
         11   -1    0    0    0    0 -0.00000000000E+00 -0.00000000000E+00 -0.45593999997E+02  0.45594000000E+02  0.51100000000E-03 0.  1.
    9900012    2    1    2    0    0 -0.75756596032E+01  0.34307457890E+02 -0.28190796804E+02  0.46142319744E+02  0.10000018081E+02 0.  0.
         12    1    1    2    0    0  0.75756596032E+01 -0.34307457890E+02  0.28190796804E+02  0.45045680256E+02  0.00000000000E+00 0. -1.
         11    1    3    3    0    0  0.43846262734E+00  0.11512489646E+02 -0.71289413788E+01  0.13548116945E+02  0.51100000000E-03 0. -1.
        -11    1    3    3    0    0 -0.21770211541E+01  0.34666929998E+01 -0.11853937306E+01  0.42617531625E+01  0.51100000000E-03 0.  1.
        -12    1    3    3    0    0 -0.58371010765E+01  0.19328275245E+02 -0.19876461694E+02  0.28332449636E+02  0.00000000000E+00 0.  1.
</event>
<event>
 7    1  0.2353206E-008  0.4614232E+02  0.7816164E-02  0.1320468E+00
        -11   -1    0    0    0    0  0.00000000000E+00  0.00000000000E+00  0.45593999997E+02  0.45594000000E+02  0.51100000000E-03 0. -1.
         11   -1    0    0    0    0 -0.00000000000E+00 -0.00000000000E+00 -0.45593999997E+02  0.45594000000E+02  0.51100000000E-03 0.  1.
    9900012    2    1    2    0    0 -0.19539812398E+02 -0.28241310456E+02 -0.29150260423E+02  0.46142316882E+02  0.99999919857E+01 0.  0.
         12    1    1    2    0    0  0.19539812398E+02  0.28241310456E+02  0.29150260423E+02  0.45045683118E+02  0.00000000000E+00 0. -1.
         11    1    3    3    0    0 -0.11818739475E+01 -0.43924884778E+01 -0.42546608799E+01  0.62283963040E+01  0.51100000000E-03 0. -1.
        -11    1    3    3    0    0 -0.14812194905E+02 -0.18883096953E+02 -0.23634504299E+02  0.33683263829E+02  0.51100000000E-03 0.  1.
        -12    1    3    3    0    0 -0.35457435450E+01 -0.49657250250E+01 -0.12610952440E+01  0.62306567492E+01  0.00000000000E+00 0.  1.
</event>
<event>
 7    1  0.2353206E-008  0.4614232E+02  0.7816164E-02  0.1320468E+00
        -11   -1    0    0    0    0  0.00000000000E+00  0.00000000000E+00  0.45593999997E+02  0.45594000000E+02  0.51100000000E-03 0.  1.
         11   -1    0    0    0    0 -0.00000000000E+00 -0.00000000000E+00 -0.45593999997E+02  0.45594000000E+02  0.51100000000E-03 0. -1.
    9900012    2    1    2    0    0 -0.18520796326E+02  0.24985406109E+02  0.32585628178E+02  0.46142316758E+02  0.99999908556E+01 0.  0.
         12    1    1    2    0    0  0.18520796326E+02 -0.24985406109E+02 -0.32585628178E+02  0.45045683242E+02  0.00000000000E+00 0. -1.
         11    1    3    3    0    0 -0.57515388702E+01  0.82727207326E+01  0.60759604533E+01  0.11765857529E+02  0.51100000000E-03 0. -1.
        -11    1    3    3    0    0 -0.82374383888E+01  0.13323532056E+02  0.15715975297E+02  0.22189271674E+02  0.51100000000E-03 0.  1.
         12    1    3    3    0    0 -0.45318190667E+01  0.33891533210E+01  0.10793692427E+02  0.12187187555E+02  0.00000000000E+00 0. -1.
</event>
<event>
 7    1  0.2353206E-008  0.4614230E+02  0.7816164E-02  0.1320468E+00
        -11   -1    0    0    0    0  0.00000000000E+00  0.00000000000E+00  0.45593999997E+02  0.45594000000E+02  0.51100000000E-03 0. -1.
         11   -1    0    0    0    0 -0.00000000000E+00 -0.00000000000E+00 -0.45593999997E+02  0.45594000000E+02  0.51100000000E-03 0.  1.
    9900012    2    1    2    0    0 -0.42163385763E+02  0.14580406548E+02  0.62269834487E+01  0.46142304568E+02  0.99998796909E+01 0.  0.
         12    1    1    2    0    0  0.42163385763E+02 -0.14580406548E+02 -0.62269834487E+01  0.45045695432E+02  0.00000000000E+00 0. -1.
         11    1    3    3    0    0 -0.46774658707E+01  0.37770257244E+00  0.79895135648E+00  0.47602174043E+01  0.51100000000E-03 0. -1.
        -11    1    3    3    0    0 -0.20356403861E+02  0.53899985241E+01  0.66413501385E+01  0.22080371242E+02  0.51100000000E-03 0.  1.
        -12    1    3    3    0    0 -0.17129516031E+02  0.88127054516E+01 -0.12133180463E+01  0.19301715921E+02  0.00000000000E+00 0.  1.
</event>
<event>
 7    1  0.2353206E-008  0.4614232E+02  0.7816164E-02  0.1320468E+00
        -11   -1    0    0    0    0  0.00000000000E+00  0.00000000000E+00  0.45593999997E+02  0.45594000000E+02  0.51100000000E-03 0.  1.
         11   -1    0    0    0    0 -0.00000000000E+00 -0.00000000000E+00 -0.45593999997E+02  0.45594000000E+02  0.51100000000E-03 0. -1.
    9900012    2    1    2    0    0 -0.71255218956E+01  0.35083632698E+00  0.44477154520E+02  0.46142318491E+02  0.10000006659E+02 0.  0.
         12    1    1    2    0    0  0.71255218956E+01 -0.35083632698E+00 -0.44477154520E+02  0.45045681509E+02  0.00000000000E+00 0. -1.
         11    1    3    3    0    0 -0.11998732314E+01  0.71742090105E+00  0.16701434665E+01  0.21780192792E+01  0.51100000000E-03 0. -1.
        -11    1    3    3    0    0  0.15855768283E+01  0.33314473911E+00  0.26591895685E+01  0.31138928559E+01  0.51100000000E-03 0.  1.
        -12    1    3    3    0    0 -0.75112254925E+01 -0.69972931317E+00  0.40147821485E+02  0.40850406356E+02  0.00000000000E+00 0.  1.
</event>
<event>
 7    1  0.2353206E-008  0.4614232E+02  0.7816164E-02  0.1320468E+00
        -11   -1    0    0    0    0  0.00000000000E+00  0.00000000000E+00  0.45593999997E+02  0.45594000000E+02  0.51100000000E-03 0. -1.
         11   -1    0    0    0    0 -0.00000000000E+00 -0.00000000000E+00 -0.45593999997E+02  0.45594000000E+02  0.51100000000E-03 0.  1.
    9900012    2    1    2    0    0  0.85502457797E+01 -0.44226528973E+02  0.14486516630E+00  0.46142317035E+02  0.99999933791E+01 0.  0.
         12    1    1    2    0    0 -0.85502457797E+01  0.44226528973E+02 -0.14486516630E+00  0.45045682965E+02  0.00000000000E+00 0. -1.
         11    1    3    3    0    0  0.63406759175E+01 -0.15398903974E+02  0.20936758539E+01  0.16784334766E+02  0.51100000000E-03 0. -1.
        -11    1    3    3    0    0 -0.32309658132E+00 -0.96324796920E-01  0.26730604789E+00  0.43025881946E+00  0.51100000000E-03 0.  1.
        -12    1    3    3    0    0  0.25326664434E+01 -0.28731300201E+02 -0.22161167355E+01  0.28927723449E+02  0.00000000000E+00 0.  1.
</event>
<event>
 7    1  0.2353206E-008  0.4614232E+02  0.7816164E-02  0.1320468E+00
        -11   -1    0    0    0    0  0.00000000000E+00  0.00000000000E+00  0.45593999997E+02  0.45594000000E+02  0.51100000000E-03 0.  1.
         11   -1    0    0    0    0 -0.00000000000E+00 -0.00000000000E+00 -0.45593999997E+02  0.45594000000E+02  0.51100000000E-03 0. -1.
    9900012    2    1    2    0    0 -0.31237838740E+02  0.28979726647E+02  0.14611165152E+02  0.46142320154E+02  0.10000021824E+02 0.  0.
         12    1    1    2    0    0  0.31237838740E+02 -0.28979726647E+02 -0.14611165152E+02  0.45045679846E+02  0.00000000000E+00 0. -1.
         11    1    3    3    0    0 -0.12587417191E+01  0.36797196473E+00  0.29694117692E+00  0.13446220308E+01  0.51100000000E-03 0.  1.
        -11    1    3    3    0    0 -0.77408928225E+01  0.25276985502E+01  0.34066791437E+01  0.88270122181E+01  0.51100000000E-03 0. -1.
        -12    1    3    3    0    0 -0.22238204198E+02  0.26084056132E+02  0.10907544831E+02  0.35970685905E+02  0.00000000000E+00 0.  1.
</event>
<event>
 7    1  0.2353206E-008  0.4614232E+02  0.7816164E-02  0.1320468E+00
        -11   -1    0    0    0    0  0.00000000000E+00  0.00000000000E+00  0.45593999997E+02  0.45594000000E+02  0.51100000000E-03 0. -1.
         11   -1    0    0    0    0 -0.00000000000E+00 -0.00000000000E+00 -0.45593999997E+02  0.45594000000E+02  0.51100000000E-03 0.  1.
    9900012    2    1    2    0    0  0.24501872511E+01  0.37181488763E+01 -0.44825053422E+02  0.46142318043E+02  0.10000002574E+02 0.  0.
         12    1    1    2    0    0 -0.24501872511E+01 -0.37181488763E+01  0.44825053422E+02  0.45045681957E+02  0.00000000000E+00 0. -1.
         11    1    3    3    0    0  0.24816326151E+01  0.40160097956E+01 -0.12321630850E+02  0.13195052944E+02  0.51100000000E-03 0. -1.
        -11    1    3    3    0    0 -0.47836999297E+00 -0.35160569847E+00 -0.32491540247E+02  0.32496963740E+02  0.51100000000E-03 0.  1.
         12    1    3    3    0    0  0.44692462894E+00  0.53744779240E-01 -0.11882324992E-01  0.45030136009E+00  0.00000000000E+00 0. -1.
</event>
<event>
 7    1  0.2353206E-008  0.4614232E+02  0.7816164E-02  0.1320468E+00
        -11   -1    0    0    0    0  0.00000000000E+00  0.00000000000E+00  0.45593999997E+02  0.45594000000E+02  0.51100000000E-03 0.  1.
         11   -1    0    0    0    0 -0.00000000000E+00 -0.00000000000E+00 -0.45593999997E+02  0.45594000000E+02  0.51100000000E-03 0. -1.
    9900012    2    1    2    0    0  0.12355324095E+02 -0.37153300462E+01  0.43158495164E+02  0.46142318568E+02  0.10000007358E+02 0.  0.
         12    1    1    2    0    0 -0.12355324095E+02  0.37153300462E+01 -0.43158495164E+02  0.45045681432E+02  0.00000000000E+00 0. -1.
         11    1    3    3    0    0  0.10206110254E+02 -0.29413931577E+01  0.33287122483E+02  0.34940649731E+02  0.51100000000E-03 0. -1.
        -11    1    3    3    0    0  0.30383354253E+01  0.62161725300E+00  0.85146596888E+01  0.90618607385E+01  0.51100000000E-03 0.  1.
         12    1    3    3    0    0 -0.88912158384E+00 -0.13955541415E+01  0.13567129925E+01  0.21398080981E+01  0.00000000000E+00 0. -1.
</event>
<event>
 7    1  0.2353206E-008  0.4614232E+02  0.7816164E-02  0.1320468E+00
        -11   -1    0    0    0    0  0.00000000000E+00  0.00000000000E+00  0.45593999997E+02  0.45594000000E+02  0.51100000000E-03 0.  1.
         11   -1    0    0    0    0 -0.00000000000E+00 -0.00000000000E+00 -0.45593999997E+02  0.45594000000E+02  0.51100000000E-03 0. -1.
    9900012    2    1    2    0    0  0.42053777347E+02  0.13874156128E+02  0.82523456730E+01  0.46142316450E+02  0.99999880423E+01 0.  0.
         12    1    1    2    0    0 -0.42053777347E+02 -0.13874156128E+02 -0.82523456730E+01  0.45045683550E+02  0.00000000000E+00 0. -1.
         11    1    3    3    0    0  0.36655590398E+01  0.31711667831E+01 -0.15137387213E+01  0.50777974574E+01  0.51100000000E-03 0. -1.
        -11    1    3    3    0    0  0.11865932296E+02  0.39645906281E+01  0.26238736052E+01  0.12782919895E+02  0.51100000000E-03 0.  1.
         12    1    3    3    0    0  0.26522286011E+02  0.67383987171E+01  0.71422107891E+01  0.28281599097E+02  0.00000000000E+00 0. -1.
</event>
<event>
 7    1  0.2353206E-008  0.4614232E+02  0.7816164E-02  0.1320468E+00
        -11   -1    0    0    0    0  0.00000000000E+00  0.00000000000E+00  0.45593999997E+02  0.45594000000E+02  0.51100000000E-03 0.  1.
         11   -1    0    0    0    0 -0.00000000000E+00 -0.00000000000E+00 -0.45593999997E+02  0.45594000000E+02  0.51100000000E-03 0. -1.
    9900012    2    1    2    0    0 -0.17807201555E+02  0.15690037486E+02  0.38286289108E+02  0.46142316109E+02  0.99999849348E+01 0.  0.
         12    1    1    2    0    0  0.17807201555E+02 -0.15690037486E+02 -0.38286289108E+02  0.45045683891E+02  0.00000000000E+00 0. -1.
         11    1    3    3    0    0 -0.40260892916E+01  0.59638541904E+00  0.62841413738E+01  0.74870223467E+01  0.51100000000E-03 0. -1.
        -11    1    3    3    0    0 -0.90269370524E+01  0.49578192152E+01  0.12811402979E+02  0.16437688721E+02  0.51100000000E-03 0.  1.
         12    1    3    3    0    0 -0.47541752114E+01  0.10135832852E+02  0.19190744755E+02  0.22217605042E+02  0.00000000000E+00 0. -1.
</event>
<event>
 7    1  0.2353206E-008  0.4614232E+02  0.7816164E-02  0.1320468E+00
        -11   -1    0    0    0    0  0.00000000000E+00  0.00000000000E+00  0.45593999997E+02  0.45594000000E+02  0.51100000000E-03 0.  1.
         11   -1    0    0    0    0 -0.00000000000E+00 -0.00000000000E+00 -0.45593999997E+02  0.45594000000E+02  0.51100000000E-03 0. -1.
    9900012    2    1    2    0    0 -0.33127496693E+01  0.32573214452E+02  0.30937435677E+02  0.46142317228E+02  0.99999951380E+01 0.  0.
         12    1    1    2    0    0  0.33127496693E+01 -0.32573214452E+02 -0.30937435677E+02  0.45045682772E+02  0.00000000000E+00 0. -1.
         11    1    3    3    0    0 -0.12034729770E+01  0.18664681314E+02  0.14786774431E+02  0.23842553850E+02  0.51100000000E-03 0. -1.
        -11    1    3    3    0    0  0.55696142533E+00  0.83045057019E+01  0.55105085103E+01  0.99820201004E+01  0.51100000000E-03 0.  1.
        -12    1    3    3    0    0 -0.26662381176E+01  0.56040274362E+01  0.10640152735E+02  0.12317743277E+02  0.00000000000E+00 0.  1.
</event>
<event>
 7    1  0.2353206E-008  0.4614233E+02  0.7816164E-02  0.1320468E+00
        -11   -1    0    0    0    0  0.00000000000E+00  0.00000000000E+00  0.45593999997E+02  0.45594000000E+02  0.51100000000E-03 0.  1.
         11   -1    0    0    0    0 -0.00000000000E+00 -0.00000000000E+00 -0.45593999997E+02  0.45594000000E+02  0.51100000000E-03 0. -1.
    9900012    2    1    2    0    0  0.44307970877E+02  0.40687279889E+01 -0.70257655290E+01  0.46142331929E+02  0.10000129196E+02 0.  0.
         12    1    1    2    0    0 -0.44307970877E+02 -0.40687279889E+01  0.70257655290E+01  0.45045668071E+02  0.00000000000E+00 0. -1.
         11    1    3    3    0    0  0.59694592871E+00  0.13020282145E+01 -0.10021977333E+00  0.14358503325E+01  0.51100000000E-03 0. -1.
        -11    1    3    3    0    0  0.22873414570E+02  0.20691323939E+01 -0.81935001892E+00  0.22981421576E+02  0.51100000000E-03 0.  1.
        -12    1    3    3    0    0  0.20837610378E+02  0.69756738045E+00 -0.61061957368E+01  0.21725060021E+02  0.00000000000E+00 0.  1.
</event>
<event>
 7    1  0.2353206E-008  0.4614232E+02  0.7816164E-02  0.1320468E+00
        -11   -1    0    0    0    0  0.00000000000E+00  0.00000000000E+00  0.45593999997E+02  0.45594000000E+02  0.51100000000E-03 0.  1.
         11   -1    0    0    0    0 -0.00000000000E+00 -0.00000000000E+00 -0.45593999997E+02  0.45594000000E+02  0.51100000000E-03 0. -1.
    9900012    2    1    2    0    0 -0.33831884627E+02  0.29707105438E+02 -0.14159729896E+01  0.46142317516E+02  0.99999977672E+01 0.  0.
         12    1    1    2    0    0  0.33831884627E+02 -0.29707105438E+02  0.14159729896E+01  0.45045682484E+02  0.00000000000E+00 0. -1.
         11    1    3    3    0    0 -0.19935321752E+02  0.19395694503E+02 -0.49683719433E+01  0.28254110120E+02  0.51100000000E-03 0. -1.
        -11    1    3    3    0    0 -0.65753102163E+01  0.59474673799E+01  0.67213209797E+00  0.88915035002E+01  0.51100000000E-03 0.  1.
         12    1    3    3    0    0 -0.73212526581E+01  0.43639435549E+01  0.28802668557E+01  0.89967038962E+01  0.00000000000E+00 0. -1.
</event>
<event>
 7    1  0.2353206E-008  0.4614232E+02  0.7816164E-02  0.1320468E+00
        -11   -1    0    0    0    0  0.00000000000E+00  0.00000000000E+00  0.45593999997E+02  0.45594000000E+02  0.51100000000E-03 0. -1.
         11   -1    0    0    0    0 -0.00000000000E+00 -0.00000000000E+00 -0.45593999997E+02  0.45594000000E+02  0.51100000000E-03 0.  1.
    9900012    2    1    2    0    0  0.32054272434E+02 -0.23416453304E+02 -0.21291004867E+02  0.46142317023E+02  0.99999932689E+01 0.  0.
         12    1    1    2    0    0 -0.32054272434E+02  0.23416453304E+02  0.21291004867E+02  0.45045682977E+02  0.00000000000E+00 0. -1.
         11    1    3    3    0    0  0.22015177376E+02 -0.16985119721E+02 -0.12672579841E+02  0.30557431288E+02  0.51100000000E-03 0. -1.
        -11    1    3    3    0    0  0.10424624545E+02 -0.60328612707E+01 -0.88875960161E+01  0.14968552877E+02  0.51100000000E-03 0.  1.
        -12    1    3    3    0    0 -0.38552948732E+00 -0.39847231314E+00  0.26917099052E+00  0.61633285818E+00  0.00000000000E+00 0.  1.
</event>
<event>
 7    1  0.2353206E-008  0.4614232E+02  0.7816164E-02  0.1320468E+00
        -11   -1    0    0    0    0  0.00000000000E+00  0.00000000000E+00  0.45593999997E+02  0.45594000000E+02  0.51100000000E-03 0. -1.
         11   -1    0    0    0    0 -0.00000000000E+00 -0.00000000000E+00 -0.45593999997E+02  0.45594000000E+02  0.51100000000E-03 0.  1.
    9900012    2    1    2    0    0  0.15697756903E+02  0.42134646631E+02 -0.27139762463E+01  0.46142315572E+02  0.99999800358E+01 0.  0.
         12    1    1    2    0    0 -0.15697756903E+02 -0.42134646631E+02  0.27139762463E+01  0.45045684428E+02  0.00000000000E+00 0. -1.
         11    1    3    3    0    0  0.87255466222E+01  0.22473858762E+02  0.34677305416E+00  0.24110780645E+02  0.51100000000E-03 0.  1.
        -11    1    3    3    0    0  0.24545836630E+01  0.13798089512E+02  0.19670689279E-01  0.14014729478E+02  0.51100000000E-03 0. -1.
         12    1    3    3    0    0  0.45176266182E+01  0.58626983575E+01 -0.30804199897E+01  0.80168054489E+01  0.00000000000E+00 0. -1.
</event>
<event>
 7    1  0.2353206E-008  0.4614232E+02  0.7816164E-02  0.1320468E+00
        -11   -1    0    0    0    0  0.00000000000E+00  0.00000000000E+00  0.45593999997E+02  0.45594000000E+02  0.51100000000E-03 0. -1.
         11   -1    0    0    0    0 -0.00000000000E+00 -0.00000000000E+00 -0.45593999997E+02  0.45594000000E+02  0.51100000000E-03 0.  1.
    9900012    2    1    2    0    0  0.78036174920E+01  0.21228599152E+02 -0.38955917444E+02  0.46142319055E+02  0.10000011799E+02 0.  0.
         12    1    1    2    0    0 -0.78036174920E+01 -0.21228599152E+02  0.38955917444E+02  0.45045680945E+02  0.00000000000E+00 0. -1.
         11    1    3    3    0    0  0.61850738190E+01  0.72190455803E+01 -0.16939469604E+02  0.19424607795E+02  0.51100000000E-03 0. -1.
        -11    1    3    3    0    0  0.31024927849E+01  0.43966887484E+01 -0.86401974435E+01  0.10178867597E+02  0.51100000000E-03 0.  1.
         12    1    3    3    0    0 -0.14839491119E+01  0.96128648232E+01 -0.13376250396E+02  0.16538843664E+02  0.00000000000E+00 0. -1.
</event>
<event>
 7    1  0.2353206E-008  0.4614232E+02  0.7816164E-02  0.1320468E+00
        -11   -1    0    0    0    0  0.00000000000E+00  0.00000000000E+00  0.45593999997E+02  0.45594000000E+02  0.51100000000E-03 0. -1.
         11   -1    0    0    0    0 -0.00000000000E+00 -0.00000000000E+00 -0.45593999997E+02  0.45594000000E+02  0.51100000000E-03 0.  1.
    9900012    2    1    2    0    0  0.31056840049E+02  0.15843056574E+02 -0.28523388835E+02  0.46142318009E+02  0.10000002258E+02 0.  0.
         12    1    1    2    0    0 -0.31056840049E+02 -0.15843056574E+02  0.28523388835E+02  0.45045681991E+02  0.00000000000E+00 0. -1.
         11    1    3    3    0    0  0.54730412003E+01  0.12620476615E+01 -0.41742609680E+01  0.69979567854E+01  0.51100000000E-03 0. -1.
        -11    1    3    3    0    0  0.15629687946E+02  0.11945111149E+02 -0.11909762090E+02  0.22995983540E+02  0.51100000000E-03 0.  1.
        -12    1    3    3    0    0  0.99541109020E+01  0.26358977631E+01 -0.12439365777E+02  0.16148377683E+02  0.00000000000E+00 0.  1.
</event>
<event>
 7    1  0.2353206E-008  0.4614232E+02  0.7816164E-02  0.1320468E+00
        -11   -1    0    0    0    0  0.00000000000E+00  0.00000000000E+00  0.45593999997E+02  0.45594000000E+02  0.51100000000E-03 0. -1.
         11   -1    0    0    0    0 -0.00000000000E+00 -0.00000000000E+00 -0.45593999997E+02  0.45594000000E+02  0.51100000000E-03 0.  1.
    9900012    2    1    2    0    0  0.45480422680E+01 -0.26375525718E+02 -0.36232035873E+02  0.46142317977E+02  0.10000001972E+02 0.  0.
         12    1    1    2    0    0 -0.45480422680E+01  0.26375525718E+02  0.36232035873E+02  0.45045682023E+02  0.00000000000E+00 0. -1.
         11    1    3    3    0    0 -0.19466888696E+01 -0.17009270136E+01 -0.35404124363E+01  0.43837507617E+01  0.51100000000E-03 0. -1.
        -11    1    3    3    0    0  0.61375704199E+00 -0.53707548620E+01 -0.10179575759E+02  0.11525860852E+02  0.51100000000E-03 0.  1.
         12    1    3    3    0    0  0.58809740957E+01 -0.19303843842E+02 -0.22512047678E+02  0.30232706364E+02  0.00000000000E+00 0. -1.
</event>
<event>
 7    1  0.2353206E-008  0.4614232E+02  0.7816164E-02  0.1320468E+00
        -11   -1    0    0    0    0  0.00000000000E+00  0.00000000000E+00  0.45593999997E+02  0.45594000000E+02  0.51100000000E-03 0. -1.
         11   -1    0    0    0    0 -0.00000000000E+00 -0.00000000000E+00 -0.45593999997E+02  0.45594000000E+02  0.51100000000E-03 0.  1.
    9900012    2    1    2    0    0 -0.18014957909E+02  0.92562525109E+01 -0.40235515029E+02  0.46142316648E+02  0.99999898487E+01 0.  0.
         12    1    1    2    0    0  0.18014957909E+02 -0.92562525109E+01  0.40235515029E+02  0.45045683352E+02  0.00000000000E+00 0. -1.
         11    1    3    3    0    0 -0.74707074890E+01  0.59778314987E+01 -0.14048049304E+02  0.16996871162E+02  0.51100000000E-03 0. -1.
        -11    1    3    3    0    0 -0.55394525093E+01  0.25660413263E+01 -0.69300825377E+01  0.92355912876E+01  0.51100000000E-03 0.  1.
         12    1    3    3    0    0 -0.50047979107E+01  0.71237968592E+00 -0.19257383188E+02  0.19909854198E+02  0.00000000000E+00 0. -1.
</event>
<event>
 7    1  0.2353206E-008  0.4614232E+02  0.7816164E-02  0.1320468E+00
        -11   -1    0    0    0    0  0.00000000000E+00  0.00000000000E+00  0.45593999997E+02  0.45594000000E+02  0.51100000000E-03 0. -1.
         11   -1    0    0    0    0 -0.00000000000E+00 -0.00000000000E+00 -0.45593999997E+02  0.45594000000E+02  0.51100000000E-03 0.  1.
    9900012    2    1    2    0    0  0.85438745635E+01  0.41595969033E+02 -0.15029670664E+02  0.46142318380E+02  0.10000005643E+02 0.  0.
         12    1    1    2    0    0 -0.85438745635E+01 -0.41595969033E+02  0.15029670664E+02  0.45045681620E+02  0.00000000000E+00 0. -1.
         11    1    3    3    0    0 -0.16305930197E+01  0.79114034606E+01 -0.20308820887E+01  0.83290828206E+01  0.51100000000E-03 0. -1.
        -11    1    3    3    0    0  0.61428722551E+01  0.18031712628E+02 -0.45962982880E+01  0.19596007197E+02  0.51100000000E-03 0.  1.
        -12    1    3    3    0    0  0.40315953282E+01  0.15652852944E+02 -0.84024902874E+01  0.18217228363E+02  0.00000000000E+00 0.  1.
</event>
<event>
 7    1  0.2353206E-008  0.4614232E+02  0.7816164E-02  0.1320468E+00
        -11   -1    0    0    0    0  0.00000000000E+00  0.00000000000E+00  0.45593999997E+02  0.45594000000E+02  0.51100000000E-03 0.  1.
         11   -1    0    0    0    0 -0.00000000000E+00 -0.00000000000E+00 -0.45593999997E+02  0.45594000000E+02  0.51100000000E-03 0. -1.
    9900012    2    1    2    0    0 -0.61577038520E+01 -0.77015362759E+01  0.43953184549E+02  0.46142318633E+02  0.10000007955E+02 0.  0.
         12    1    1    2    0    0  0.61577038520E+01  0.77015362759E+01 -0.43953184549E+02  0.45045681367E+02  0.00000000000E+00 0. -1.
         11    1    3    3    0    0 -0.21603120503E+01 -0.38116768891E+01  0.22120911837E+02  0.22550622378E+02  0.51100000000E-03 0. -1.
        -11    1    3    3    0    0  0.83078858262E+00 -0.36925922898E+01  0.12802482349E+02  0.13350243520E+02  0.51100000000E-03 0.  1.
         12    1    3    3    0    0 -0.48281803843E+01 -0.19726709698E+00  0.90297903640E+01  0.10241452736E+02  0.00000000000E+00 0. -1.
</event>
<event>
 7    1  0.2353206E-008  0.4614232E+02  0.7816164E-02  0.1320468E+00
        -11   -1    0    0    0    0  0.00000000000E+00  0.00000000000E+00  0.45593999997E+02  0.45594000000E+02  0.51100000000E-03 0. -1.
         11   -1    0    0    0    0 -0.00000000000E+00 -0.00000000000E+00 -0.45593999997E+02  0.45594000000E+02  0.51100000000E-03 0.  1.
    9900012    2    1    2    0    0  0.30544029703E+02 -0.18302129257E+02 -0.27589994746E+02  0.46142317678E+02  0.99999992383E+01 0.  0.
         12    1    1    2    0    0 -0.30544029703E+02  0.18302129257E+02  0.27589994746E+02  0.45045682322E+02  0.00000000000E+00 0. -1.
         11    1    3    3    0    0  0.97866159285E+01 -0.79551476380E+01 -0.13941646376E+02  0.18799780031E+02  0.51100000000E-03 0. -1.
        -11    1    3    3    0    0  0.41998073251E+01 -0.35115321572E+01 -0.14263735793E+01  0.56571884809E+01  0.51100000000E-03 0.  1.
        -12    1    3    3    0    0  0.16557606449E+02 -0.68354494622E+01 -0.12221974790E+02  0.21685349166E+02  0.00000000000E+00 0.  1.
</event>
<event>
 7    1  0.2353206E-008  0.4614232E+02  0.7816164E-02  0.1320468E+00
        -11   -1    0    0    0    0  0.00000000000E+00  0.00000000000E+00  0.45593999997E+02  0.45594000000E+02  0.51100000000E-03 0.  1.
         11   -1    0    0    0    0 -0.00000000000E+00 -0.00000000000E+00 -0.45593999997E+02  0.45594000000E+02  0.51100000000E-03 0. -1.
    9900012    2    1    2    0    0 -0.13749979156E+02 -0.36029693898E+02  0.23279016449E+02  0.46142319008E+02  0.10000011372E+02 0.  0.
         12    1    1    2    0    0  0.13749979156E+02  0.36029693898E+02 -0.23279016449E+02  0.45045680992E+02  0.00000000000E+00 0. -1.
         11    1    3    3    0    0 -0.50949574979E+01 -0.14330024951E+02  0.10261115459E+02  0.18346626331E+02  0.51100000000E-03 0. -1.
        -11    1    3    3    0    0 -0.81342430206E+01 -0.17277634726E+02  0.13396552262E+02  0.23327026900E+02  0.51100000000E-03 0.  1.
         12    1    3    3    0    0 -0.52077863800E+00 -0.44220342204E+01 -0.37865127192E+00  0.44686657765E+01  0.00000000000E+00 0. -1.
</event>
<event>
 7    1  0.2353206E-008  0.4614232E+02  0.7816164E-02  0.1320468E+00
        -11   -1    0    0    0    0  0.00000000000E+00  0.00000000000E+00  0.45593999997E+02  0.45594000000E+02  0.51100000000E-03 0. -1.
         11   -1    0    0    0    0 -0.00000000000E+00 -0.00000000000E+00 -0.45593999997E+02  0.45594000000E+02  0.51100000000E-03 0.  1.
    9900012    2    1    2    0    0 -0.51555448907E+01  0.16143671950E+02 -0.41736263618E+02  0.46142317766E+02  0.10000000046E+02 0.  0.
         12    1    1    2    0    0  0.51555448907E+01 -0.16143671950E+02  0.41736263618E+02  0.45045682234E+02  0.00000000000E+00 0. -1.
         11    1    3    3    0    0 -0.30855546336E+01  0.13068208758E+02 -0.29515838398E+02  0.32426585453E+02  0.51100000000E-03 0. -1.
        -11    1    3    3    0    0 -0.48557846072E+00  0.35609997671E+01 -0.42086343465E+01  0.55343571539E+01  0.51100000000E-03 0.  1.
         12    1    3    3    0    0 -0.15844117964E+01 -0.48553657442E+00 -0.80117908731E+01  0.81813751595E+01  0.00000000000E+00 0. -1.
</event>
<event>
 7    1  0.2353206E-008  0.4614232E+02  0.7816164E-02  0.1320468E+00
        -11   -1    0    0    0    0  0.00000000000E+00  0.00000000000E+00  0.45593999997E+02  0.45594000000E+02  0.51100000000E-03 0.  1.
         11   -1    0    0    0    0 -0.00000000000E+00 -0.00000000000E+00 -0.45593999997E+02  0.45594000000E+02  0.51100000000E-03 0. -1.
    9900012    2    1    2    0    0 -0.20115162753E+02 -0.14248245013E+02  0.37702536610E+02  0.46142317351E+02  0.99999962564E+01 0.  0.
         12    1    1    2    0    0  0.20115162753E+02  0.14248245013E+02 -0.37702536610E+02  0.45045682649E+02  0.00000000000E+00 0. -1.
         11    1    3    3    0    0 -0.84443655635E+01 -0.50513434893E+01  0.14786267978E+02  0.17761112065E+02  0.51100000000E-03 0. -1.
        -11    1    3    3    0    0 -0.10796357653E+02 -0.94205377783E+01  0.16295119721E+02  0.21698820188E+02  0.51100000000E-03 0.  1.
         12    1    3    3    0    0 -0.87443953723E+00  0.22363625483E+00  0.66211489115E+01  0.66823850972E+01  0.00000000000E+00 0. -1.
</event>
<event>
 7    1  0.2353206E-008  0.4614232E+02  0.7816164E-02  0.1320468E+00
        -11   -1    0    0    0    0  0.00000000000E+00  0.00000000000E+00  0.45593999997E+02  0.45594000000E+02  0.51100000000E-03 0. -1.
         11   -1    0    0    0    0 -0.00000000000E+00 -0.00000000000E+00 -0.45593999997E+02  0.45594000000E+02  0.51100000000E-03 0.  1.
    9900012    2    1    2    0    0 -0.17104534400E+02 -0.21708052066E+02 -0.35571180292E+02  0.46142317755E+02  0.99999999459E+01 0.  0.
         12    1    1    2    0    0  0.17104534400E+02  0.21708052066E+02  0.35571180292E+02  0.45045682245E+02  0.00000000000E+00 0. -1.
         11    1    3    3    0    0 -0.53783918500E+01 -0.30149072913E+01 -0.66035541342E+01  0.90345831299E+01  0.51100000000E-03 0. -1.
        -11    1    3    3    0    0 -0.12492863652E+02 -0.18618495337E+02 -0.27990642706E+02  0.35863576093E+02  0.51100000000E-03 0.  1.
         12    1    3    3    0    0  0.76672110238E+00 -0.74649437610E-01 -0.97698345225E+00  0.12441585322E+01  0.00000000000E+00 0. -1.
</event>
<event>
 7    1  0.2353206E-008  0.4614232E+02  0.7816164E-02  0.1320468E+00
        -11   -1    0    0    0    0  0.00000000000E+00  0.00000000000E+00  0.45593999997E+02  0.45594000000E+02  0.51100000000E-03 0.  1.
         11   -1    0    0    0    0 -0.00000000000E+00 -0.00000000000E+00 -0.45593999997E+02  0.45594000000E+02  0.51100000000E-03 0. -1.
    9900012    2    1    2    0    0  0.99572996902E+01 -0.11322591975E+02  0.42447197747E+02  0.46142317601E+02  0.99999985442E+01 0.  0.
         12    1    1    2    0    0 -0.99572996902E+01  0.11322591975E+02 -0.42447197747E+02  0.45045682399E+02  0.00000000000E+00 0. -1.
         11    1    3    3    0    0  0.55486581804E+01 -0.34681025200E+01  0.72175257305E+01  0.97420747597E+01  0.51100000000E-03 0. -1.
        -11    1    3    3    0    0  0.20741714976E+01 -0.21397541762E+01  0.11954967632E+02  0.12320794888E+02  0.51100000000E-03 0.  1.
         12    1    3    3    0    0  0.23344700122E+01 -0.57147352786E+01  0.23274704385E+02  0.24079447953E+02  0.00000000000E+00 0. -1.
</event>
<event>
 7    1  0.2353206E-008  0.4614232E+02  0.7816164E-02  0.1320468E+00
        -11   -1    0    0    0    0  0.00000000000E+00  0.00000000000E+00  0.45593999997E+02  0.45594000000E+02  0.51100000000E-03 0. -1.
         11   -1    0    0    0    0 -0.00000000000E+00 -0.00000000000E+00 -0.45593999997E+02  0.45594000000E+02  0.51100000000E-03 0.  1.
    9900012    2    1    2    0    0 -0.11600501126E+00  0.37286438857E+02 -0.25274910506E+02  0.46142322284E+02  0.10000041245E+02 0.  0.
         12    1    1    2    0    0  0.11600501126E+00 -0.37286438857E+02  0.25274910506E+02  0.45045677716E+02  0.00000000000E+00 0. -1.
         11    1    3    3    0    0  0.26252932005E+00  0.26764325471E+01 -0.52272328869E+01  0.58784501987E+01  0.51100000000E-03 0. -1.
        -11    1    3    3    0    0  0.20003471262E+01  0.19648280700E+02 -0.11993932948E+02  0.23106508843E+02  0.51100000000E-03 0.  1.
         12    1    3    3    0    0 -0.23788814575E+01  0.14961725610E+02 -0.80537446715E+01  0.17157363243E+02  0.00000000000E+00 0. -1.
</event>
<event>
 7    1  0.2353206E-008  0.4614232E+02  0.7816164E-02  0.1320468E+00
        -11   -1    0    0    0    0  0.00000000000E+00  0.00000000000E+00  0.45593999997E+02  0.45594000000E+02  0.51100000000E-03 0. -1.
         11   -1    0    0    0    0 -0.00000000000E+00 -0.00000000000E+00 -0.45593999997E+02  0.45594000000E+02  0.51100000000E-03 0.  1.
    9900012    2    1    2    0    0  0.24639745680E+02  0.17549446577E+02 -0.33376837540E+02  0.46142318448E+02  0.10000006264E+02 0.  0.
         12    1    1    2    0    0 -0.24639745680E+02 -0.17549446577E+02  0.33376837540E+02  0.45045681552E+02  0.00000000000E+00 0. -1.
         11    1    3    3    0    0  0.61158117507E+01  0.22789475787E+01 -0.42933592540E+01  0.78121501126E+01  0.51100000000E-03 0. -1.
        -11    1    3    3    0    0  0.18894683251E+02  0.14309560606E+02 -0.28721614604E+02  0.37238471043E+02  0.51100000000E-03 0.  1.
         12    1    3    3    0    0 -0.37074932241E+00  0.96093839196E+00 -0.36186368164E+00  0.10916972920E+01  0.00000000000E+00 0. -1.
</event>
<event>
 7    1  0.2353206E-008  0.4614232E+02  0.7816164E-02  0.1320468E+00
        -11   -1    0    0    0    0  0.00000000000E+00  0.00000000000E+00  0.45593999997E+02  0.45594000000E+02  0.51100000000E-03 0.  1.
         11   -1    0    0    0    0 -0.00000000000E+00 -0.00000000000E+00 -0.45593999997E+02  0.45594000000E+02  0.51100000000E-03 0. -1.
    9900012    2    1    2    0    0 -0.16573261525E+02  0.40731021586E+02  0.97685420715E+01  0.46142317285E+02  0.99999956611E+01 0.  0.
         12    1    1    2    0    0  0.16573261525E+02 -0.40731021586E+02 -0.97685420715E+01  0.45045682715E+02  0.00000000000E+00 0. -1.
         11    1    3    3    0    0 -0.40582433786E+00  0.31106761870E+01  0.11576244987E+01  0.33438143600E+01  0.51100000000E-03 0. -1.
        -11    1    3    3    0    0 -0.67714315240E+01  0.64896707203E+01  0.25642276219E+01  0.97233417352E+01  0.51100000000E-03 0.  1.
        -12    1    3    3    0    0 -0.93960056636E+01  0.31130674679E+02  0.60466899510E+01  0.33075161190E+02  0.00000000000E+00 0.  1.
</event>
<event>
 7    1  0.2353206E-008  0.4614232E+02  0.7816164E-02  0.1320468E+00
        -11   -1    0    0    0    0  0.00000000000E+00  0.00000000000E+00  0.45593999997E+02  0.45594000000E+02  0.51100000000E-03 0. -1.
         11   -1    0    0    0    0 -0.00000000000E+00 -0.00000000000E+00 -0.45593999997E+02  0.45594000000E+02  0.51100000000E-03 0.  1.
    9900012    2    1    2    0    0 -0.37884889109E+02 -0.19055699638E+02 -0.15189764481E+02  0.46142318115E+02  0.10000003231E+02 0.  0.
         12    1    1    2    0    0  0.37884889109E+02  0.19055699638E+02  0.15189764481E+02  0.45045681885E+02  0.00000000000E+00 0. -1.
         11    1    3    3    0    0 -0.93516332271E+01 -0.75649270133E+01 -0.61831376515E+01  0.13524509463E+02  0.51100000000E-03 0. -1.
        -11    1    3    3    0    0 -0.25092698319E+02 -0.11260829880E+02 -0.95757492439E+01  0.29122925203E+02  0.51100000000E-03 0.  1.
         12    1    3    3    0    0 -0.34405575622E+01 -0.22994274501E+00  0.56912241480E+00  0.34948834498E+01  0.00000000000E+00 0. -1.
</event>
<event>
 7    1  0.2353206E-008  0.4614232E+02  0.7816164E-02  0.1320468E+00
        -11   -1    0    0    0    0  0.00000000000E+00  0.00000000000E+00  0.45593999997E+02  0.45594000000E+02  0.51100000000E-03 0. -1.
         11   -1    0    0    0    0 -0.00000000000E+00 -0.00000000000E+00 -0.45593999997E+02  0.45594000000E+02  0.51100000000E-03 0.  1.
    9900012    2    1    2    0    0  0.22432523467E+02  0.31657336083E+02 -0.22884678705E+02  0.46142317006E+02  0.99999931155E+01 0.  0.
         12    1    1    2    0    0 -0.22432523467E+02 -0.31657336083E+02  0.22884678705E+02  0.45045682994E+02  0.00000000000E+00 0. -1.
         11    1    3    3    0    0  0.26236029142E+01  0.22966937802E+01 -0.17842783335E+01  0.39168538400E+01  0.51100000000E-03 0. -1.
        -11    1    3    3    0    0 -0.40910832647E+00 -0.39398644318E+00 -0.11927156002E+00  0.58036273687E+00  0.51100000000E-03 0.  1.
        -12    1    3    3    0    0  0.20218028879E+02  0.29754628746E+02 -0.20981128811E+02  0.41645100429E+02  0.00000000000E+00 0.  1.
</event>
<event>
 7    1  0.2353206E-008  0.4614232E+02  0.7816164E-02  0.1320468E+00
        -11   -1    0    0    0    0  0.00000000000E+00  0.00000000000E+00  0.45593999997E+02  0.45594000000E+02  0.51100000000E-03 0.  1.
         11   -1    0    0    0    0 -0.00000000000E+00 -0.00000000000E+00 -0.45593999997E+02  0.45594000000E+02  0.51100000000E-03 0. -1.
    9900012    2    1    2    0    0  0.26227763923E+02 -0.33401819117E+02  0.15017869055E+02  0.46142317503E+02  0.99999976430E+01 0.  0.
         12    1    1    2    0    0 -0.26227763923E+02  0.33401819117E+02 -0.15017869055E+02  0.45045682497E+02  0.00000000000E+00 0. -1.
         11    1    3    3    0    0  0.53526764956E+01 -0.25362186021E+01  0.28486078562E+01  0.65725274775E+01  0.51100000000E-03 0. -1.
        -11    1    3    3    0    0  0.47482535257E+01 -0.10445591401E+02  0.54121912046E+01  0.12686532432E+02  0.51100000000E-03 0.  1.
         12    1    3    3    0    0  0.16126833901E+02 -0.20420009114E+02  0.67570699945E+01  0.26883257593E+02  0.00000000000E+00 0. -1.
</event>
<event>
 7    1  0.2353206E-008  0.4614233E+02  0.7816164E-02  0.1320468E+00
        -11   -1    0    0    0    0  0.00000000000E+00  0.00000000000E+00  0.45593999997E+02  0.45594000000E+02  0.51100000000E-03 0. -1.
         11   -1    0    0    0    0 -0.00000000000E+00 -0.00000000000E+00 -0.45593999997E+02  0.45594000000E+02  0.51100000000E-03 0.  1.
    9900012    2    1    2    0    0 -0.40103659010E+02 -0.14274677503E+02 -0.14732375203E+02  0.46142325814E+02  0.10000073431E+02 0.  0.
         12    1    1    2    0    0  0.40103659010E+02  0.14274677503E+02  0.14732375203E+02  0.45045674186E+02  0.00000000000E+00 0. -1.
         11    1    3    3    0    0 -0.51030169584E+01 -0.41582764616E+01  0.37170704499E+00  0.65931943394E+01  0.51100000000E-03 0. -1.
        -11    1    3    3    0    0 -0.10471621274E+02 -0.20344719623E+01 -0.54361443010E+01  0.11972702009E+02  0.51100000000E-03 0.  1.
        -12    1    3    3    0    0 -0.24529020777E+02 -0.80819290793E+01 -0.96679379465E+01  0.27576429465E+02  0.00000000000E+00 0.  1.
</event>
<event>
 7    1  0.2353206E-008  0.4614232E+02  0.7816164E-02  0.1320468E+00
        -11   -1    0    0    0    0  0.00000000000E+00  0.00000000000E+00  0.45593999997E+02  0.45594000000E+02  0.51100000000E-03 0. -1.
         11   -1    0    0    0    0 -0.00000000000E+00 -0.00000000000E+00 -0.45593999997E+02  0.45594000000E+02  0.51100000000E-03 0.  1.
    9900012    2    1    2    0    0 -0.33839404950E+01  0.40287439680E+02 -0.19864156957E+02  0.46142316734E+02  0.99999906341E+01 0.  0.
         12    1    1    2    0    0  0.33839404950E+01 -0.40287439680E+02  0.19864156957E+02  0.45045683266E+02  0.00000000000E+00 0. -1.
         11    1    3    3    0    0  0.13523431106E+01  0.24396373066E+02 -0.80549066866E+01  0.25727288483E+02  0.51100000000E-03 0. -1.
        -11    1    3    3    0    0 -0.94822944890E+00  0.56538768918E+01 -0.38450261182E+01  0.69028754230E+01  0.51100000000E-03 0.  1.
        -12    1    3    3    0    0 -0.37880541568E+01  0.10237189722E+02 -0.79642241524E+01  0.13512152828E+02  0.00000000000E+00 0.  1.
</event>
<event>
 7    1  0.2353206E-008  0.4614232E+02  0.7816164E-02  0.1320468E+00
        -11   -1    0    0    0    0  0.00000000000E+00  0.00000000000E+00  0.45593999997E+02  0.45594000000E+02  0.51100000000E-03 0.  1.
         11   -1    0    0    0    0 -0.00000000000E+00 -0.00000000000E+00 -0.45593999997E+02  0.45594000000E+02  0.51100000000E-03 0. -1.
    9900012    2    1    2    0    0  0.32548735855E+02 -0.29574581074E+02 -0.97487226790E+01  0.46142316019E+02  0.99999841133E+01 0.  0.
         12    1    1    2    0    0 -0.32548735855E+02  0.29574581074E+02  0.97487226790E+01  0.45045683981E+02  0.00000000000E+00 0. -1.
         11    1    3    3    0    0  0.94559998728E+01 -0.87781893412E+01 -0.49897637825E+01  0.13833664900E+02  0.51100000000E-03 0. -1.
        -11    1    3    3    0    0  0.10317139634E+02 -0.73007799453E+01 -0.53286719373E+01  0.13716395405E+02  0.51100000000E-03 0.  1.
         12    1    3    3    0    0  0.12775596348E+02 -0.13495611787E+02  0.56971304083E+00  0.18592255714E+02  0.00000000000E+00 0. -1.
</event>
<event>
 7    1  0.2353206E-008  0.4614232E+02  0.7816164E-02  0.1320468E+00
        -11   -1    0    0    0    0  0.00000000000E+00  0.00000000000E+00  0.45593999997E+02  0.45594000000E+02  0.51100000000E-03 0.  1.
         11   -1    0    0    0    0 -0.00000000000E+00 -0.00000000000E+00 -0.45593999997E+02  0.45594000000E+02  0.51100000000E-03 0. -1.
    9900012    2    1    2    0    0 -0.37490467305E+02  0.90001830123E+00  0.24955324592E+02  0.46142318773E+02  0.10000009228E+02 0.  0.
         12    1    1    2    0    0  0.37490467305E+02 -0.90001830123E+00 -0.24955324592E+02  0.45045681227E+02  0.00000000000E+00 0. -1.
         11    1    3    3    0    0 -0.27039294152E+01 -0.22819672959E+01  0.40186649255E+01  0.53542765213E+01  0.51100000000E-03 0. -1.
        -11    1    3    3    0    0 -0.19577635045E+02  0.11351165774E+01  0.12802078469E+02  0.23419340234E+02  0.51100000000E-03 0.  1.
         12    1    3    3    0    0 -0.15208902845E+02  0.20468690197E+01  0.81345811975E+01  0.17368702018E+02  0.00000000000E+00 0. -1.
</event>
<event>
 7    1  0.2353206E-008  0.4614232E+02  0.7816164E-02  0.1320468E+00
        -11   -1    0    0    0    0  0.00000000000E+00  0.00000000000E+00  0.45593999997E+02  0.45594000000E+02  0.51100000000E-03 0.  1.
         11   -1    0    0    0    0 -0.00000000000E+00 -0.00000000000E+00 -0.45593999997E+02  0.45594000000E+02  0.51100000000E-03 0. -1.
    9900012    2    1    2    0    0  0.92537440299E+01  0.29864705340E+02  0.32428083290E+02  0.46142323298E+02  0.10000050494E+02 0.  0.
         12    1    1    2    0    0 -0.92537440299E+01 -0.29864705340E+02 -0.32428083290E+02  0.45045676702E+02  0.00000000000E+00 0. -1.
         11    1    3    3    0    0 -0.95451400086E+00  0.19381539485E+01  0.37060982578E+00  0.21920058417E+01  0.51100000000E-03 0. -1.
        -11    1    3    3    0    0  0.63117636394E+01  0.22410695176E+02  0.25650004473E+02  0.34641021178E+02  0.51100000000E-03 0.  1.
         12    1    3    3    0    0  0.38964943914E+01  0.55158562154E+01  0.64074689913E+01  0.93092962787E+01  0.00000000000E+00 0. -1.
</event>
<event>
 7    1  0.2353206E-008  0.4614232E+02  0.7816164E-02  0.1320468E+00
        -11   -1    0    0    0    0  0.00000000000E+00  0.00000000000E+00  0.45593999997E+02  0.45594000000E+02  0.51100000000E-03 0.  1.
         11   -1    0    0    0    0 -0.00000000000E+00 -0.00000000000E+00 -0.45593999997E+02  0.45594000000E+02  0.51100000000E-03 0. -1.
    9900012    2    1    2    0    0  0.39925045680E+02  0.20138726234E+02  0.54346929276E+01  0.46142318141E+02  0.10000003469E+02 0.  0.
         12    1    1    2    0    0 -0.39925045680E+02 -0.20138726234E+02 -0.54346929276E+01  0.45045681859E+02  0.00000000000E+00 0. -1.
         11    1    3    3    0    0  0.13796326441E+02  0.66275995301E+01 -0.19614015511E+01  0.15430839093E+02  0.51100000000E-03 0. -1.
        -11    1    3    3    0    0  0.95513535050E+01  0.40376980368E+01  0.40219778153E+00  0.10377529693E+02  0.51100000000E-03 0.  1.
        -12    1    3    3    0    0  0.16577365734E+02  0.94734286671E+01  0.69938966972E+01  0.20333949356E+02  0.00000000000E+00 0.  1.
</event>
<event>
 7    1  0.2353206E-008  0.4614232E+02  0.7816164E-02  0.1320468E+00
        -11   -1    0    0    0    0  0.00000000000E+00  0.00000000000E+00  0.45593999997E+02  0.45594000000E+02  0.51100000000E-03 0. -1.
         11   -1    0    0    0    0 -0.00000000000E+00 -0.00000000000E+00 -0.45593999997E+02  0.45594000000E+02  0.51100000000E-03 0.  1.
    9900012    2    1    2    0    0 -0.38357904419E+02  0.59967422340E+01  0.22843464813E+02  0.46142316150E+02  0.99999853098E+01 0.  0.
         12    1    1    2    0    0  0.38357904419E+02 -0.59967422340E+01 -0.22843464813E+02  0.45045683850E+02  0.00000000000E+00 0. -1.
         11    1    3    3    0    0  0.11612818258E+00  0.88320456268E-01  0.34446446049E-01  0.14991022830E+00  0.51100000000E-03 0. -1.
        -11    1    3    3    0    0 -0.27949001841E+02  0.65706096918E+01  0.20269758220E+02  0.35145166298E+02  0.51100000000E-03 0.  1.
        -12    1    3    3    0    0 -0.10525030761E+02 -0.66218791405E+00  0.25392601478E+01  0.10847239623E+02  0.00000000000E+00 0.  1.
</event>
<event>
 7    1  0.2353206E-008  0.4614232E+02  0.7816164E-02  0.1320468E+00
        -11   -1    0    0    0    0  0.00000000000E+00  0.00000000000E+00  0.45593999997E+02  0.45594000000E+02  0.51100000000E-03 0.  1.
         11   -1    0    0    0    0 -0.00000000000E+00 -0.00000000000E+00 -0.45593999997E+02  0.45594000000E+02  0.51100000000E-03 0. -1.
    9900012    2    1    2    0    0  0.43510324231E+02  0.10974588908E+02  0.39400107882E+01  0.46142316507E+02  0.99999885613E+01 0.  0.
         12    1    1    2    0    0 -0.43510324231E+02 -0.10974588908E+02 -0.39400107882E+01  0.45045683493E+02  0.00000000000E+00 0. -1.
         11    1    3    3    0    0  0.25197121543E+00  0.33872497958E+00 -0.12115814079E+01  0.12830252820E+01  0.51100000000E-03 0. -1.
        -11    1    3    3    0    0  0.55333600172E+01  0.10501503237E+01  0.90823115040E+00  0.57048902588E+01  0.51100000000E-03 0.  1.
        -12    1    3    3    0    0  0.37724992998E+02  0.95857136046E+01  0.42433610458E+01  0.39154400966E+02  0.00000000000E+00 0.  1.
</event>
<event>
 7    1  0.2353206E-008  0.4614232E+02  0.7816164E-02  0.1320468E+00
        -11   -1    0    0    0    0  0.00000000000E+00  0.00000000000E+00  0.45593999997E+02  0.45594000000E+02  0.51100000000E-03 0.  1.
         11   -1    0    0    0    0 -0.00000000000E+00 -0.00000000000E+00 -0.45593999997E+02  0.45594000000E+02  0.51100000000E-03 0. -1.
    9900012    2    1    2    0    0  0.12336988569E+02  0.40747534509E+02  0.14715662528E+02  0.46142316753E+02  0.99999908105E+01 0.  0.
         12    1    1    2    0    0 -0.12336988569E+02 -0.40747534509E+02 -0.14715662528E+02  0.45045683247E+02  0.00000000000E+00 0. -1.
         11    1    3    3    0    0  0.22213169481E+01  0.30689852248E+01  0.10374420517E+01  0.39280027451E+01  0.51100000000E-03 0. -1.
        -11    1    3    3    0    0  0.11835342186E+01  0.17865606287E+02  0.87537616792E+01  0.19930102485E+02  0.51100000000E-03 0.  1.
        -12    1    3    3    0    0  0.89321374024E+01  0.19812942997E+02  0.49244587971E+01  0.22284211524E+02  0.00000000000E+00 0.  1.
</event>
<event>
 7    1  0.2353206E-008  0.4614232E+02  0.7816164E-02  0.1320468E+00
        -11   -1    0    0    0    0  0.00000000000E+00  0.00000000000E+00  0.45593999997E+02  0.45594000000E+02  0.51100000000E-03 0.  1.
         11   -1    0    0    0    0 -0.00000000000E+00 -0.00000000000E+00 -0.45593999997E+02  0.45594000000E+02  0.51100000000E-03 0. -1.
    9900012    2    1    2    0    0 -0.23135544701E+02 -0.19365574695E+02  0.33448984545E+02  0.46142317866E+02  0.10000000953E+02 0.  0.
         12    1    1    2    0    0  0.23135544701E+02  0.19365574695E+02 -0.33448984545E+02  0.45045682134E+02  0.00000000000E+00 0. -1.
         11    1    3    3    0    0 -0.19211773891E+01  0.24545301437E+00  0.35289500568E+01  0.40255010256E+01  0.51100000000E-03 0. -1.
        -11    1    3    3    0    0 -0.12976729110E+02 -0.10086236883E+02  0.12634530301E+02  0.20730630214E+02  0.51100000000E-03 0.  1.
        -12    1    3    3    0    0 -0.82376382014E+01 -0.95247908264E+01  0.17285504187E+02  0.21386186626E+02  0.00000000000E+00 0.  1.
</event>
<event>
 7    1  0.2353206E-008  0.4614232E+02  0.7816164E-02  0.1320468E+00
        -11   -1    0    0    0    0  0.00000000000E+00  0.00000000000E+00  0.45593999997E+02  0.45594000000E+02  0.51100000000E-03 0.  1.
         11   -1    0    0    0    0 -0.00000000000E+00 -0.00000000000E+00 -0.45593999997E+02  0.45594000000E+02  0.51100000000E-03 0. -1.
    9900012    2    1    2    0    0 -0.43174548308E+02 -0.96472911685E+01  0.84853764513E+01  0.46142318054E+02  0.10000002667E+02 0.  0.
         12    1    1    2    0    0  0.43174548308E+02  0.96472911685E+01 -0.84853764513E+01  0.45045681946E+02  0.00000000000E+00 0. -1.
         11    1    3    3    0    0 -0.48057489723E+01  0.13831371082E-01  0.31237965019E+01  0.57317989618E+01  0.51100000000E-03 0. -1.
        -11    1    3    3    0    0 -0.28582709132E+02 -0.94971676644E+01  0.55245775042E+01  0.30621698383E+02  0.51100000000E-03 0.  1.
        -12    1    3    3    0    0 -0.97860902036E+01 -0.16395487523E+00 -0.16299755475E+00  0.97888207092E+01  0.00000000000E+00 0.  1.
</event>
<event>
 7    1  0.2353206E-008  0.4614232E+02  0.7816164E-02  0.1320468E+00
        -11   -1    0    0    0    0  0.00000000000E+00  0.00000000000E+00  0.45593999997E+02  0.45594000000E+02  0.51100000000E-03 0.  1.
         11   -1    0    0    0    0 -0.00000000000E+00 -0.00000000000E+00 -0.45593999997E+02  0.45594000000E+02  0.51100000000E-03 0. -1.
    9900012    2    1    2    0    0 -0.18311557358E+02 -0.18421523526E+01  0.41114556548E+02  0.46142318538E+02  0.10000007088E+02 0.  0.
         12    1    1    2    0    0  0.18311557358E+02  0.18421523526E+01 -0.41114556548E+02  0.45045681462E+02  0.00000000000E+00 0. -1.
         11    1    3    3    0    0 -0.64756366726E+01 -0.19063092004E+01  0.68957403770E+01  0.96498249047E+01  0.51100000000E-03 0. -1.
        -11    1    3    3    0    0 -0.63288020427E+01  0.79628441839E-01  0.11615894157E+02  0.13228343559E+02  0.51100000000E-03 0.  1.
        -12    1    3    3    0    0 -0.55071186426E+01 -0.15471594028E-01  0.22602922014E+02  0.23264150075E+02  0.00000000000E+00 0.  1.
</event>
<event>
 7    1  0.2353206E-008  0.4614232E+02  0.7816164E-02  0.1320468E+00
        -11   -1    0    0    0    0  0.00000000000E+00  0.00000000000E+00  0.45593999997E+02  0.45594000000E+02  0.51100000000E-03 0. -1.
         11   -1    0    0    0    0 -0.00000000000E+00 -0.00000000000E+00 -0.45593999997E+02  0.45594000000E+02  0.51100000000E-03 0.  1.
    9900012    2    1    2    0    0  0.20207188776E+02  0.21145012120E+02 -0.34258889368E+02  0.46142317448E+02  0.99999971456E+01 0.  0.
         12    1    1    2    0    0 -0.20207188776E+02 -0.21145012120E+02  0.34258889368E+02  0.45045682552E+02  0.00000000000E+00 0. -1.
         11    1    3    3    0    0  0.38219256358E+00  0.13726523767E+01 -0.15361649449E+00  0.14331238577E+01  0.51100000000E-03 0. -1.
        -11    1    3    3    0    0  0.16229388600E+02  0.13871431326E+02 -0.21296949572E+02  0.30155757704E+02  0.51100000000E-03 0.  1.
         12    1    3    3    0    0  0.35956076125E+01  0.59009284176E+01 -0.12808323302E+02  0.14553435886E+02  0.00000000000E+00 0. -1.
</event>
<event>
 7    1  0.2353206E-008  0.4614232E+02  0.7816164E-02  0.1320468E+00
        -11   -1    0    0    0    0  0.00000000000E+00  0.00000000000E+00  0.45593999997E+02  0.45594000000E+02  0.51100000000E-03 0. -1.
         11   -1    0    0    0    0 -0.00000000000E+00 -0.00000000000E+00 -0.45593999997E+02  0.45594000000E+02  0.51100000000E-03 0.  1.
    9900012    2    1    2    0    0  0.13375766990E+01  0.18439449144E+02 -0.41076892681E+02  0.46142317538E+02  0.99999979677E+01 0.  0.
         12    1    1    2    0    0 -0.13375766990E+01 -0.18439449144E+02  0.41076892681E+02  0.45045682462E+02  0.00000000000E+00 0. -1.
         11    1    3    3    0    0  0.30624946567E+01  0.64695601793E+01 -0.14150046495E+02  0.15857424082E+02  0.51100000000E-03 0. -1.
        -11    1    3    3    0    0  0.13755428427E+01  0.38852812701E+01 -0.38616777132E+01  0.56480159067E+01  0.51100000000E-03 0.  1.
        -12    1    3    3    0    0 -0.31004608005E+01  0.80846076945E+01 -0.23065168472E+02  0.24636877550E+02  0.00000000000E+00 0.  1.
</event>
<event>
 7    1  0.2353206E-008  0.4614232E+02  0.7816164E-02  0.1320468E+00
        -11   -1    0    0    0    0  0.00000000000E+00  0.00000000000E+00  0.45593999997E+02  0.45594000000E+02  0.51100000000E-03 0.  1.
         11   -1    0    0    0    0 -0.00000000000E+00 -0.00000000000E+00 -0.45593999997E+02  0.45594000000E+02  0.51100000000E-03 0. -1.
    9900012    2    1    2    0    0 -0.23406393326E+02 -0.24959858915E+02  0.29296070446E+02  0.46142317086E+02  0.99999938456E+01 0.  0.
         12    1    1    2    0    0  0.23406393326E+02  0.24959858915E+02 -0.29296070446E+02  0.45045682914E+02  0.00000000000E+00 0. -1.
         11    1    3    3    0    0 -0.53474211497E+01 -0.55918507990E+01  0.83493536322E+01  0.11383119724E+02  0.51100000000E-03 0. -1.
        -11    1    3    3    0    0 -0.70779853734E+01 -0.45068572665E+01  0.10806440415E+02  0.13681695585E+02  0.51100000000E-03 0.  1.
         12    1    3    3    0    0 -0.10980986803E+02 -0.14861150850E+02  0.10140276399E+02  0.21077501778E+02  0.00000000000E+00 0. -1.
</event>
<event>
 7    1  0.2353206E-008  0.4614232E+02  0.7816164E-02  0.1320468E+00
        -11   -1    0    0    0    0  0.00000000000E+00  0.00000000000E+00  0.45593999997E+02  0.45594000000E+02  0.51100000000E-03 0.  1.
         11   -1    0    0    0    0 -0.00000000000E+00 -0.00000000000E+00 -0.45593999997E+02  0.45594000000E+02  0.51100000000E-03 0. -1.
    9900012    2    1    2    0    0 -0.92281350248E+01  0.92748044015E+01  0.43103747221E+02  0.46142317663E+02  0.99999991051E+01 0.  0.
         12    1    1    2    0    0  0.92281350248E+01 -0.92748044015E+01 -0.43103747221E+02  0.45045682337E+02  0.00000000000E+00 0. -1.
         11    1    3    3    0    0 -0.16595495725E+01 -0.26207165013E+00  0.32494526806E+01  0.36581046073E+01  0.51100000000E-03 0. -1.
        -11    1    3    3    0    0 -0.53722609789E+01  0.70784894379E+01  0.37215043074E+02  0.38261281107E+02  0.51100000000E-03 0.  1.
         12    1    3    3    0    0 -0.21963244734E+01  0.24583866137E+01  0.26392514667E+01  0.42229319482E+01  0.00000000000E+00 0. -1.
</event>
<event>
 7    1  0.2353206E-008  0.4614232E+02  0.7816164E-02  0.1320468E+00
        -11   -1    0    0    0    0  0.00000000000E+00  0.00000000000E+00  0.45593999997E+02  0.45594000000E+02  0.51100000000E-03 0.  1.
         11   -1    0    0    0    0 -0.00000000000E+00 -0.00000000000E+00 -0.45593999997E+02  0.45594000000E+02  0.51100000000E-03 0. -1.
    9900012    2    1    2    0    0  0.99366468210E+01 -0.25037955823E+02  0.36103702828E+02  0.46142317191E+02  0.99999948028E+01 0.  0.
         12    1    1    2    0    0 -0.99366468210E+01  0.25037955823E+02 -0.36103702828E+02  0.45045682809E+02  0.00000000000E+00 0. -1.
         11    1    3    3    0    0  0.12498761649E+01 -0.18732737912E+01  0.71446283658E+01  0.74911320821E+01  0.51100000000E-03 0. -1.
        -11    1    3    3    0    0  0.36452978841E+01 -0.17585357615E+02  0.22061310843E+02  0.28447046164E+02  0.51100000000E-03 0.  1.
        -12    1    3    3    0    0  0.50414727720E+01 -0.55793244167E+01  0.68977636192E+01  0.10204138945E+02  0.00000000000E+00 0.  1.
</event>
<event>
 7    1  0.2353206E-008  0.4614232E+02  0.7816164E-02  0.1320468E+00
        -11   -1    0    0    0    0  0.00000000000E+00  0.00000000000E+00  0.45593999997E+02  0.45594000000E+02  0.51100000000E-03 0.  1.
         11   -1    0    0    0    0 -0.00000000000E+00 -0.00000000000E+00 -0.45593999997E+02  0.45594000000E+02  0.51100000000E-03 0. -1.
    9900012    2    1    2    0    0 -0.14308554169E+02  0.42675761454E+02  0.17770689540E+01  0.46142319717E+02  0.10000017835E+02 0.  0.
         12    1    1    2    0    0  0.14308554169E+02 -0.42675761454E+02 -0.17770689540E+01  0.45045680283E+02  0.00000000000E+00 0. -1.
         11    1    3    3    0    0  0.18900151484E+00  0.51035003868E+00 -0.79827703235E+00  0.96613933575E+00  0.51100000000E-03 0. -1.
        -11    1    3    3    0    0 -0.78151396311E+01  0.19978634280E+02 -0.20405603787E+01  0.21549619998E+02  0.51100000000E-03 0.  1.
        -12    1    3    3    0    0 -0.66824160524E+01  0.22186777136E+02  0.46159063651E+01  0.23626560383E+02  0.00000000000E+00 0.  1.
</event>
<event>
 7    1  0.2353206E-008  0.4614232E+02  0.7816164E-02  0.1320468E+00
        -11   -1    0    0    0    0  0.00000000000E+00  0.00000000000E+00  0.45593999997E+02  0.45594000000E+02  0.51100000000E-03 0.  1.
         11   -1    0    0    0    0 -0.00000000000E+00 -0.00000000000E+00 -0.45593999997E+02  0.45594000000E+02  0.51100000000E-03 0. -1.
    9900012    2    1    2    0    0  0.18960039071E+02  0.40829576024E+02 -0.16050284074E+01  0.46142317898E+02  0.10000001247E+02 0.  0.
         12    1    1    2    0    0 -0.18960039071E+02 -0.40829576024E+02  0.16050284074E+01  0.45045682102E+02  0.00000000000E+00 0. -1.
         11    1    3    3    0    0  0.76682869591E+01  0.14107264014E+02  0.20110515751E+01  0.16182146073E+02  0.51100000000E-03 0. -1.
        -11    1    3    3    0    0  0.75177776779E+01  0.10945372663E+02  0.26179205245E+00  0.13281065443E+02  0.51100000000E-03 0.  1.
         12    1    3    3    0    0  0.37739744343E+01  0.15776939347E+02 -0.38778720349E+01  0.16679106382E+02  0.00000000000E+00 0. -1.
</event>
<event>
 7    1  0.2353206E-008  0.4614232E+02  0.7816164E-02  0.1320468E+00
        -11   -1    0    0    0    0  0.00000000000E+00  0.00000000000E+00  0.45593999997E+02  0.45594000000E+02  0.51100000000E-03 0. -1.
         11   -1    0    0    0    0 -0.00000000000E+00 -0.00000000000E+00 -0.45593999997E+02  0.45594000000E+02  0.51100000000E-03 0.  1.
    9900012    2    1    2    0    0 -0.26460853853E+02  0.15125171783E+02 -0.33168748406E+02  0.46142317866E+02  0.10000000956E+02 0.  0.
         12    1    1    2    0    0  0.26460853853E+02 -0.15125171783E+02  0.33168748406E+02  0.45045682134E+02  0.00000000000E+00 0. -1.
         11    1    3    3    0    0 -0.41724186117E+00  0.15558503021E+01 -0.27345412039E+01  0.31737165580E+01  0.51100000000E-03 0.  1.
        -11    1    3    3    0    0 -0.21583084956E+01  0.20441622957E-01 -0.26721224369E+00  0.21748830007E+01  0.51100000000E-03 0. -1.
        -12    1    3    3    0    0 -0.23885303496E+02  0.13548879857E+02 -0.30166994959E+02  0.40793718307E+02  0.00000000000E+00 0.  1.
</event>
<event>
 7    1  0.2353206E-008  0.4614232E+02  0.7816164E-02  0.1320468E+00
        -11   -1    0    0    0    0  0.00000000000E+00  0.00000000000E+00  0.45593999997E+02  0.45594000000E+02  0.51100000000E-03 0.  1.
         11   -1    0    0    0    0 -0.00000000000E+00 -0.00000000000E+00 -0.45593999997E+02  0.45594000000E+02  0.51100000000E-03 0. -1.
    9900012    2    1    2    0    0  0.22826463656E+00 -0.11839477558E+02  0.43461340549E+02  0.46142318122E+02  0.10000003289E+02 0.  0.
         12    1    1    2    0    0 -0.22826463656E+00  0.11839477558E+02 -0.43461340549E+02  0.45045681878E+02  0.00000000000E+00 0. -1.
         11    1    3    3    0    0  0.24439857313E+01 -0.38553888877E+00  0.41843260965E+01  0.48610998378E+01  0.51100000000E-03 0. -1.
        -11    1    3    3    0    0  0.10071957640E+01 -0.84989397113E+00  0.77881755878E+01  0.78988886760E+01  0.51100000000E-03 0.  1.
        -12    1    3    3    0    0 -0.32229168587E+01 -0.10604044698E+02  0.31488838864E+02  0.33382329608E+02  0.00000000000E+00 0.  1.
</event>
<event>
 7    1  0.2353206E-008  0.4614232E+02  0.7816164E-02  0.1320468E+00
        -11   -1    0    0    0    0  0.00000000000E+00  0.00000000000E+00  0.45593999997E+02  0.45594000000E+02  0.51100000000E-03 0.  1.
         11   -1    0    0    0    0 -0.00000000000E+00 -0.00000000000E+00 -0.45593999997E+02  0.45594000000E+02  0.51100000000E-03 0. -1.
    9900012    2    1    2    0    0  0.14388616622E+02  0.40133141166E+02  0.14540021101E+02  0.46142317390E+02  0.99999966176E+01 0.  0.
         12    1    1    2    0    0 -0.14388616622E+02 -0.40133141166E+02 -0.14540021101E+02  0.45045682610E+02  0.00000000000E+00 0. -1.
         11    1    3    3    0    0  0.24177895911E+01  0.15711177164E+01  0.34536775773E+00  0.29040310836E+01  0.51100000000E-03 0. -1.
        -11    1    3    3    0    0 -0.20290338963E+00  0.68119881590E+01  0.18338088372E+01  0.70574221623E+01  0.51100000000E-03 0.  1.
        -12    1    3    3    0    0  0.12173730420E+02  0.31750035291E+02  0.12360844506E+02  0.36180864144E+02  0.00000000000E+00 0.  1.
</event>
<event>
 7    1  0.2353206E-008  0.4614232E+02  0.7816164E-02  0.1320468E+00
        -11   -1    0    0    0    0  0.00000000000E+00  0.00000000000E+00  0.45593999997E+02  0.45594000000E+02  0.51100000000E-03 0.  1.
         11   -1    0    0    0    0 -0.00000000000E+00 -0.00000000000E+00 -0.45593999997E+02  0.45594000000E+02  0.51100000000E-03 0. -1.
    9900012    2    1    2    0    0  0.24681815690E+02  0.19081693134E+02  0.32493235438E+02  0.46142318877E+02  0.10000010173E+02 0.  0.
         12    1    1    2    0    0 -0.24681815690E+02 -0.19081693134E+02 -0.32493235438E+02  0.45045681123E+02  0.00000000000E+00 0. -1.
         11    1    3    3    0    0  0.12289336975E+02  0.41058818828E+01  0.11988091626E+02  0.17652206957E+02  0.51100000000E-03 0. -1.
        -11    1    3    3    0    0  0.42067629337E+01  0.28498589305E+01  0.63531163555E+01  0.81351483079E+01  0.51100000000E-03 0.  1.
         12    1    3    3    0    0  0.81857157809E+01  0.12125952321E+02  0.14152027456E+02  0.20354963612E+02  0.00000000000E+00 0. -1.
</event>
<event>
 7    1  0.2353206E-008  0.4614232E+02  0.7816164E-02  0.1320468E+00
        -11   -1    0    0    0    0  0.00000000000E+00  0.00000000000E+00  0.45593999997E+02  0.45594000000E+02  0.51100000000E-03 0. -1.
         11   -1    0    0    0    0 -0.00000000000E+00 -0.00000000000E+00 -0.45593999997E+02  0.45594000000E+02  0.51100000000E-03 0.  1.
    9900012    2    1    2    0    0  0.29949481053E+02 -0.31184840347E+02 -0.12635182015E+02  0.46142317550E+02  0.99999980793E+01 0.  0.
         12    1    1    2    0    0 -0.29949481053E+02  0.31184840347E+02  0.12635182015E+02  0.45045682450E+02  0.00000000000E+00 0. -1.
         11    1    3    3    0    0  0.12448462231E+01 -0.47071107946E+00  0.63802999860E+00  0.14759043261E+01  0.51100000000E-03 0. -1.
        -11    1    3    3    0    0  0.20216474892E+00 -0.24147720777E+01 -0.13244599925E+01  0.27615555953E+01  0.51100000000E-03 0.  1.
        -12    1    3    3    0    0  0.28502470081E+02 -0.28299357189E+02 -0.11948752021E+02  0.41904857629E+02  0.00000000000E+00 0.  1.
</event>
<event>
 7    1  0.2353206E-008  0.4614232E+02  0.7816164E-02  0.1320468E+00
        -11   -1    0    0    0    0  0.00000000000E+00  0.00000000000E+00  0.45593999997E+02  0.45594000000E+02  0.51100000000E-03 0. -1.
         11   -1    0    0    0    0 -0.00000000000E+00 -0.00000000000E+00 -0.45593999997E+02  0.45594000000E+02  0.51100000000E-03 0.  1.
    9900012    2    1    2    0    0 -0.62030755319E+01 -0.25740763492E+02  0.36442391267E+02  0.46142323931E+02  0.10000056264E+02 0.  0.
         12    1    1    2    0    0  0.62030755319E+01  0.25740763492E+02 -0.36442391267E+02  0.45045676069E+02  0.00000000000E+00 0. -1.
         11    1    3    3    0    0 -0.58234489323E+01 -0.95094385977E+01  0.18416120502E+02  0.21528945040E+02  0.51100000000E-03 0. -1.
        -11    1    3    3    0    0 -0.17478116275E+01 -0.33172896511E+01  0.45945069334E+01  0.59303246401E+01  0.51100000000E-03 0.  1.
        -12    1    3    3    0    0  0.13681850280E+01 -0.12914035243E+02  0.13431763832E+02  0.18683054252E+02  0.00000000000E+00 0.  1.
</event>
<event>
 7    1  0.2353206E-008  0.4614232E+02  0.7816164E-02  0.1320468E+00
        -11   -1    0    0    0    0  0.00000000000E+00  0.00000000000E+00  0.45593999997E+02  0.45594000000E+02  0.51100000000E-03 0.  1.
         11   -1    0    0    0    0 -0.00000000000E+00 -0.00000000000E+00 -0.45593999997E+02  0.45594000000E+02  0.51100000000E-03 0. -1.
    9900012    2    1    2    0    0 -0.15233389865E+02 -0.23731297216E+02  0.35126668777E+02  0.46142317702E+02  0.99999994608E+01 0.  0.
         12    1    1    2    0    0  0.15233389865E+02  0.23731297216E+02 -0.35126668777E+02  0.45045682298E+02  0.00000000000E+00 0. -1.
         11    1    3    3    0    0 -0.35529887655E+00 -0.64490011189E+01  0.65818276335E+01  0.92215133238E+01  0.51100000000E-03 0. -1.
        -11    1    3    3    0    0  0.22081611197E+00 -0.33496471782E+00  0.17929721107E+01  0.18373106347E+01  0.51100000000E-03 0.  1.
        -12    1    3    3    0    0 -0.15098907100E+02 -0.16947331379E+02  0.26751869033E+02  0.35083493743E+02  0.00000000000E+00 0.  1.
</event>
<event>
 7    1  0.2353206E-008  0.4614232E+02  0.7816164E-02  0.1320468E+00
        -11   -1    0    0    0    0  0.00000000000E+00  0.00000000000E+00  0.45593999997E+02  0.45594000000E+02  0.51100000000E-03 0.  1.
         11   -1    0    0    0    0 -0.00000000000E+00 -0.00000000000E+00 -0.45593999997E+02  0.45594000000E+02  0.51100000000E-03 0. -1.
    9900012    2    1    2    0    0  0.24715717777E+02 -0.36651898389E+02  0.86536183316E+01  0.46142317954E+02  0.10000001756E+02 0.  0.
         12    1    1    2    0    0 -0.24715717777E+02  0.36651898389E+02 -0.86536183316E+01  0.45045682046E+02  0.00000000000E+00 0. -1.
         11    1    3    3    0    0  0.46107604260E+01 -0.74656400940E+01 -0.11951307869E+01  0.88556892210E+01  0.51100000000E-03 0. -1.
        -11    1    3    3    0    0  0.30784296650E+01 -0.14397935906E+01  0.11882716338E+01  0.36002395091E+01  0.51100000000E-03 0.  1.
         12    1    3    3    0    0  0.17026527686E+02 -0.27746464705E+02  0.86604774846E+01  0.33686389224E+02  0.00000000000E+00 0. -1.
</event>
<event>
 7    1  0.2353206E-008  0.4614232E+02  0.7816164E-02  0.1320468E+00
        -11   -1    0    0    0    0  0.00000000000E+00  0.00000000000E+00  0.45593999997E+02  0.45594000000E+02  0.51100000000E-03 0.  1.
         11   -1    0    0    0    0 -0.00000000000E+00 -0.00000000000E+00 -0.45593999997E+02  0.45594000000E+02  0.51100000000E-03 0. -1.
    9900012    2    1    2    0    0 -0.44805032673E+02 -0.10255859765E+01  0.45355112962E+01  0.46142316054E+02  0.99999844354E+01 0.  0.
         12    1    1    2    0    0  0.44805032673E+02  0.10255859765E+01 -0.45355112962E+01  0.45045683946E+02  0.00000000000E+00 0. -1.
         11    1    3    3    0    0 -0.11185206377E+02  0.15126892358E+01 -0.99515444556E+00  0.11330816521E+02  0.51100000000E-03 0. -1.
        -11    1    3    3    0    0 -0.23918647650E+02  0.48276254381E+00  0.59137173084E+01  0.24643595877E+02  0.51100000000E-03 0.  1.
        -12    1    3    3    0    0 -0.97011786463E+01 -0.30210377561E+01 -0.38305156667E+00  0.10167903656E+02  0.00000000000E+00 0.  1.
</event>
<event>
 7    1  0.2353206E-008  0.4614232E+02  0.7816164E-02  0.1320468E+00
        -11   -1    0    0    0    0  0.00000000000E+00  0.00000000000E+00  0.45593999997E+02  0.45594000000E+02  0.51100000000E-03 0. -1.
         11   -1    0    0    0    0 -0.00000000000E+00 -0.00000000000E+00 -0.45593999997E+02  0.45594000000E+02  0.51100000000E-03 0.  1.
    9900012    2    1    2    0    0 -0.28529318818E+02 -0.32898289738E+02 -0.11527963548E+02  0.46142318259E+02  0.10000004543E+02 0.  0.
         12    1    1    2    0    0  0.28529318818E+02  0.32898289738E+02  0.11527963548E+02  0.45045681741E+02  0.00000000000E+00 0. -1.
         11    1    3    3    0    0  0.96172454861E-01  0.12312147014E+00 -0.46423803665E+00  0.48982165457E+00  0.51100000000E-03 0. -1.
        -11    1    3    3    0    0 -0.69931448488E+01 -0.12373365198E+02 -0.54694158965E+01  0.15228878872E+02  0.51100000000E-03 0.  1.
         12    1    3    3    0    0 -0.21632346424E+02 -0.20648046011E+02 -0.55943096144E+01  0.30423617733E+02  0.00000000000E+00 0. -1.
</event>
<event>
 7    1  0.2353206E-008  0.4614232E+02  0.7816164E-02  0.1320468E+00
        -11   -1    0    0    0    0  0.00000000000E+00  0.00000000000E+00  0.45593999997E+02  0.45594000000E+02  0.51100000000E-03 0. -1.
         11   -1    0    0    0    0 -0.00000000000E+00 -0.00000000000E+00 -0.45593999997E+02  0.45594000000E+02  0.51100000000E-03 0.  1.
    9900012    2    1    2    0    0  0.26205947481E+02 -0.31801887388E+02 -0.18193454590E+02  0.46142317468E+02  0.99999973275E+01 0.  0.
         12    1    1    2    0    0 -0.26205947481E+02  0.31801887388E+02  0.18193454590E+02  0.45045682532E+02  0.00000000000E+00 0. -1.
         11    1    3    3    0    0  0.80738411258E+01 -0.11111216404E+02 -0.10011362257E+02  0.16996276504E+02  0.51100000000E-03 0. -1.
        -11    1    3    3    0    0  0.64966058932E+01 -0.64636697649E+01 -0.51689744220E+01  0.10521559381E+02  0.51100000000E-03 0.  1.
         12    1    3    3    0    0  0.11635500462E+02 -0.14227001219E+02 -0.30131179109E+01  0.18624481583E+02  0.00000000000E+00 0. -1.
</event>
<event>
 7    1  0.2353206E-008  0.4614232E+02  0.7816164E-02  0.1320468E+00
        -11   -1    0    0    0    0  0.00000000000E+00  0.00000000000E+00  0.45593999997E+02  0.45594000000E+02  0.51100000000E-03 0. -1.
         11   -1    0    0    0    0 -0.00000000000E+00 -0.00000000000E+00 -0.45593999997E+02  0.45594000000E+02  0.51100000000E-03 0.  1.
    9900012    2    1    2    0    0  0.22589701603E+02 -0.36948079313E+02 -0.12395901355E+02  0.46142317034E+02  0.99999933728E+01 0.  0.
         12    1    1    2    0    0 -0.22589701603E+02  0.36948079313E+02  0.12395901355E+02  0.45045682966E+02  0.00000000000E+00 0. -1.
         11    1    3    3    0    0  0.76957500399E+01 -0.16691505746E+02 -0.46156214279E+01  0.18950854709E+02  0.51100000000E-03 0. -1.
        -11    1    3    3    0    0  0.70704705253E+01 -0.15063727523E+02 -0.44106726594E+01  0.17215152451E+02  0.51100000000E-03 0.  1.
        -12    1    3    3    0    0  0.78234810379E+01 -0.51928460437E+01 -0.33696072672E+01  0.99763098748E+01  0.00000000000E+00 0.  1.
</event>
<event>
 7    1  0.2353206E-008  0.4614232E+02  0.7816164E-02  0.1320468E+00
        -11   -1    0    0    0    0  0.00000000000E+00  0.00000000000E+00  0.45593999997E+02  0.45594000000E+02  0.51100000000E-03 0.  1.
         11   -1    0    0    0    0 -0.00000000000E+00 -0.00000000000E+00 -0.45593999997E+02  0.45594000000E+02  0.51100000000E-03 0. -1.
    9900012    2    1    2    0    0 -0.35295073647E+02  0.25761177904E+02 -0.10942264166E+02  0.46142315902E+02  0.99999830502E+01 0.  0.
         12    1    1    2    0    0  0.35295073647E+02 -0.25761177904E+02  0.10942264166E+02  0.45045684098E+02  0.00000000000E+00 0. -1.
         11    1    3    3    0    0 -0.11863144960E+01  0.34249641340E+01 -0.13571023671E+01  0.38703292494E+01  0.51100000000E-03 0.  1.
        -11    1    3    3    0    0 -0.65735432463E+01  0.49523014908E+01 -0.42881949738E+01  0.92803759224E+01  0.51100000000E-03 0. -1.
         12    1    3    3    0    0 -0.27535215905E+02  0.17383912279E+02 -0.52969668249E+01  0.32991610731E+02  0.00000000000E+00 0. -1.
</event>
<event>
 7    1  0.2353206E-008  0.4614232E+02  0.7816164E-02  0.1320468E+00
        -11   -1    0    0    0    0  0.00000000000E+00  0.00000000000E+00  0.45593999997E+02  0.45594000000E+02  0.51100000000E-03 0.  1.
         11   -1    0    0    0    0 -0.00000000000E+00 -0.00000000000E+00 -0.45593999997E+02  0.45594000000E+02  0.51100000000E-03 0. -1.
    9900012    2    1    2    0    0  0.12355616654E+02 -0.15466572981E+02  0.40462790191E+02  0.46142317269E+02  0.99999955110E+01 0.  0.
         12    1    1    2    0    0 -0.12355616654E+02  0.15466572981E+02 -0.40462790191E+02  0.45045682731E+02  0.00000000000E+00 0. -1.
         11    1    3    3    0    0  0.41413809145E+01  0.10991754885E+00  0.62189813397E+01  0.74725395222E+01  0.51100000000E-03 0. -1.
        -11    1    3    3    0    0  0.59731107585E+00 -0.11131902169E+01  0.95361520620E+00  0.15828313880E+01  0.51100000000E-03 0.  1.
        -12    1    3    3    0    0  0.76169246632E+01 -0.14463300313E+02  0.33290193645E+02  0.37086946359E+02  0.00000000000E+00 0.  1.
</event>
<event>
 7    1  0.2353206E-008  0.4614232E+02  0.7816164E-02  0.1320468E+00
        -11   -1    0    0    0    0  0.00000000000E+00  0.00000000000E+00  0.45593999997E+02  0.45594000000E+02  0.51100000000E-03 0.  1.
         11   -1    0    0    0    0 -0.00000000000E+00 -0.00000000000E+00 -0.45593999997E+02  0.45594000000E+02  0.51100000000E-03 0. -1.
    9900012    2    1    2    0    0 -0.26364378913E+02  0.30125996322E+02  0.20650845008E+02  0.46142317305E+02  0.99999958431E+01 0.  0.
         12    1    1    2    0    0  0.26364378913E+02 -0.30125996322E+02 -0.20650845008E+02  0.45045682695E+02  0.00000000000E+00 0. -1.
         11    1    3    3    0    0 -0.50477116170E+01  0.88755459503E+01  0.17744893290E+01  0.10363567008E+02  0.51100000000E-03 0. -1.
        -11    1    3    3    0    0 -0.27435943400E+01  0.34471957514E+01  0.45400613322E+01  0.63263437791E+01  0.51100000000E-03 0.  1.
        -12    1    3    3    0    0 -0.18573072956E+02  0.17803254621E+02  0.14336294347E+02  0.29452406518E+02  0.00000000000E+00 0.  1.
</event>
<event>
 7    1  0.2353206E-008  0.4614232E+02  0.7816164E-02  0.1320468E+00
        -11   -1    0    0    0    0  0.00000000000E+00  0.00000000000E+00  0.45593999997E+02  0.45594000000E+02  0.51100000000E-03 0.  1.
         11   -1    0    0    0    0 -0.00000000000E+00 -0.00000000000E+00 -0.45593999997E+02  0.45594000000E+02  0.51100000000E-03 0. -1.
    9900012    2    1    2    0    0  0.10519847110E+02 -0.35093619007E+02  0.26208470649E+02  0.46142320829E+02  0.10000027979E+02 0.  0.
         12    1    1    2    0    0 -0.10519847110E+02  0.35093619007E+02 -0.26208470649E+02  0.45045679171E+02  0.00000000000E+00 0. -1.
         11    1    3    3    0    0 -0.68153344797E+00 -0.66477908333E+00  0.39485361407E+00  0.10306933142E+01  0.51100000000E-03 0. -1.
        -11    1    3    3    0    0  0.32472258436E+01 -0.82908966991E+01  0.10587319240E+02  0.13833827117E+02  0.51100000000E-03 0.  1.
        -12    1    3    3    0    0  0.79541547149E+01 -0.26137943224E+02  0.15226297795E+02  0.31277800398E+02  0.00000000000E+00 0.  1.
</event>
<event>
 7    1  0.2353206E-008  0.4614232E+02  0.7816164E-02  0.1320468E+00
        -11   -1    0    0    0    0  0.00000000000E+00  0.00000000000E+00  0.45593999997E+02  0.45594000000E+02  0.51100000000E-03 0.  1.
         11   -1    0    0    0    0 -0.00000000000E+00 -0.00000000000E+00 -0.45593999997E+02  0.45594000000E+02  0.51100000000E-03 0. -1.
    9900012    2    1    2    0    0  0.25362234896E+01  0.13864359192E+02  0.42783881575E+02  0.46142318653E+02  0.10000008129E+02 0.  0.
         12    1    1    2    0    0 -0.25362234896E+01 -0.13864359192E+02 -0.42783881575E+02  0.45045681347E+02  0.00000000000E+00 0. -1.
         11    1    3    3    0    0  0.41256079422E+00 -0.15061754642E+00 -0.21119926897E-01  0.43970258886E+00  0.51100000000E-03 0. -1.
        -11    1    3    3    0    0  0.11660473665E+00  0.53316783292E+01  0.27323814989E+02  0.27839383188E+02  0.51100000000E-03 0.  1.
        -12    1    3    3    0    0  0.20070579587E+01  0.86832984093E+01  0.15481186513E+02  0.17863232875E+02  0.00000000000E+00 0.  1.
</event>
<event>
 7    1  0.2353206E-008  0.4614232E+02  0.7816164E-02  0.1320468E+00
        -11   -1    0    0    0    0  0.00000000000E+00  0.00000000000E+00  0.45593999997E+02  0.45594000000E+02  0.51100000000E-03 0.  1.
         11   -1    0    0    0    0 -0.00000000000E+00 -0.00000000000E+00 -0.45593999997E+02  0.45594000000E+02  0.51100000000E-03 0. -1.
    9900012    2    1    2    0    0  0.27021585023E+02 -0.17696960496E+02  0.31396893435E+02  0.46142318905E+02  0.10000010430E+02 0.  0.
         12    1    1    2    0    0 -0.27021585023E+02  0.17696960496E+02 -0.31396893435E+02  0.45045681095E+02  0.00000000000E+00 0. -1.
         11    1    3    3    0    0  0.61789399160E+01 -0.70217272309E+00  0.60637345591E+01  0.86856906509E+01  0.51100000000E-03 0. -1.
        -11    1    3    3    0    0  0.20918006535E+02 -0.17372549065E+02  0.25107448056E+02  0.37010166260E+02  0.51100000000E-03 0.  1.
        -12    1    3    3    0    0 -0.75361428629E-01  0.37776129140E+00  0.22571082007E+00  0.44646199447E+00  0.00000000000E+00 0.  1.
</event>
<event>
 7    1  0.2353206E-008  0.4614232E+02  0.7816164E-02  0.1320468E+00
        -11   -1    0    0    0    0  0.00000000000E+00  0.00000000000E+00  0.45593999997E+02  0.45594000000E+02  0.51100000000E-03 0.  1.
         11   -1    0    0    0    0 -0.00000000000E+00 -0.00000000000E+00 -0.45593999997E+02  0.45594000000E+02  0.51100000000E-03 0. -1.
    9900012    2    1    2    0    0 -0.45691106722E+01  0.44303414676E+02 -0.67412238956E+01  0.46142318477E+02  0.10000006528E+02 0.  0.
         12    1    1    2    0    0  0.45691106722E+01 -0.44303414676E+02  0.67412238956E+01  0.45045681523E+02  0.00000000000E+00 0. -1.
         11    1    3    3    0    0 -0.38435704707E+01  0.40269712748E+02 -0.44724383541E+01  0.40699207656E+02  0.51100000000E-03 0. -1.
        -11    1    3    3    0    0 -0.42162186742E-01  0.42200245346E+01 -0.21050826560E+01  0.47161168319E+01  0.51100000000E-03 0.  1.
         12    1    3    3    0    0 -0.68337801485E+00 -0.18632260682E+00 -0.16370288556E+00  0.72699398878E+00  0.00000000000E+00 0. -1.
</event>
<event>
 7    1  0.2353206E-008  0.4614232E+02  0.7816164E-02  0.1320468E+00
        -11   -1    0    0    0    0  0.00000000000E+00  0.00000000000E+00  0.45593999997E+02  0.45594000000E+02  0.51100000000E-03 0. -1.
         11   -1    0    0    0    0 -0.00000000000E+00 -0.00000000000E+00 -0.45593999997E+02  0.45594000000E+02  0.51100000000E-03 0.  1.
    9900012    2    1    2    0    0  0.72460122054E+01  0.39976273878E+02  0.19455239600E+02  0.46142317477E+02  0.99999974112E+01 0.  0.
         12    1    1    2    0    0 -0.72460122054E+01 -0.39976273878E+02 -0.19455239600E+02  0.45045682523E+02  0.00000000000E+00 0. -1.
         11    1    3    3    0    0  0.31576681606E+00  0.35329532638E+00  0.15283361295E+01  0.16001055764E+01  0.51100000000E-03 0. -1.
        -11    1    3    3    0    0  0.13243652105E+01  0.25372789230E+02  0.12298749515E+02  0.28227497523E+02  0.51100000000E-03 0.  1.
        -12    1    3    3    0    0  0.56058801788E+01  0.14250189322E+02  0.56281539558E+01  0.16314714378E+02  0.00000000000E+00 0.  1.
</event>
<event>
 7    1  0.2353206E-008  0.4614232E+02  0.7816164E-02  0.1320468E+00
        -11   -1    0    0    0    0  0.00000000000E+00  0.00000000000E+00  0.45593999997E+02  0.45594000000E+02  0.51100000000E-03 0.  1.
         11   -1    0    0    0    0 -0.00000000000E+00 -0.00000000000E+00 -0.45593999997E+02  0.45594000000E+02  0.51100000000E-03 0. -1.
    9900012    2    1    2    0    0  0.20614326934E+02 -0.29453820084E+02  0.27141031686E+02  0.46142316595E+02  0.99999893654E+01 0.  0.
         12    1    1    2    0    0 -0.20614326934E+02  0.29453820084E+02 -0.27141031686E+02  0.45045683405E+02  0.00000000000E+00 0. -1.
         11    1    3    3    0    0  0.62817042717E+00 -0.31174578689E+01  0.39821569902E+01  0.50961471923E+01  0.51100000000E-03 0. -1.
        -11    1    3    3    0    0  0.96532909462E+01 -0.17921819290E+02  0.16182412941E+02  0.26004771132E+02  0.51100000000E-03 0.  1.
         12    1    3    3    0    0  0.10332865561E+02 -0.84145429247E+01  0.69764617540E+01  0.15041398271E+02  0.00000000000E+00 0. -1.
</event>
<event>
 7    1  0.2353206E-008  0.4614231E+02  0.7816164E-02  0.1320468E+00
        -11   -1    0    0    0    0  0.00000000000E+00  0.00000000000E+00  0.45593999997E+02  0.45594000000E+02  0.51100000000E-03 0. -1.
         11   -1    0    0    0    0 -0.00000000000E+00 -0.00000000000E+00 -0.45593999997E+02  0.45594000000E+02  0.51100000000E-03 0.  1.
    9900012    2    1    2    0    0  0.31117618916E+02  0.20381562321E+01 -0.32506211042E+02  0.46142311592E+02  0.99999437491E+01 0.  0.
         12    1    1    2    0    0 -0.31117618916E+02 -0.20381562321E+01  0.32506211042E+02  0.45045688408E+02  0.00000000000E+00 0. -1.
         11    1    3    3    0    0  0.14337620316E+01  0.23239825235E+01 -0.37290991154E+01  0.46219853750E+01  0.51100000000E-03 0. -1.
        -11    1    3    3    0    0  0.18262451190E+02 -0.50835585627E+00 -0.15114934814E+02  0.23711533140E+02  0.51100000000E-03 0.  1.
        -12    1    3    3    0    0  0.11421405694E+02  0.22252956481E+00 -0.13662177112E+02  0.17808793078E+02  0.00000000000E+00 0.  1.
</event>
<event>
 7    1  0.2353206E-008  0.4614232E+02  0.7816164E-02  0.1320468E+00
        -11   -1    0    0    0    0  0.00000000000E+00  0.00000000000E+00  0.45593999997E+02  0.45594000000E+02  0.51100000000E-03 0.  1.
         11   -1    0    0    0    0 -0.00000000000E+00 -0.00000000000E+00 -0.45593999997E+02  0.45594000000E+02  0.51100000000E-03 0. -1.
    9900012    2    1    2    0    0 -0.42323648054E+02 -0.59981442011E+01  0.14207204322E+02  0.46142316821E+02  0.99999914258E+01 0.  0.
         12    1    1    2    0    0  0.42323648054E+02  0.59981442011E+01 -0.14207204322E+02  0.45045683179E+02  0.00000000000E+00 0. -1.
         11    1    3    3    0    0 -0.16403576131E+02 -0.51956392714E+01  0.84595144522E+01  0.19173819712E+02  0.51100000000E-03 0. -1.
        -11    1    3    3    0    0 -0.25467373704E+02 -0.32439720045E+00  0.61439751469E+01  0.26200015034E+02  0.51100000000E-03 0.  1.
         12    1    3    3    0    0 -0.45269821865E+00 -0.47810772924E+00 -0.39628527722E+00  0.76848207452E+00  0.00000000000E+00 0. -1.
</event>
<event>
 7    1  0.2353206E-008  0.4614232E+02  0.7816164E-02  0.1320468E+00
        -11   -1    0    0    0    0  0.00000000000E+00  0.00000000000E+00  0.45593999997E+02  0.45594000000E+02  0.51100000000E-03 0. -1.
         11   -1    0    0    0    0 -0.00000000000E+00 -0.00000000000E+00 -0.45593999997E+02  0.45594000000E+02  0.51100000000E-03 0.  1.
    9900012    2    1    2    0    0 -0.12814555259E+02  0.40026046760E+02  0.16211612564E+02  0.46142316215E+02  0.99999859054E+01 0.  0.
         12    1    1    2    0    0  0.12814555259E+02 -0.40026046760E+02 -0.16211612564E+02  0.45045683785E+02  0.00000000000E+00 0. -1.
         11    1    3    3    0    0 -0.17538894720E+01  0.30640152329E+01  0.28775316263E+01  0.45546137212E+01  0.51100000000E-03 0. -1.
        -11    1    3    3    0    0  0.76604960490E-01 -0.39902948665E+00  0.12971085628E+00  0.42651848559E+00  0.51100000000E-03 0.  1.
        -12    1    3    3    0    0 -0.11137270747E+02  0.37361061013E+02  0.13204370081E+02  0.41161184009E+02  0.00000000000E+00 0.  1.
</event>
<event>
 7    1  0.2353206E-008  0.4614232E+02  0.7816164E-02  0.1320468E+00
        -11   -1    0    0    0    0  0.00000000000E+00  0.00000000000E+00  0.45593999997E+02  0.45594000000E+02  0.51100000000E-03 0.  1.
         11   -1    0    0    0    0 -0.00000000000E+00 -0.00000000000E+00 -0.45593999997E+02  0.45594000000E+02  0.51100000000E-03 0. -1.
    9900012    2    1    2    0    0 -0.42781771305E+02 -0.13139586635E+02  0.51171175192E+01  0.46142316693E+02  0.99999902573E+01 0.  0.
         12    1    1    2    0    0  0.42781771305E+02  0.13139586635E+02 -0.51171175192E+01  0.45045683307E+02  0.00000000000E+00 0. -1.
         11    1    3    3    0    0 -0.25378901424E+01 -0.21638639738E+01  0.19443254606E+01  0.38605175080E+01  0.51100000000E-03 0. -1.
        -11    1    3    3    0    0 -0.30650634124E+02 -0.81932836435E+01 -0.23553895365E+00  0.31727696859E+02  0.51100000000E-03 0.  1.
        -12    1    3    3    0    0 -0.95932470381E+01 -0.27824390177E+01  0.34083310122E+01  0.10554102326E+02  0.00000000000E+00 0.  1.
</event>
<event>
 7    1  0.2353206E-008  0.4614232E+02  0.7816164E-02  0.1320468E+00
        -11   -1    0    0    0    0  0.00000000000E+00  0.00000000000E+00  0.45593999997E+02  0.45594000000E+02  0.51100000000E-03 0.  1.
         11   -1    0    0    0    0 -0.00000000000E+00 -0.00000000000E+00 -0.45593999997E+02  0.45594000000E+02  0.51100000000E-03 0. -1.
    9900012    2    1    2    0    0  0.42486913047E+02 -0.59426639163E+01  0.13735373147E+02  0.46142317520E+02  0.99999977970E+01 0.  0.
         12    1    1    2    0    0 -0.42486913047E+02  0.59426639163E+01 -0.13735373147E+02  0.45045682480E+02  0.00000000000E+00 0. -1.
         11    1    3    3    0    0  0.21861680740E+02 -0.33583537638E+00  0.85788179062E+01  0.23487059993E+02  0.51100000000E-03 0. -1.
        -11    1    3    3    0    0  0.18708660006E+02 -0.44296064270E+01  0.61651814653E+01  0.20190216320E+02  0.51100000000E-03 0.  1.
        -12    1    3    3    0    0  0.19165723013E+01 -0.11772221129E+01 -0.10086262246E+01  0.24650412066E+01  0.00000000000E+00 0.  1.
</event>
<event>
 7    1  0.2353206E-008  0.4614232E+02  0.7816164E-02  0.1320468E+00
        -11   -1    0    0    0    0  0.00000000000E+00  0.00000000000E+00  0.45593999997E+02  0.45594000000E+02  0.51100000000E-03 0.  1.
         11   -1    0    0    0    0 -0.00000000000E+00 -0.00000000000E+00 -0.45593999997E+02  0.45594000000E+02  0.51100000000E-03 0. -1.
    9900012    2    1    2    0    0  0.92391640145E+00 -0.45035797621E+02 -0.19186645536E+00  0.46142317614E+02  0.99999986616E+01 0.  0.
         12    1    1    2    0    0 -0.92391640145E+00  0.45035797621E+02  0.19186645536E+00  0.45045682386E+02  0.00000000000E+00 0. -1.
         11    1    3    3    0    0 -0.18325873348E+00 -0.22157162286E+02  0.93119079912E+00  0.22177478236E+02  0.51100000000E-03 0.  1.
        -11    1    3    3    0    0 -0.93118642695E+00 -0.57351504115E+01  0.24987642891E+01  0.63247831297E+01  0.51100000000E-03 0. -1.
         12    1    3    3    0    0  0.20383615619E+01 -0.17143484923E+02 -0.36218215436E+01  0.17640056249E+02  0.00000000000E+00 0. -1.
</event>
<event>
 7    1  0.2353206E-008  0.4614232E+02  0.7816164E-02  0.1320468E+00
        -11   -1    0    0    0    0  0.00000000000E+00  0.00000000000E+00  0.45593999997E+02  0.45594000000E+02  0.51100000000E-03 0. -1.
         11   -1    0    0    0    0 -0.00000000000E+00 -0.00000000000E+00 -0.45593999997E+02  0.45594000000E+02  0.51100000000E-03 0.  1.
    9900012    2    1    2    0    0  0.37455647015E+02  0.18318355888E+02 -0.17047752616E+02  0.46142317354E+02  0.99999962916E+01 0.  0.
         12    1    1    2    0    0 -0.37455647015E+02 -0.18318355888E+02  0.17047752616E+02  0.45045682646E+02  0.00000000000E+00 0. -1.
         11    1    3    3    0    0  0.26323908685E+02  0.12758301350E+02 -0.11074770197E+02  0.31278953898E+02  0.51100000000E-03 0. -1.
        -11    1    3    3    0    0  0.91328104419E+01  0.61787025204E+01 -0.33832068026E+01  0.11533892662E+02  0.51100000000E-03 0.  1.
         12    1    3    3    0    0  0.19989278881E+01 -0.61864798208E+00 -0.25897756167E+01  0.33294707946E+01  0.00000000000E+00 0. -1.
</event>
<event>
 7    1  0.2353206E-008  0.4614232E+02  0.7816164E-02  0.1320468E+00
        -11   -1    0    0    0    0  0.00000000000E+00  0.00000000000E+00  0.45593999997E+02  0.45594000000E+02  0.51100000000E-03 0.  1.
         11   -1    0    0    0    0 -0.00000000000E+00 -0.00000000000E+00 -0.45593999997E+02  0.45594000000E+02  0.51100000000E-03 0. -1.
    9900012    2    1    2    0    0 -0.37833630445E+02 -0.18453056655E+02  0.16037910648E+02  0.46142317960E+02  0.10000001809E+02 0.  0.
         12    1    1    2    0    0  0.37833630445E+02  0.18453056655E+02 -0.16037910648E+02  0.45045682040E+02  0.00000000000E+00 0. -1.
         11    1    3    3    0    0 -0.31540987385E+01 -0.15646057807E+01 -0.45213173831E+00  0.35497540015E+01  0.51100000000E-03 0. -1.
        -11    1    3    3    0    0 -0.27306035536E+02 -0.16079040365E+02  0.14851154426E+02  0.34995884098E+02  0.51100000000E-03 0.  1.
        -12    1    3    3    0    0 -0.73734961705E+01 -0.80941050850E+00  0.16388879600E+01  0.75966798598E+01  0.00000000000E+00 0.  1.
</event>
<event>
 7    1  0.2353206E-008  0.4614232E+02  0.7816164E-02  0.1320468E+00
        -11   -1    0    0    0    0  0.00000000000E+00  0.00000000000E+00  0.45593999997E+02  0.45594000000E+02  0.51100000000E-03 0. -1.
         11   -1    0    0    0    0 -0.00000000000E+00 -0.00000000000E+00 -0.45593999997E+02  0.45594000000E+02  0.51100000000E-03 0.  1.
    9900012    2    1    2    0    0  0.87367597610E+00  0.13629520999E+02 -0.42925360247E+02  0.46142315360E+02  0.99999781033E+01 0.  0.
         12    1    1    2    0    0 -0.87367597610E+00 -0.13629520999E+02  0.42925360247E+02  0.45045684640E+02  0.00000000000E+00 0. -1.
         11    1    3    3    0    0  0.13551258184E+01  0.26190805180E+01 -0.36774247766E+01  0.47137460679E+01  0.51100000000E-03 0. -1.
        -11    1    3    3    0    0  0.14155328407E+01  0.11332962420E+01 -0.14687719466E+01  0.23335348481E+01  0.51100000000E-03 0.  1.
        -12    1    3    3    0    0 -0.18969826829E+01  0.98771442388E+01 -0.37779163524E+02  0.39095034444E+02  0.00000000000E+00 0.  1.
</event>
<event>
 7    1  0.2353206E-008  0.4614232E+02  0.7816164E-02  0.1320468E+00
        -11   -1    0    0    0    0  0.00000000000E+00  0.00000000000E+00  0.45593999997E+02  0.45594000000E+02  0.51100000000E-03 0.  1.
         11   -1    0    0    0    0 -0.00000000000E+00 -0.00000000000E+00 -0.45593999997E+02  0.45594000000E+02  0.51100000000E-03 0. -1.
    9900012    2    1    2    0    0 -0.35251918175E+02 -0.24824480557E+02  0.13044573957E+02  0.46142317858E+02  0.10000000879E+02 0.  0.
         12    1    1    2    0    0  0.35251918175E+02  0.24824480557E+02 -0.13044573957E+02  0.45045682142E+02  0.00000000000E+00 0. -1.
         11    1    3    3    0    0 -0.93764611137E+01 -0.62843004502E+01  0.71947019963E+01  0.13385596447E+02  0.51100000000E-03 0. -1.
        -11    1    3    3    0    0 -0.36608549468E+01 -0.10891240091E+01  0.17865120935E+01  0.42165952817E+01  0.51100000000E-03 0.  1.
        -12    1    3    3    0    0 -0.22214602115E+02 -0.17451056098E+02  0.40633598674E+01  0.28540126129E+02  0.00000000000E+00 0.  1.
</event>
<event>
 7    1  0.2353206E-008  0.4614232E+02  0.7816164E-02  0.1320468E+00
        -11   -1    0    0    0    0  0.00000000000E+00  0.00000000000E+00  0.45593999997E+02  0.45594000000E+02  0.51100000000E-03 0.  1.
         11   -1    0    0    0    0 -0.00000000000E+00 -0.00000000000E+00 -0.45593999997E+02  0.45594000000E+02  0.51100000000E-03 0. -1.
    9900012    2    1    2    0    0 -0.12030510755E+02 -0.12669590843E+02  0.41519414734E+02  0.46142317399E+02  0.99999966951E+01 0.  0.
         12    1    1    2    0    0  0.12030510755E+02  0.12669590843E+02 -0.41519414734E+02  0.45045682601E+02  0.00000000000E+00 0. -1.
         11    1    3    3    0    0 -0.35540087571E+01 -0.41283143270E+01  0.14439445068E+02  0.15432806989E+02  0.51100000000E-03 0. -1.
        -11    1    3    3    0    0 -0.44129771447E+01 -0.72969584439E+01  0.23974638411E+02  0.25446085298E+02  0.51100000000E-03 0.  1.
         12    1    3    3    0    0 -0.40635248537E+01 -0.12443180716E+01  0.31053312557E+01  0.52634251118E+01  0.00000000000E+00 0. -1.
</event>
<event>
 7    1  0.2353206E-008  0.4614232E+02  0.7816164E-02  0.1320468E+00
        -11   -1    0    0    0    0  0.00000000000E+00  0.00000000000E+00  0.45593999997E+02  0.45594000000E+02  0.51100000000E-03 0.  1.
         11   -1    0    0    0    0 -0.00000000000E+00 -0.00000000000E+00 -0.45593999997E+02  0.45594000000E+02  0.51100000000E-03 0. -1.
    9900012    2    1    2    0    0  0.37491815706E+02  0.14786738071E+02  0.20120377949E+02  0.46142317892E+02  0.10000001196E+02 0.  0.
         12    1    1    2    0    0 -0.37491815706E+02 -0.14786738071E+02 -0.20120377949E+02  0.45045682108E+02  0.00000000000E+00 0. -1.
         11    1    3    3    0    0  0.79234707194E+01  0.23014993170E+01  0.19231147067E+01  0.84721105861E+01  0.51100000000E-03 0. -1.
        -11    1    3    3    0    0  0.21338600814E+02  0.11012715413E+02  0.10162447155E+02  0.26074721819E+02  0.51100000000E-03 0.  1.
        -12    1    3    3    0    0  0.82297441727E+01  0.14725233406E+01  0.80348160868E+01  0.11595485487E+02  0.00000000000E+00 0.  1.
</event>
<event>
 7    1  0.2353206E-008  0.4614232E+02  0.7816164E-02  0.1320468E+00
        -11   -1    0    0    0    0  0.00000000000E+00  0.00000000000E+00  0.45593999997E+02  0.45594000000E+02  0.51100000000E-03 0.  1.
         11   -1    0    0    0    0 -0.00000000000E+00 -0.00000000000E+00 -0.45593999997E+02  0.45594000000E+02  0.51100000000E-03 0. -1.
    9900012    2    1    2    0    0  0.15635373304E+02  0.12868790068E+02  0.40237332968E+02  0.46142316294E+02  0.99999866226E+01 0.  0.
         12    1    1    2    0    0 -0.15635373304E+02 -0.12868790068E+02 -0.40237332968E+02  0.45045683706E+02  0.00000000000E+00 0. -1.
         11    1    3    3    0    0  0.26201213790E+00  0.17834765440E+01  0.72960675027E+01  0.75154534267E+01  0.51100000000E-03 0. -1.
        -11    1    3    3    0    0  0.10912829128E+02  0.42381513579E+01  0.16085237687E+02  0.19894387103E+02  0.51100000000E-03 0.  1.
         12    1    3    3    0    0  0.44605320381E+01  0.68471621659E+01  0.16856027778E+02  0.18732475764E+02  0.00000000000E+00 0. -1.
</event>
<event>
 7    1  0.2353206E-008  0.4614232E+02  0.7816164E-02  0.1320468E+00
        -11   -1    0    0    0    0  0.00000000000E+00  0.00000000000E+00  0.45593999997E+02  0.45594000000E+02  0.51100000000E-03 0.  1.
         11   -1    0    0    0    0 -0.00000000000E+00 -0.00000000000E+00 -0.45593999997E+02  0.45594000000E+02  0.51100000000E-03 0. -1.
    9900012    2    1    2    0    0 -0.87619862607E+01 -0.43687673698E+02  0.66127335384E+01  0.46142317840E+02  0.10000000720E+02 0.  0.
         12    1    1    2    0    0  0.87619862607E+01  0.43687673698E+02 -0.66127335384E+01  0.45045682160E+02  0.00000000000E+00 0. -1.
         11    1    3    3    0    0 -0.35641461887E+01 -0.45100876385E+01  0.15941665373E+01  0.59653495933E+01  0.51100000000E-03 0. -1.
        -11    1    3    3    0    0 -0.50810486885E+01 -0.18932973296E+02  0.19285485716E+01  0.19697559074E+02  0.51100000000E-03 0.  1.
        -12    1    3    3    0    0 -0.11679138350E+00 -0.20244612764E+02  0.30900184295E+01  0.20479409173E+02  0.00000000000E+00 0.  1.
</event>
<event>
 7    1  0.2353206E-008  0.4614232E+02  0.7816164E-02  0.1320468E+00
        -11   -1    0    0    0    0  0.00000000000E+00  0.00000000000E+00  0.45593999997E+02  0.45594000000E+02  0.51100000000E-03 0.  1.
         11   -1    0    0    0    0 -0.00000000000E+00 -0.00000000000E+00 -0.45593999997E+02  0.45594000000E+02  0.51100000000E-03 0. -1.
    9900012    2    1    2    0    0  0.63890783893E+01  0.44344766158E+02  0.46727803119E+01  0.46142317808E+02  0.10000000427E+02 0.  0.
         12    1    1    2    0    0 -0.63890783893E+01 -0.44344766158E+02 -0.46727803119E+01  0.45045682192E+02  0.00000000000E+00 0. -1.
         11    1    3    3    0    0  0.34656834921E+01  0.19402651210E+02  0.10934882428E+01  0.19740049464E+02  0.51100000000E-03 0. -1.
        -11    1    3    3    0    0  0.21153205728E+00  0.13556642288E+02 -0.15051780827E+01  0.13641585585E+02  0.51100000000E-03 0.  1.
         12    1    3    3    0    0  0.27118628399E+01  0.11385472660E+02  0.50844701518E+01  0.12760682759E+02  0.00000000000E+00 0. -1.
</event>
<event>
 7    1  0.2353206E-008  0.4614232E+02  0.7816164E-02  0.1320468E+00
        -11   -1    0    0    0    0  0.00000000000E+00  0.00000000000E+00  0.45593999997E+02  0.45594000000E+02  0.51100000000E-03 0. -1.
         11   -1    0    0    0    0 -0.00000000000E+00 -0.00000000000E+00 -0.45593999997E+02  0.45594000000E+02  0.51100000000E-03 0.  1.
    9900012    2    1    2    0    0 -0.41797716140E+02  0.14296431505E+02  0.88134279910E+01  0.46142317174E+02  0.99999946441E+01 0.  0.
         12    1    1    2    0    0  0.41797716140E+02 -0.14296431505E+02 -0.88134279910E+01  0.45045682826E+02  0.00000000000E+00 0. -1.
         11    1    3    3    0    0 -0.99643440907E+01  0.10725132927E+01  0.16540075134E+01  0.10157469126E+02  0.51100000000E-03 0. -1.
        -11    1    3    3    0    0 -0.11226630171E+02  0.53849854838E+01  0.62175351963E+01  0.13917364615E+02  0.51100000000E-03 0.  1.
        -12    1    3    3    0    0 -0.20606741879E+02  0.78389327286E+01  0.94188528132E+00  0.22067483433E+02  0.00000000000E+00 0.  1.
</event>
<event>
 7    1  0.2353206E-008  0.4614232E+02  0.7816164E-02  0.1320468E+00
        -11   -1    0    0    0    0  0.00000000000E+00  0.00000000000E+00  0.45593999997E+02  0.45594000000E+02  0.51100000000E-03 0. -1.
         11   -1    0    0    0    0 -0.00000000000E+00 -0.00000000000E+00 -0.45593999997E+02  0.45594000000E+02  0.51100000000E-03 0.  1.
    9900012    2    1    2    0    0 -0.36626978402E+02 -0.13058478240E+02 -0.22738823471E+02  0.46142317703E+02  0.99999994695E+01 0.  0.
         12    1    1    2    0    0  0.36626978402E+02  0.13058478240E+02  0.22738823471E+02  0.45045682297E+02  0.00000000000E+00 0. -1.
         11    1    3    3    0    0 -0.20803938996E+02 -0.10298010001E+02 -0.16834737950E+02  0.28675098776E+02  0.51100000000E-03 0.  1.
        -11    1    3    3    0    0 -0.63814925059E+01  0.59789135273E+00 -0.20273361585E+01  0.67224261121E+01  0.51100000000E-03 0. -1.
        -12    1    3    3    0    0 -0.94415469001E+01 -0.33583595915E+01 -0.38767493623E+01  0.10744792815E+02  0.00000000000E+00 0.  1.
</event>
<event>
 7    1  0.2353206E-008  0.4614232E+02  0.7816164E-02  0.1320468E+00
        -11   -1    0    0    0    0  0.00000000000E+00  0.00000000000E+00  0.45593999997E+02  0.45594000000E+02  0.51100000000E-03 0.  1.
         11   -1    0    0    0    0 -0.00000000000E+00 -0.00000000000E+00 -0.45593999997E+02  0.45594000000E+02  0.51100000000E-03 0. -1.
    9900012    2    1    2    0    0 -0.26834975153E+02 -0.31326714345E+02  0.18100679972E+02  0.46142317204E+02  0.99999949200E+01 0.  0.
         12    1    1    2    0    0  0.26834975153E+02  0.31326714345E+02 -0.18100679972E+02  0.45045682796E+02  0.00000000000E+00 0. -1.
         11    1    3    3    0    0 -0.73938392289E+01 -0.11229875904E+02  0.10695609406E+02  0.17180658666E+02  0.51100000000E-03 0. -1.
        -11    1    3    3    0    0 -0.18129941383E+01 -0.19538981471E+01  0.11515086050E+01  0.29035561030E+01  0.51100000000E-03 0.  1.
         12    1    3    3    0    0 -0.17628141786E+02 -0.18142940294E+02  0.62535619608E+01  0.26058102435E+02  0.00000000000E+00 0. -1.
</event>
<event>
 7    1  0.2353206E-008  0.4614232E+02  0.7816164E-02  0.1320468E+00
        -11   -1    0    0    0    0  0.00000000000E+00  0.00000000000E+00  0.45593999997E+02  0.45594000000E+02  0.51100000000E-03 0.  1.
         11   -1    0    0    0    0 -0.00000000000E+00 -0.00000000000E+00 -0.45593999997E+02  0.45594000000E+02  0.51100000000E-03 0. -1.
    9900012    2    1    2    0    0 -0.92206723255E+01 -0.21179219815E+02  0.38672125313E+02  0.46142318449E+02  0.10000006277E+02 0.  0.
         12    1    1    2    0    0  0.92206723255E+01  0.21179219815E+02 -0.38672125313E+02  0.45045681551E+02  0.00000000000E+00 0. -1.
         11    1    3    3    0    0 -0.47597254258E+01 -0.90979556523E+01  0.19309150003E+02  0.21869409167E+02  0.51100000000E-03 0. -1.
        -11    1    3    3    0    0 -0.41955716508E+01 -0.22277525212E+01  0.70364698700E+01  0.84898534301E+01  0.51100000000E-03 0.  1.
         12    1    3    3    0    0 -0.26537524883E+00 -0.98535116413E+01  0.12326505440E+02  0.15783055853E+02  0.00000000000E+00 0. -1.
</event>
<event>
 7    1  0.2353206E-008  0.4614232E+02  0.7816164E-02  0.1320468E+00
        -11   -1    0    0    0    0  0.00000000000E+00  0.00000000000E+00  0.45593999997E+02  0.45594000000E+02  0.51100000000E-03 0.  1.
         11   -1    0    0    0    0 -0.00000000000E+00 -0.00000000000E+00 -0.45593999997E+02  0.45594000000E+02  0.51100000000E-03 0. -1.
    9900012    2    1    2    0    0 -0.39855168381E+02 -0.15046630491E+01  0.20938364718E+02  0.46142316804E+02  0.99999912729E+01 0.  0.
         12    1    1    2    0    0  0.39855168381E+02  0.15046630491E+01 -0.20938364718E+02  0.45045683196E+02  0.00000000000E+00 0. -1.
         11    1    3    3    0    0 -0.66047105800E+01  0.56846581895E+00  0.13033514556E+01  0.67560402982E+01  0.51100000000E-03 0. -1.
        -11    1    3    3    0    0 -0.13428393060E+02  0.93119949507E-01  0.12081111171E+02  0.18063323584E+02  0.51100000000E-03 0.  1.
        -12    1    3    3    0    0 -0.19822064741E+02 -0.21662488175E+01  0.75539020908E+01  0.21322952922E+02  0.00000000000E+00 0.  1.
</event>
<event>
 7    1  0.2353206E-008  0.4614232E+02  0.7816164E-02  0.1320468E+00
        -11   -1    0    0    0    0  0.00000000000E+00  0.00000000000E+00  0.45593999997E+02  0.45594000000E+02  0.51100000000E-03 0. -1.
         11   -1    0    0    0    0 -0.00000000000E+00 -0.00000000000E+00 -0.45593999997E+02  0.45594000000E+02  0.51100000000E-03 0.  1.
    9900012    2    1    2    0    0 -0.89222779029E+01  0.32257078910E+02 -0.30149416752E+02  0.46142317485E+02  0.99999974804E+01 0.  0.
         12    1    1    2    0    0  0.89222779029E+01 -0.32257078910E+02  0.30149416752E+02  0.45045682515E+02  0.00000000000E+00 0. -1.
         11    1    3    3    0    0 -0.18747440174E+01  0.68050264315E+01 -0.39960893293E+01  0.81112132294E+01  0.51100000000E-03 0. -1.
        -11    1    3    3    0    0  0.12781101934E+01  0.76511964826E+00 -0.20828447536E+01  0.25607062056E+01  0.51100000000E-03 0.  1.
        -12    1    3    3    0    0 -0.83256440789E+01  0.24686932830E+02 -0.24070482669E+02  0.35470398050E+02  0.00000000000E+00 0.  1.
</event>
<event>
 7    1  0.2353206E-008  0.4614232E+02  0.7816164E-02  0.1320468E+00
        -11   -1    0    0    0    0  0.00000000000E+00  0.00000000000E+00  0.45593999997E+02  0.45594000000E+02  0.51100000000E-03 0.  1.
         11   -1    0    0    0    0 -0.00000000000E+00 -0.00000000000E+00 -0.45593999997E+02  0.45594000000E+02  0.51100000000E-03 0. -1.
    9900012    2    1    2    0    0  0.42567133920E+02 -0.10974037164E+02 -0.98347916442E+01  0.46142317537E+02  0.99999979592E+01 0.  0.
         12    1    1    2    0    0 -0.42567133920E+02  0.10974037164E+02  0.98347916442E+01  0.45045682463E+02  0.00000000000E+00 0. -1.
         11    1    3    3    0    0  0.75865226451E+01 -0.83169597106E+00 -0.11357305106E+01  0.77160176313E+01  0.51100000000E-03 0. -1.
        -11    1    3    3    0    0  0.98808743847E+01 -0.65224069587E+01 -0.80591300482E+00  0.11866885319E+02  0.51100000000E-03 0.  1.
        -12    1    3    3    0    0  0.25099736890E+02 -0.36199342339E+01 -0.78931481288E+01  0.26559414587E+02  0.00000000000E+00 0.  1.
</event>
<event>
 7    1  0.2353206E-008  0.4614232E+02  0.7816164E-02  0.1320468E+00
        -11   -1    0    0    0    0  0.00000000000E+00  0.00000000000E+00  0.45593999997E+02  0.45594000000E+02  0.51100000000E-03 0.  1.
         11   -1    0    0    0    0 -0.00000000000E+00 -0.00000000000E+00 -0.45593999997E+02  0.45594000000E+02  0.51100000000E-03 0. -1.
    9900012    2    1    2    0    0  0.23351445119E+02 -0.22675218826E+02  0.31139331797E+02  0.46142317380E+02  0.99999965225E+01 0.  0.
         12    1    1    2    0    0 -0.23351445119E+02  0.22675218826E+02 -0.31139331797E+02  0.45045682620E+02  0.00000000000E+00 0. -1.
         11    1    3    3    0    0  0.65507076108E+01 -0.17421308379E+01  0.40661082608E+01  0.79044308276E+01  0.51100000000E-03 0.  1.
        -11    1    3    3    0    0 -0.95866318145E-02 -0.94237107832E-01  0.52356078013E+00  0.53206079315E+00  0.51100000000E-03 0. -1.
        -12    1    3    3    0    0  0.16810324140E+02 -0.20838850880E+02  0.26549662756E+02  0.37705825759E+02  0.00000000000E+00 0.  1.
</event>
<event>
 7    1  0.2353206E-008  0.4614232E+02  0.7816164E-02  0.1320468E+00
        -11   -1    0    0    0    0  0.00000000000E+00  0.00000000000E+00  0.45593999997E+02  0.45594000000E+02  0.51100000000E-03 0.  1.
         11   -1    0    0    0    0 -0.00000000000E+00 -0.00000000000E+00 -0.45593999997E+02  0.45594000000E+02  0.51100000000E-03 0. -1.
    9900012    2    1    2    0    0  0.31663639813E+02  0.55513909442E+01  0.31554862430E+02  0.46142319069E+02  0.10000011922E+02 0.  0.
         12    1    1    2    0    0 -0.31663639813E+02 -0.55513909442E+01 -0.31554862430E+02  0.45045680931E+02  0.00000000000E+00 0. -1.
         11    1    3    3    0    0  0.77554476758E+01  0.34198666547E+01  0.10460048815E+02  0.13463100611E+02  0.51100000000E-03 0. -1.
        -11    1    3    3    0    0  0.41394195622E+01 -0.17773894913E+01  0.59908864893E+01  0.74956406601E+01  0.51100000000E-03 0.  1.
         12    1    3    3    0    0  0.19768772575E+02  0.39089137808E+01  0.15103927125E+02  0.25183577797E+02  0.00000000000E+00 0. -1.
</event>
<event>
 7    1  0.2353206E-008  0.4614232E+02  0.7816164E-02  0.1320468E+00
        -11   -1    0    0    0    0  0.00000000000E+00  0.00000000000E+00  0.45593999997E+02  0.45594000000E+02  0.51100000000E-03 0.  1.
         11   -1    0    0    0    0 -0.00000000000E+00 -0.00000000000E+00 -0.45593999997E+02  0.45594000000E+02  0.51100000000E-03 0. -1.
    9900012    2    1    2    0    0  0.45745256173E+01  0.32232266179E+02  0.31133072871E+02  0.46142317697E+02  0.99999994194E+01 0.  0.
         12    1    1    2    0    0 -0.45745256173E+01 -0.32232266179E+02 -0.31133072871E+02  0.45045682303E+02  0.00000000000E+00 0. -1.
         11    1    3    3    0    0 -0.10692024101E+01  0.21370765423E+02  0.22530378269E+02  0.31072025260E+02  0.51100000000E-03 0.  1.
        -11    1    3    3    0    0  0.80657083474E+00  0.21963394831E+01  0.89615357058E+00  0.25055049630E+01  0.51100000000E-03 0. -1.
        -12    1    3    3    0    0  0.48371571927E+01  0.86651612736E+01  0.77065410319E+01  0.12564787475E+02  0.00000000000E+00 0.  1.
</event>
<event>
 7    1  0.2353206E-008  0.4614232E+02  0.7816164E-02  0.1320468E+00
        -11   -1    0    0    0    0  0.00000000000E+00  0.00000000000E+00  0.45593999997E+02  0.45594000000E+02  0.51100000000E-03 0.  1.
         11   -1    0    0    0    0 -0.00000000000E+00 -0.00000000000E+00 -0.45593999997E+02  0.45594000000E+02  0.51100000000E-03 0. -1.
    9900012    2    1    2    0    0  0.33055445915E+02  0.55174001143E+01  0.30099990653E+02  0.46142316012E+02  0.99999840505E+01 0.  0.
         12    1    1    2    0    0 -0.33055445915E+02 -0.55174001143E+01 -0.30099990653E+02  0.45045683988E+02  0.00000000000E+00 0. -1.
         11    1    3    3    0    0  0.22535214965E+02  0.11586123844E+01  0.17835952824E+02  0.28762814702E+02  0.51100000000E-03 0. -1.
        -11    1    3    3    0    0  0.10277598298E+02  0.35333468795E+01  0.93351068832E+01  0.14326820573E+02  0.51100000000E-03 0.  1.
         12    1    3    3    0    0  0.24263265224E+00  0.82544085040E+00  0.29289309456E+01  0.30526807376E+01  0.00000000000E+00 0. -1.
</event>
<event>
 7    1  0.2353206E-008  0.4614231E+02  0.7816164E-02  0.1320468E+00
        -11   -1    0    0    0    0  0.00000000000E+00  0.00000000000E+00  0.45593999997E+02  0.45594000000E+02  0.51100000000E-03 0.  1.
         11   -1    0    0    0    0 -0.00000000000E+00 -0.00000000000E+00 -0.45593999997E+02  0.45594000000E+02  0.51100000000E-03 0. -1.
    9900012    2    1    2    0    0 -0.16629064489E+02  0.29967785383E+02  0.29232175240E+02  0.46142311907E+02  0.99999466147E+01 0.  0.
         12    1    1    2    0    0  0.16629064489E+02 -0.29967785383E+02 -0.29232175240E+02  0.45045688093E+02  0.00000000000E+00 0. -1.
         11    1    3    3    0    0 -0.42220128687E+01  0.77500019631E+01  0.60051792319E+01  0.10674741260E+02  0.51100000000E-03 0.  1.
        -11    1    3    3    0    0 -0.44343051985E+01  0.97253058243E+01  0.45281933623E+01  0.11608151074E+02  0.51100000000E-03 0. -1.
         12    1    3    3    0    0 -0.79727464220E+01  0.12492477596E+02  0.18698802645E+02  0.23859419573E+02  0.00000000000E+00 0. -1.
</event>
<event>
 7    1  0.2353206E-008  0.4614232E+02  0.7816164E-02  0.1320468E+00
        -11   -1    0    0    0    0  0.00000000000E+00  0.00000000000E+00  0.45593999997E+02  0.45594000000E+02  0.51100000000E-03 0.  1.
         11   -1    0    0    0    0 -0.00000000000E+00 -0.00000000000E+00 -0.45593999997E+02  0.45594000000E+02  0.51100000000E-03 0. -1.
    9900012    2    1    2    0    0  0.28216140879E+01  0.41099343369E+02  0.18220756113E+02  0.46142317801E+02  0.10000000368E+02 0.  0.
         12    1    1    2    0    0 -0.28216140879E+01 -0.41099343369E+02 -0.18220756113E+02  0.45045682199E+02  0.00000000000E+00 0. -1.
         11    1    3    3    0    0 -0.10178651400E+01  0.44109872400E+01  0.28321215398E+01  0.53398287006E+01  0.51100000000E-03 0. -1.
        -11    1    3    3    0    0 -0.20545863048E+01  0.34092617899E+01  0.19385752109E+01  0.44274671027E+01  0.51100000000E-03 0.  1.
         12    1    3    3    0    0  0.58940655327E+01  0.33279094339E+02  0.13450059363E+02  0.36375021998E+02  0.00000000000E+00 0. -1.
</event>
<event>
 7    1  0.2353206E-008  0.4614232E+02  0.7816164E-02  0.1320468E+00
        -11   -1    0    0    0    0  0.00000000000E+00  0.00000000000E+00  0.45593999997E+02  0.45594000000E+02  0.51100000000E-03 0. -1.
         11   -1    0    0    0    0 -0.00000000000E+00 -0.00000000000E+00 -0.45593999997E+02  0.45594000000E+02  0.51100000000E-03 0.  1.
    9900012    2    1    2    0    0  0.51402452151E+01  0.38390487841E+02 -0.22996992458E+02  0.46142319412E+02  0.10000015053E+02 0.  0.
         12    1    1    2    0    0 -0.51402452151E+01 -0.38390487841E+02  0.22996992458E+02  0.45045680588E+02  0.00000000000E+00 0. -1.
         11    1    3    3    0    0  0.52706736377E+01  0.21614420061E+02 -0.11573728735E+02  0.25078164850E+02  0.51100000000E-03 0. -1.
        -11    1    3    3    0    0  0.19467261894E+01  0.68247170022E+01 -0.70309192321E+01  0.99900115379E+01  0.51100000000E-03 0.  1.
         12    1    3    3    0    0 -0.20771546120E+01  0.99513507774E+01 -0.43923444910E+01  0.11074143024E+02  0.00000000000E+00 0. -1.
</event>
<event>
 7    1  0.2353206E-008  0.4614232E+02  0.7816164E-02  0.1320468E+00
        -11   -1    0    0    0    0  0.00000000000E+00  0.00000000000E+00  0.45593999997E+02  0.45594000000E+02  0.51100000000E-03 0.  1.
         11   -1    0    0    0    0 -0.00000000000E+00 -0.00000000000E+00 -0.45593999997E+02  0.45594000000E+02  0.51100000000E-03 0. -1.
    9900012    2    1    2    0    0  0.10509519769E+02  0.13407329212E+02  0.41700205301E+02  0.46142316471E+02  0.99999882390E+01 0.  0.
         12    1    1    2    0    0 -0.10509519769E+02 -0.13407329212E+02 -0.41700205301E+02  0.45045683529E+02  0.00000000000E+00 0. -1.
         11    1    3    3    0    0  0.78541753182E-01  0.67309295238E-01  0.10595585479E+02  0.10596090375E+02  0.51100000000E-03 0. -1.
        -11    1    3    3    0    0  0.54590314725E+01  0.70003259907E+01  0.19424525540E+02  0.21356914134E+02  0.51100000000E-03 0.  1.
         12    1    3    3    0    0  0.49719465438E+01  0.63396939259E+01  0.11680094282E+02  0.14189311962E+02  0.00000000000E+00 0. -1.
</event>
<event>
 7    1  0.2353206E-008  0.4614231E+02  0.7816164E-02  0.1320468E+00
        -11   -1    0    0    0    0  0.00000000000E+00  0.00000000000E+00  0.45593999997E+02  0.45594000000E+02  0.51100000000E-03 0. -1.
         11   -1    0    0    0    0 -0.00000000000E+00 -0.00000000000E+00 -0.45593999997E+02  0.45594000000E+02  0.51100000000E-03 0.  1.
    9900012    2    1    2    0    0  0.46862006282E+01  0.41689668960E+02 -0.16405046665E+02  0.46142306194E+02  0.99998945251E+01 0.  0.
         12    1    1    2    0    0 -0.46862006282E+01 -0.41689668960E+02  0.16405046665E+02  0.45045693806E+02  0.00000000000E+00 0. -1.
         11    1    3    3    0    0  0.34340019988E+00  0.11412772880E+02 -0.52009506928E+01  0.12546680712E+02  0.51100000000E-03 0.  1.
        -11    1    3    3    0    0 -0.24085982517E+01  0.84754204238E+01 -0.38678272237E+01  0.96225872088E+01  0.51100000000E-03 0. -1.
         12    1    3    3    0    0  0.67513986800E+01  0.21801475656E+02 -0.73362687485E+01  0.23973038274E+02  0.00000000000E+00 0. -1.
</event>
<event>
 7    1  0.2353206E-008  0.4614232E+02  0.7816164E-02  0.1320468E+00
        -11   -1    0    0    0    0  0.00000000000E+00  0.00000000000E+00  0.45593999997E+02  0.45594000000E+02  0.51100000000E-03 0.  1.
         11   -1    0    0    0    0 -0.00000000000E+00 -0.00000000000E+00 -0.45593999997E+02  0.45594000000E+02  0.51100000000E-03 0. -1.
    9900012    2    1    2    0    0  0.35271448494E+02  0.25137000704E+02  0.12376167923E+02  0.46142318567E+02  0.10000007350E+02 0.  0.
         12    1    1    2    0    0 -0.35271448494E+02 -0.25137000704E+02 -0.12376167923E+02  0.45045681433E+02  0.00000000000E+00 0. -1.
         11    1    3    3    0    0  0.12659938907E+02  0.94236356049E+01  0.52318463825E+01  0.16626821043E+02  0.51100000000E-03 0.  1.
        -11    1    3    3    0    0  0.64431693145E+01  0.23243163638E+01  0.48611771397E+01  0.83992809704E+01  0.51100000000E-03 0. -1.
         12    1    3    3    0    0  0.16168340273E+02  0.13389048735E+02  0.22831444008E+01  0.21116216554E+02  0.00000000000E+00 0. -1.
</event>
<event>
 7    1  0.2353206E-008  0.4614231E+02  0.7816164E-02  0.1320468E+00
        -11   -1    0    0    0    0  0.00000000000E+00  0.00000000000E+00  0.45593999997E+02  0.45594000000E+02  0.51100000000E-03 0.  1.
         11   -1    0    0    0    0 -0.00000000000E+00 -0.00000000000E+00 -0.45593999997E+02  0.45594000000E+02  0.51100000000E-03 0. -1.
    9900012    2    1    2    0    0  0.64953860305E+01 -0.20178034208E+02  0.39746329774E+02  0.46142313917E+02  0.99999649494E+01 0.  0.
         12    1    1    2    0    0 -0.64953860305E+01  0.20178034208E+02 -0.39746329774E+02  0.45045686083E+02  0.00000000000E+00 0. -1.
         11    1    3    3    0    0 -0.17774362008E+00 -0.12656257303E+01  0.67772367928E+01  0.68966905172E+01  0.51100000000E-03 0. -1.
        -11    1    3    3    0    0  0.11911062054E+01 -0.12610703369E+01  0.37356582701E+00  0.17744249985E+01  0.51100000000E-03 0.  1.
        -12    1    3    3    0    0  0.54820234451E+01 -0.17651338141E+02  0.32595527154E+02  0.37471198402E+02  0.00000000000E+00 0.  1.
</event>
<event>
 7    1  0.2353206E-008  0.4614232E+02  0.7816164E-02  0.1320468E+00
        -11   -1    0    0    0    0  0.00000000000E+00  0.00000000000E+00  0.45593999997E+02  0.45594000000E+02  0.51100000000E-03 0. -1.
         11   -1    0    0    0    0 -0.00000000000E+00 -0.00000000000E+00 -0.45593999997E+02  0.45594000000E+02  0.51100000000E-03 0.  1.
    9900012    2    1    2    0    0  0.12062898979E+02  0.77715326947E+01 -0.42698979671E+02  0.46142321882E+02  0.10000037574E+02 0.  0.
         12    1    1    2    0    0 -0.12062898979E+02 -0.77715326947E+01  0.42698979671E+02  0.45045678118E+02  0.00000000000E+00 0. -1.
         11    1    3    3    0    0  0.21062464386E+01 -0.13804781200E+01 -0.98670791526E+01  0.10183380832E+02  0.51100000000E-03 0. -1.
        -11    1    3    3    0    0  0.37547285389E+01  0.18358829999E+00 -0.87644140634E+01  0.95365950528E+01  0.51100000000E-03 0.  1.
        -12    1    3    3    0    0  0.62019240015E+01  0.89684225147E+01 -0.24067486455E+02  0.26422345997E+02  0.00000000000E+00 0.  1.
</event>
<event>
 7    1  0.2353206E-008  0.4614232E+02  0.7816164E-02  0.1320468E+00
        -11   -1    0    0    0    0  0.00000000000E+00  0.00000000000E+00  0.45593999997E+02  0.45594000000E+02  0.51100000000E-03 0. -1.
         11   -1    0    0    0    0 -0.00000000000E+00 -0.00000000000E+00 -0.45593999997E+02  0.45594000000E+02  0.51100000000E-03 0.  1.
    9900012    2    1    2    0    0  0.37457976443E+02 -0.24576713771E+02  0.46902670608E+01  0.46142318030E+02  0.10000002456E+02 0.  0.
         12    1    1    2    0    0 -0.37457976443E+02  0.24576713771E+02 -0.46902670608E+01  0.45045681970E+02  0.00000000000E+00 0. -1.
         11    1    3    3    0    0  0.13611291183E+02 -0.10744460415E+02  0.48613032487E+01  0.18009523781E+02  0.51100000000E-03 0. -1.
        -11    1    3    3    0    0  0.35434746650E+01 -0.39236410169E+01  0.14515884039E+01  0.54825432681E+01  0.51100000000E-03 0.  1.
         12    1    3    3    0    0  0.20303210595E+02 -0.99086123395E+01 -0.16226245917E+01  0.22650250982E+02  0.00000000000E+00 0. -1.
</event>
<event>
 7    1  0.2353206E-008  0.4614232E+02  0.7816164E-02  0.1320468E+00
        -11   -1    0    0    0    0  0.00000000000E+00  0.00000000000E+00  0.45593999997E+02  0.45594000000E+02  0.51100000000E-03 0.  1.
         11   -1    0    0    0    0 -0.00000000000E+00 -0.00000000000E+00 -0.45593999997E+02  0.45594000000E+02  0.51100000000E-03 0. -1.
    9900012    2    1    2    0    0 -0.23955422252E+02 -0.21852087034E+02  0.31268795500E+02  0.46142317243E+02  0.99999952769E+01 0.  0.
         12    1    1    2    0    0  0.23955422252E+02  0.21852087034E+02 -0.31268795500E+02  0.45045682757E+02  0.00000000000E+00 0. -1.
         11    1    3    3    0    0 -0.27957318230E+01 -0.41139685349E+01  0.10044176630E+01  0.50744170734E+01  0.51100000000E-03 0. -1.
        -11    1    3    3    0    0 -0.11559314120E+02 -0.80162506569E+01  0.14392549874E+02  0.20125195891E+02  0.51100000000E-03 0.  1.
        -12    1    3    3    0    0 -0.96003763091E+01 -0.97218678425E+01  0.15871827963E+02  0.20942704279E+02  0.00000000000E+00 0.  1.
</event>
<event>
 7    1  0.2353206E-008  0.4614232E+02  0.7816164E-02  0.1320468E+00
        -11   -1    0    0    0    0  0.00000000000E+00  0.00000000000E+00  0.45593999997E+02  0.45594000000E+02  0.51100000000E-03 0.  1.
         11   -1    0    0    0    0 -0.00000000000E+00 -0.00000000000E+00 -0.45593999997E+02  0.45594000000E+02  0.51100000000E-03 0. -1.
    9900012    2    1    2    0    0  0.32231281007E+02  0.22517733056E+02  0.21982029268E+02  0.46142318874E+02  0.10000010151E+02 0.  0.
         12    1    1    2    0    0 -0.32231281007E+02 -0.22517733056E+02 -0.21982029268E+02  0.45045681126E+02  0.00000000000E+00 0. -1.
         11    1    3    3    0    0  0.27560373953E+01  0.47186200584E+01  0.43993397342E+01  0.70153622670E+01  0.51100000000E-03 0. -1.
        -11    1    3    3    0    0  0.17318967841E+02  0.96556713774E+01  0.68414839144E+01  0.20975808429E+02  0.51100000000E-03 0.  1.
        -12    1    3    3    0    0  0.12156275771E+02  0.81434416203E+01  0.10741205619E+02  0.18151148178E+02  0.00000000000E+00 0.  1.
</event>
<event>
 7    1  0.2353206E-008  0.4614232E+02  0.7816164E-02  0.1320468E+00
        -11   -1    0    0    0    0  0.00000000000E+00  0.00000000000E+00  0.45593999997E+02  0.45594000000E+02  0.51100000000E-03 0. -1.
         11   -1    0    0    0    0 -0.00000000000E+00 -0.00000000000E+00 -0.45593999997E+02  0.45594000000E+02  0.51100000000E-03 0.  1.
    9900012    2    1    2    0    0 -0.33848173493E+02  0.25808743547E+02 -0.14741890474E+02  0.46142318442E+02  0.10000006207E+02 0.  0.
         12    1    1    2    0    0  0.33848173493E+02 -0.25808743547E+02  0.14741890474E+02  0.45045681558E+02  0.00000000000E+00 0. -1.
         11    1    3    3    0    0 -0.18418977221E+02  0.17554443057E+02 -0.10722737506E+02  0.27611488421E+02  0.51100000000E-03 0. -1.
        -11    1    3    3    0    0 -0.14314723980E+02  0.75973390828E+01 -0.49408964011E+01  0.16942353475E+02  0.51100000000E-03 0.  1.
        -12    1    3    3    0    0 -0.11144722923E+01  0.65696140733E+00  0.92174343382E+00  0.15884765465E+01  0.00000000000E+00 0.  1.
</event>
<event>
 7    1  0.2353206E-008  0.4614232E+02  0.7816164E-02  0.1320468E+00
        -11   -1    0    0    0    0  0.00000000000E+00  0.00000000000E+00  0.45593999997E+02  0.45594000000E+02  0.51100000000E-03 0.  1.
         11   -1    0    0    0    0 -0.00000000000E+00 -0.00000000000E+00 -0.45593999997E+02  0.45594000000E+02  0.51100000000E-03 0. -1.
    9900012    2    1    2    0    0  0.35027351567E+02 -0.24600958525E+02  0.14035345245E+02  0.46142318361E+02  0.10000005474E+02 0.  0.
         12    1    1    2    0    0 -0.35027351567E+02  0.24600958525E+02 -0.14035345245E+02  0.45045681639E+02  0.00000000000E+00 0. -1.
         11    1    3    3    0    0  0.22758683377E+00 -0.60868020408E+00 -0.74141209348E-01  0.65405239682E+00  0.51100000000E-03 0. -1.
        -11    1    3    3    0    0  0.29359119822E+02 -0.19255673003E+02  0.79417266620E+01  0.35997359378E+02  0.51100000000E-03 0.  1.
         12    1    3    3    0    0  0.54406449113E+01 -0.47366053172E+01  0.61677597923E+01  0.94909065867E+01  0.00000000000E+00 0. -1.
</event>
<event>
 7    1  0.2353206E-008  0.4614232E+02  0.7816164E-02  0.1320468E+00
        -11   -1    0    0    0    0  0.00000000000E+00  0.00000000000E+00  0.45593999997E+02  0.45594000000E+02  0.51100000000E-03 0.  1.
         11   -1    0    0    0    0 -0.00000000000E+00 -0.00000000000E+00 -0.45593999997E+02  0.45594000000E+02  0.51100000000E-03 0. -1.
    9900012    2    1    2    0    0 -0.32560161727E+02  0.22698832828E+02  0.21300519466E+02  0.46142320152E+02  0.10000021802E+02 0.  0.
         12    1    1    2    0    0  0.32560161727E+02 -0.22698832828E+02 -0.21300519466E+02  0.45045679848E+02  0.00000000000E+00 0. -1.
         11    1    3    3    0    0 -0.24917725612E+00  0.21575887183E-02  0.84694894145E-01  0.26318709386E+00  0.51100000000E-03 0. -1.
        -11    1    3    3    0    0 -0.91925462803E+01  0.32841458624E+01  0.16366050038E+01  0.98978279112E+01  0.51100000000E-03 0.  1.
        -12    1    3    3    0    0 -0.23118438191E+02  0.19412529377E+02  0.19579219568E+02  0.35981305147E+02  0.00000000000E+00 0.  1.
</event>
<event>
 7    1  0.2353206E-008  0.4614232E+02  0.7816164E-02  0.1320468E+00
        -11   -1    0    0    0    0  0.00000000000E+00  0.00000000000E+00  0.45593999997E+02  0.45594000000E+02  0.51100000000E-03 0.  1.
         11   -1    0    0    0    0 -0.00000000000E+00 -0.00000000000E+00 -0.45593999997E+02  0.45594000000E+02  0.51100000000E-03 0. -1.
    9900012    2    1    2    0    0  0.52555851907E+01  0.10463593687E+01  0.44725803099E+02  0.46142317560E+02  0.99999981629E+01 0.  0.
         12    1    1    2    0    0 -0.52555851907E+01 -0.10463593687E+01 -0.44725803099E+02  0.45045682440E+02  0.00000000000E+00 0. -1.
         11    1    3    3    0    0  0.11748434675E+01 -0.69131004352E+00  0.19347761558E+01  0.23667542719E+01  0.51100000000E-03 0. -1.
        -11    1    3    3    0    0  0.59981213271E+00 -0.29911537614E+01  0.97266132421E+01  0.10193810909E+02  0.51100000000E-03 0.  1.
        -12    1    3    3    0    0  0.34809295905E+01  0.47288231737E+01  0.33064413702E+02  0.33581752379E+02  0.00000000000E+00 0.  1.
</event>
<event>
 7    1  0.2353206E-008  0.4614232E+02  0.7816164E-02  0.1320468E+00
        -11   -1    0    0    0    0  0.00000000000E+00  0.00000000000E+00  0.45593999997E+02  0.45594000000E+02  0.51100000000E-03 0.  1.
         11   -1    0    0    0    0 -0.00000000000E+00 -0.00000000000E+00 -0.45593999997E+02  0.45594000000E+02  0.51100000000E-03 0. -1.
    9900012    2    1    2    0    0 -0.36066266190E+02 -0.26934649695E+02  0.16918273422E+01  0.46142321064E+02  0.10000030114E+02 0.  0.
         12    1    1    2    0    0  0.36066266190E+02  0.26934649695E+02 -0.16918273422E+01  0.45045678936E+02  0.00000000000E+00 0. -1.
         11    1    3    3    0    0 -0.43625792711E+01 -0.12148159911E+01  0.92749019671E+00  0.46225657502E+01  0.51100000000E-03 0. -1.
        -11    1    3    3    0    0 -0.12981925217E+02 -0.14483465915E+02  0.25291249489E+01  0.19613710524E+02  0.51100000000E-03 0.  1.
         12    1    3    3    0    0 -0.18721761703E+02 -0.11236367789E+02 -0.17647878034E+01  0.21906044789E+02  0.00000000000E+00 0. -1.
</event>
<event>
 7    1  0.2353206E-008  0.4614232E+02  0.7816164E-02  0.1320468E+00
        -11   -1    0    0    0    0  0.00000000000E+00  0.00000000000E+00  0.45593999997E+02  0.45594000000E+02  0.51100000000E-03 0.  1.
         11   -1    0    0    0    0 -0.00000000000E+00 -0.00000000000E+00 -0.45593999997E+02  0.45594000000E+02  0.51100000000E-03 0. -1.
    9900012    2    1    2    0    0  0.57464086008E+01  0.44597096932E+02 -0.26816465987E+01  0.46142317687E+02  0.99999993222E+01 0.  0.
         12    1    1    2    0    0 -0.57464086008E+01 -0.44597096932E+02  0.26816465987E+01  0.45045682313E+02  0.00000000000E+00 0. -1.
         11    1    3    3    0    0  0.93906879529E+00  0.12194736302E+00 -0.32426586780E+00  0.10009345512E+01  0.51100000000E-03 0. -1.
        -11    1    3    3    0    0  0.33681042030E+01  0.13876882321E+02  0.10610102569E+01  0.14319138658E+02  0.51100000000E-03 0.  1.
        -12    1    3    3    0    0  0.14392356025E+01  0.30598267248E+02 -0.34183909878E+01  0.30822244478E+02  0.00000000000E+00 0.  1.
</event>
<event>
 7    1  0.2353206E-008  0.4614232E+02  0.7816164E-02  0.1320468E+00
        -11   -1    0    0    0    0  0.00000000000E+00  0.00000000000E+00  0.45593999997E+02  0.45594000000E+02  0.51100000000E-03 0.  1.
         11   -1    0    0    0    0 -0.00000000000E+00 -0.00000000000E+00 -0.45593999997E+02  0.45594000000E+02  0.51100000000E-03 0. -1.
    9900012    2    1    2    0    0 -0.44864352134E+02  0.38453043505E+01  0.12316527258E+01  0.46142318449E+02  0.10000006271E+02 0.  0.
         12    1    1    2    0    0  0.44864352134E+02 -0.38453043505E+01 -0.12316527258E+01  0.45045681551E+02  0.00000000000E+00 0. -1.
         11    1    3    3    0    0 -0.10570291833E+02  0.10476398846E+01  0.31938092305E+01  0.11091845492E+02  0.51100000000E-03 0. -1.
        -11    1    3    3    0    0 -0.16013681823E+02  0.11405057881E+01 -0.41042513489E+01  0.16570565421E+02  0.51100000000E-03 0.  1.
        -12    1    3    3    0    0 -0.18280378479E+02  0.16571586779E+01  0.21420948442E+01  0.18479907536E+02  0.00000000000E+00 0.  1.
</event>
<event>
 7    1  0.2353206E-008  0.4614232E+02  0.7816164E-02  0.1320468E+00
        -11   -1    0    0    0    0  0.00000000000E+00  0.00000000000E+00  0.45593999997E+02  0.45594000000E+02  0.51100000000E-03 0.  1.
         11   -1    0    0    0    0 -0.00000000000E+00 -0.00000000000E+00 -0.45593999997E+02  0.45594000000E+02  0.51100000000E-03 0. -1.
    9900012    2    1    2    0    0  0.27315953443E+02  0.17728113300E+02  0.31123403387E+02  0.46142317054E+02  0.99999935532E+01 0.  0.
         12    1    1    2    0    0 -0.27315953443E+02 -0.17728113300E+02 -0.31123403387E+02  0.45045682946E+02  0.00000000000E+00 0. -1.
         11    1    3    3    0    0  0.75610902900E+01  0.90486573463E+01  0.13045926139E+02  0.17585348311E+02  0.51100000000E-03 0. -1.
        -11    1    3    3    0    0  0.18761401363E+02  0.89230565388E+01  0.18069660503E+02  0.27534047106E+02  0.51100000000E-03 0.  1.
        -12    1    3    3    0    0  0.99346179030E+00 -0.24360058471E+00  0.78167448810E-02  0.10229216369E+01  0.00000000000E+00 0.  1.
</event>
<event>
 7    1  0.2353206E-008  0.4614232E+02  0.7816164E-02  0.1320468E+00
        -11   -1    0    0    0    0  0.00000000000E+00  0.00000000000E+00  0.45593999997E+02  0.45594000000E+02  0.51100000000E-03 0.  1.
         11   -1    0    0    0    0 -0.00000000000E+00 -0.00000000000E+00 -0.45593999997E+02  0.45594000000E+02  0.51100000000E-03 0. -1.
    9900012    2    1    2    0    0  0.44223578843E+02  0.81259168994E+01 -0.27125736118E+01  0.46142317557E+02  0.99999981379E+01 0.  0.
         12    1    1    2    0    0 -0.44223578843E+02 -0.81259168994E+01  0.27125736118E+01  0.45045682443E+02  0.00000000000E+00 0. -1.
         11    1    3    3    0    0  0.32996539380E+02  0.92862005291E+01 -0.17250939124E+01  0.34321728986E+02  0.51100000000E-03 0.  1.
        -11    1    3    3    0    0  0.28888155223E+01  0.83527431339E+00  0.68768455935E+00  0.30847769149E+01  0.51100000000E-03 0. -1.
         12    1    3    3    0    0  0.83382239405E+01 -0.19955579431E+01 -0.16751642587E+01  0.87358116555E+01  0.00000000000E+00 0. -1.
</event>
<event>
 7    1  0.2353206E-008  0.4614232E+02  0.7816164E-02  0.1320468E+00
        -11   -1    0    0    0    0  0.00000000000E+00  0.00000000000E+00  0.45593999997E+02  0.45594000000E+02  0.51100000000E-03 0. -1.
         11   -1    0    0    0    0 -0.00000000000E+00 -0.00000000000E+00 -0.45593999997E+02  0.45594000000E+02  0.51100000000E-03 0.  1.
    9900012    2    1    2    0    0  0.44386186215E+02  0.75180063542E+01  0.15682392465E+01  0.46142319623E+02  0.10000016978E+02 0.  0.
         12    1    1    2    0    0 -0.44386186215E+02 -0.75180063542E+01 -0.15682392465E+01  0.45045680377E+02  0.00000000000E+00 0. -1.
         11    1    3    3    0    0  0.88680363917E+01 -0.14289068378E+00 -0.54860372564E+00  0.88861382783E+01  0.51100000000E-03 0. -1.
        -11    1    3    3    0    0  0.27802674753E+02  0.73325240805E+01  0.46541364864E+01  0.29127574899E+02  0.51100000000E-03 0.  1.
        -12    1    3    3    0    0  0.77154750710E+01  0.32837295746E+00 -0.25372935143E+01  0.81286064456E+01  0.00000000000E+00 0.  1.
</event>
<event>
 7    1  0.2353206E-008  0.4614232E+02  0.7816164E-02  0.1320468E+00
        -11   -1    0    0    0    0  0.00000000000E+00  0.00000000000E+00  0.45593999997E+02  0.45594000000E+02  0.51100000000E-03 0.  1.
         11   -1    0    0    0    0 -0.00000000000E+00 -0.00000000000E+00 -0.45593999997E+02  0.45594000000E+02  0.51100000000E-03 0. -1.
    9900012    2    1    2    0    0 -0.73803102250E+01  0.49138169318E+01  0.44164450657E+02  0.46142320100E+02  0.10000021328E+02 0.  0.
         12    1    1    2    0    0  0.73803102250E+01 -0.49138169318E+01 -0.44164450657E+02  0.45045679900E+02  0.00000000000E+00 0. -1.
         11    1    3    3    0    0  0.10856289071E+01  0.13394224996E+00  0.11923089397E+01  0.16180641270E+01  0.51100000000E-03 0. -1.
        -11    1    3    3    0    0 -0.49071523301E+01 -0.55795043917E+00  0.23806477643E+02  0.24313367325E+02  0.51100000000E-03 0.  1.
        -12    1    3    3    0    0 -0.35587868021E+01  0.53378251210E+01  0.19165664074E+02  0.20210888648E+02  0.00000000000E+00 0.  1.
</event>
<event>
 7    1  0.2353206E-008  0.4614232E+02  0.7816164E-02  0.1320468E+00
        -11   -1    0    0    0    0  0.00000000000E+00  0.00000000000E+00  0.45593999997E+02  0.45594000000E+02  0.51100000000E-03 0.  1.
         11   -1    0    0    0    0 -0.00000000000E+00 -0.00000000000E+00 -0.45593999997E+02  0.45594000000E+02  0.51100000000E-03 0. -1.
    9900012    2    1    2    0    0  0.22423567899E+02 -0.21482856880E+02  0.32631027495E+02  0.46142317716E+02  0.99999995875E+01 0.  0.
         12    1    1    2    0    0 -0.22423567899E+02  0.21482856880E+02 -0.32631027495E+02  0.45045682284E+02  0.00000000000E+00 0. -1.
         11    1    3    3    0    0  0.68264702806E+01 -0.28662414940E+01  0.52388906164E+01  0.90698407894E+01  0.51100000000E-03 0.  1.
        -11    1    3    3    0    0  0.52511954252E+01 -0.73323238110E+01  0.62632116409E+01  0.10980248002E+02  0.51100000000E-03 0. -1.
        -12    1    3    3    0    0  0.10345902193E+02 -0.11284291575E+02  0.21128925238E+02  0.26092228925E+02  0.00000000000E+00 0.  1.
</event>
<event>
 7    1  0.2353206E-008  0.4614232E+02  0.7816164E-02  0.1320468E+00
        -11   -1    0    0    0    0  0.00000000000E+00  0.00000000000E+00  0.45593999997E+02  0.45594000000E+02  0.51100000000E-03 0. -1.
         11   -1    0    0    0    0 -0.00000000000E+00 -0.00000000000E+00 -0.45593999997E+02  0.45594000000E+02  0.51100000000E-03 0.  1.
    9900012    2    1    2    0    0  0.20098384166E+02  0.40265993046E+02  0.19540862586E+01  0.46142315466E+02  0.99999790729E+01 0.  0.
         12    1    1    2    0    0 -0.20098384166E+02 -0.40265993046E+02 -0.19540862586E+01  0.45045684534E+02  0.00000000000E+00 0. -1.
         11    1    3    3    0    0  0.12629777194E+02  0.17879411495E+02  0.29442929915E+01  0.22087405661E+02  0.51100000000E-03 0. -1.
        -11    1    3    3    0    0  0.50189347890E+01  0.14149838838E+02 -0.28016766068E+01  0.15272754749E+02  0.51100000000E-03 0.  1.
         12    1    3    3    0    0  0.24496721829E+01  0.82367427131E+01  0.18114698739E+01  0.87821550561E+01  0.00000000000E+00 0. -1.
</event>
<event>
 7    1  0.2353206E-008  0.4614232E+02  0.7816164E-02  0.1320468E+00
        -11   -1    0    0    0    0  0.00000000000E+00  0.00000000000E+00  0.45593999997E+02  0.45594000000E+02  0.51100000000E-03 0.  1.
         11   -1    0    0    0    0 -0.00000000000E+00 -0.00000000000E+00 -0.45593999997E+02  0.45594000000E+02  0.51100000000E-03 0. -1.
    9900012    2    1    2    0    0  0.87944660423E+01  0.70597111924E+01  0.43611138049E+02  0.46142317443E+02  0.99999970993E+01 0.  0.
         12    1    1    2    0    0 -0.87944660423E+01 -0.70597111924E+01 -0.43611138049E+02  0.45045682557E+02  0.00000000000E+00 0. -1.
         11    1    3    3    0    0  0.13190252563E+01  0.52693433957E+01  0.18709563802E+02  0.19482135031E+02  0.51100000000E-03 0. -1.
        -11    1    3    3    0    0 -0.39162215221E+00 -0.95166815157E+00  0.14936220453E+01  0.18138211754E+01  0.51100000000E-03 0.  1.
        -12    1    3    3    0    0  0.78670629382E+01  0.27420359482E+01  0.23407952202E+02  0.24846361236E+02  0.00000000000E+00 0.  1.
</event>
<event>
 7    1  0.2353206E-008  0.4614232E+02  0.7816164E-02  0.1320468E+00
        -11   -1    0    0    0    0  0.00000000000E+00  0.00000000000E+00  0.45593999997E+02  0.45594000000E+02  0.51100000000E-03 0.  1.
         11   -1    0    0    0    0 -0.00000000000E+00 -0.00000000000E+00 -0.45593999997E+02  0.45594000000E+02  0.51100000000E-03 0. -1.
    9900012    2    1    2    0    0 -0.17765381275E+02  0.36865205653E+02  0.18827141091E+02  0.46142318727E+02  0.10000008810E+02 0.  0.
         12    1    1    2    0    0  0.17765381275E+02 -0.36865205653E+02 -0.18827141091E+02  0.45045681273E+02  0.00000000000E+00 0. -1.
         11    1    3    3    0    0 -0.19907025126E+01  0.10521712221E+02  0.39657444501E+01  0.11419126668E+02  0.51100000000E-03 0. -1.
        -11    1    3    3    0    0 -0.71539843411E+01  0.17654562641E+02  0.10344284802E+02  0.21676422729E+02  0.51100000000E-03 0.  1.
         12    1    3    3    0    0 -0.86206944216E+01  0.86889307907E+01  0.45171118391E+01  0.13046769331E+02  0.00000000000E+00 0. -1.
</event>
<event>
 7    1  0.2353206E-008  0.4614231E+02  0.7816164E-02  0.1320468E+00
        -11   -1    0    0    0    0  0.00000000000E+00  0.00000000000E+00  0.45593999997E+02  0.45594000000E+02  0.51100000000E-03 0.  1.
         11   -1    0    0    0    0 -0.00000000000E+00 -0.00000000000E+00 -0.45593999997E+02  0.45594000000E+02  0.51100000000E-03 0. -1.
    9900012    2    1    2    0    0  0.12243933792E+02 -0.15217830957E+02  0.40590857950E+02  0.46142311607E+02  0.99999438774E+01 0.  0.
         12    1    1    2    0    0 -0.12243933792E+02  0.15217830957E+02 -0.40590857950E+02  0.45045688393E+02  0.00000000000E+00 0. -1.
         11    1    3    3    0    0  0.46010280521E+01 -0.18135251779E+01  0.77315832331E+01  0.91780015395E+01  0.51100000000E-03 0. -1.
        -11    1    3    3    0    0 -0.67104214829E+00  0.38411160942E+00  0.96679331190E+00  0.12379534976E+01  0.51100000000E-03 0.  1.
        -12    1    3    3    0    0  0.83139478885E+01 -0.13788417389E+02  0.31892481405E+02  0.35726356569E+02  0.00000000000E+00 0.  1.
</event>
<event>
 7    1  0.2353206E-008  0.4614233E+02  0.7816164E-02  0.1320468E+00
        -11   -1    0    0    0    0  0.00000000000E+00  0.00000000000E+00  0.45593999997E+02  0.45594000000E+02  0.51100000000E-03 0.  1.
         11   -1    0    0    0    0 -0.00000000000E+00 -0.00000000000E+00 -0.45593999997E+02  0.45594000000E+02  0.51100000000E-03 0. -1.
    9900012    2    1    2    0    0  0.23881780412E+00  0.19534203988E+02  0.40589041148E+02  0.46142329612E+02  0.10000108066E+02 0.  0.
         12    1    1    2    0    0 -0.23881780412E+00 -0.19534203988E+02 -0.40589041148E+02  0.45045670388E+02  0.00000000000E+00 0. -1.
         11    1    3    3    0    0 -0.13878560011E+01  0.15274361119E+00  0.35716512638E+01  0.38348621751E+01  0.51100000000E-03 0. -1.
        -11    1    3    3    0    0  0.32277066360E+01  0.53256618720E+01  0.93651046749E+01  0.11246597278E+02  0.51100000000E-03 0.  1.
        -12    1    3    3    0    0 -0.16010328308E+01  0.14055798504E+02  0.27652285209E+02  0.31060870159E+02  0.00000000000E+00 0.  1.
</event>
<event>
 7    1  0.2353206E-008  0.4614232E+02  0.7816164E-02  0.1320468E+00
        -11   -1    0    0    0    0  0.00000000000E+00  0.00000000000E+00  0.45593999997E+02  0.45594000000E+02  0.51100000000E-03 0.  1.
         11   -1    0    0    0    0 -0.00000000000E+00 -0.00000000000E+00 -0.45593999997E+02  0.45594000000E+02  0.51100000000E-03 0. -1.
    9900012    2    1    2    0    0 -0.80313181368E+01 -0.68692078068E+01  0.43788416269E+02  0.46142317785E+02  0.10000000216E+02 0.  0.
         12    1    1    2    0    0  0.80313181368E+01  0.68692078068E+01 -0.43788416269E+02  0.45045682215E+02  0.00000000000E+00 0. -1.
         11    1    3    3    0    0 -0.23415700746E+01 -0.87804645924E+00  0.10966818719E+02  0.11248334502E+02  0.51100000000E-03 0. -1.
        -11    1    3    3    0    0 -0.10021362263E+01 -0.22219513573E+01  0.24527748629E+02  0.24648565839E+02  0.51100000000E-03 0.  1.
         12    1    3    3    0    0 -0.46876118358E+01 -0.37692099903E+01  0.82938489215E+01  0.10245417444E+02  0.00000000000E+00 0. -1.
</event>
<event>
 7    1  0.2353206E-008  0.4614232E+02  0.7816164E-02  0.1320468E+00
        -11   -1    0    0    0    0  0.00000000000E+00  0.00000000000E+00  0.45593999997E+02  0.45594000000E+02  0.51100000000E-03 0.  1.
         11   -1    0    0    0    0 -0.00000000000E+00 -0.00000000000E+00 -0.45593999997E+02  0.45594000000E+02  0.51100000000E-03 0. -1.
    9900012    2    1    2    0    0 -0.64763374148E+01 -0.33316924215E+02  0.29616770030E+02  0.46142318160E+02  0.10000003637E+02 0.  0.
         12    1    1    2    0    0  0.64763374148E+01  0.33316924215E+02 -0.29616770030E+02  0.45045681840E+02  0.00000000000E+00 0. -1.
         11    1    3    3    0    0 -0.42226872178E+01 -0.18606223933E+02  0.11346838034E+02  0.22198499725E+02  0.51100000000E-03 0.  1.
        -11    1    3    3    0    0  0.87989093984E+00 -0.86366667265E+00  0.20105043080E+01  0.23584435590E+01  0.51100000000E-03 0. -1.
        -12    1    3    3    0    0 -0.31335411368E+01 -0.13847033609E+02  0.16259427688E+02  0.21585374876E+02  0.00000000000E+00 0.  1.
</event>
<event>
 7    1  0.2353206E-008  0.4614232E+02  0.7816164E-02  0.1320468E+00
        -11   -1    0    0    0    0  0.00000000000E+00  0.00000000000E+00  0.45593999997E+02  0.45594000000E+02  0.51100000000E-03 0.  1.
         11   -1    0    0    0    0 -0.00000000000E+00 -0.00000000000E+00 -0.45593999997E+02  0.45594000000E+02  0.51100000000E-03 0. -1.
    9900012    2    1    2    0    0  0.26695352527E+02 -0.38659905062E+01  0.36076664644E+02  0.46142318065E+02  0.10000002767E+02 0.  0.
         12    1    1    2    0    0 -0.26695352527E+02  0.38659905062E+01 -0.36076664644E+02  0.45045681935E+02  0.00000000000E+00 0. -1.
         11    1    3    3    0    0  0.69238525271E+01 -0.30642258707E+01  0.13527704573E+02  0.15502516095E+02  0.51100000000E-03 0. -1.
        -11    1    3    3    0    0  0.18867708467E+02 -0.14798585090E+01  0.22637373726E+02  0.29506458505E+02  0.51100000000E-03 0.  1.
         12    1    3    3    0    0  0.90379153296E+00  0.67809387347E+00 -0.88413653778E-01  0.11333434654E+01  0.00000000000E+00 0. -1.
</event>
<event>
 7    1  0.2353206E-008  0.4614232E+02  0.7816164E-02  0.1320468E+00
        -11   -1    0    0    0    0  0.00000000000E+00  0.00000000000E+00  0.45593999997E+02  0.45594000000E+02  0.51100000000E-03 0. -1.
         11   -1    0    0    0    0 -0.00000000000E+00 -0.00000000000E+00 -0.45593999997E+02  0.45594000000E+02  0.51100000000E-03 0.  1.
    9900012    2    1    2    0    0  0.38428524515E+02 -0.12771089893E+02 -0.19729708167E+02  0.46142316324E+02  0.99999868953E+01 0.  0.
         12    1    1    2    0    0 -0.38428524515E+02  0.12771089893E+02  0.19729708167E+02  0.45045683676E+02  0.00000000000E+00 0. -1.
         11    1    3    3    0    0  0.24952191428E+02 -0.12968935621E+02 -0.12716958318E+02  0.30863022816E+02  0.51100000000E-03 0. -1.
        -11    1    3    3    0    0  0.25477586599E+01  0.62648801671E+00 -0.16382366990E+01  0.30931183565E+01  0.51100000000E-03 0.  1.
         12    1    3    3    0    0  0.10928574427E+02 -0.42864228844E+00 -0.53745131498E+01  0.12186175151E+02  0.00000000000E+00 0. -1.
</event>
<event>
 7    1  0.2353206E-008  0.4614232E+02  0.7816164E-02  0.1320468E+00
        -11   -1    0    0    0    0  0.00000000000E+00  0.00000000000E+00  0.45593999997E+02  0.45594000000E+02  0.51100000000E-03 0.  1.
         11   -1    0    0    0    0 -0.00000000000E+00 -0.00000000000E+00 -0.45593999997E+02  0.45594000000E+02  0.51100000000E-03 0. -1.
    9900012    2    1    2    0    0 -0.28051895505E+00 -0.44631720454E+02  0.60864205270E+01  0.46142315674E+02  0.99999809715E+01 0.  0.
         12    1    1    2    0    0  0.28051895505E+00  0.44631720454E+02 -0.60864205270E+01  0.45045684326E+02  0.00000000000E+00 0. -1.
         11    1    3    3    0    0 -0.13636592877E+01 -0.14583454197E+01 -0.32632586999E+00  0.20230736147E+01  0.51100000000E-03 0. -1.
        -11    1    3    3    0    0 -0.26151430644E+01 -0.20004658570E+02  0.24116991565E+01  0.20318504640E+02  0.51100000000E-03 0.  1.
        -12    1    3    3    0    0  0.36982833970E+01 -0.23168716464E+02  0.40010472405E+01  0.23800737420E+02  0.00000000000E+00 0.  1.
</event>
<event>
 7    1  0.2353206E-008  0.4614232E+02  0.7816164E-02  0.1320468E+00
        -11   -1    0    0    0    0  0.00000000000E+00  0.00000000000E+00  0.45593999997E+02  0.45594000000E+02  0.51100000000E-03 0.  1.
         11   -1    0    0    0    0 -0.00000000000E+00 -0.00000000000E+00 -0.45593999997E+02  0.45594000000E+02  0.51100000000E-03 0. -1.
    9900012    2    1    2    0    0  0.10490465138E+02  0.85264752987E+01  0.42969324460E+02  0.46142317805E+02  0.10000000401E+02 0.  0.
         12    1    1    2    0    0 -0.10490465138E+02 -0.85264752987E+01 -0.42969324460E+02  0.45045682195E+02  0.00000000000E+00 0. -1.
         11    1    3    3    0    0  0.66509946411E+01  0.32803726544E+01  0.16902104384E+02  0.18457456686E+02  0.51100000000E-03 0. -1.
        -11    1    3    3    0    0  0.23292261369E+01  0.65520053289E+01  0.22973547921E+02  0.24002874256E+02  0.51100000000E-03 0.  1.
         12    1    3    3    0    0  0.15102443602E+01 -0.13059026846E+01  0.30936721556E+01  0.36819868625E+01  0.00000000000E+00 0. -1.
</event>
<event>
 7    1  0.2353206E-008  0.4614233E+02  0.7816164E-02  0.1320468E+00
        -11   -1    0    0    0    0  0.00000000000E+00  0.00000000000E+00  0.45593999997E+02  0.45594000000E+02  0.51100000000E-03 0. -1.
         11   -1    0    0    0    0 -0.00000000000E+00 -0.00000000000E+00 -0.45593999997E+02  0.45594000000E+02  0.51100000000E-03 0.  1.
    9900012    2    1    2    0    0 -0.12624668305E+02 -0.31184416000E+02 -0.29954341813E+02  0.46142327127E+02  0.10000085409E+02 0.  0.
         12    1    1    2    0    0  0.12624668305E+02  0.31184416000E+02  0.29954341813E+02  0.45045672873E+02  0.00000000000E+00 0. -1.
         11    1    3    3    0    0 -0.89498067693E+00 -0.64105193594E+01 -0.35748944025E+01  0.73942963911E+01  0.51100000000E-03 0. -1.
        -11    1    3    3    0    0 -0.10217297632E+02 -0.15216583231E+02 -0.14159350614E+02  0.23160845974E+02  0.51100000000E-03 0.  1.
        -12    1    3    3    0    0 -0.15123899960E+01 -0.95573134097E+01 -0.12220096797E+02  0.15587184763E+02  0.00000000000E+00 0.  1.
</event>
<event>
 7    1  0.2353206E-008  0.4614232E+02  0.7816164E-02  0.1320468E+00
        -11   -1    0    0    0    0  0.00000000000E+00  0.00000000000E+00  0.45593999997E+02  0.45594000000E+02  0.51100000000E-03 0.  1.
         11   -1    0    0    0    0 -0.00000000000E+00 -0.00000000000E+00 -0.45593999997E+02  0.45594000000E+02  0.51100000000E-03 0. -1.
    9900012    2    1    2    0    0 -0.25955715194E+02  0.36424774631E+01  0.36635320104E+02  0.46142317939E+02  0.10000001618E+02 0.  0.
         12    1    1    2    0    0  0.25955715194E+02 -0.36424774631E+01 -0.36635320104E+02  0.45045682061E+02  0.00000000000E+00 0. -1.
         11    1    3    3    0    0 -0.13354137212E+02 -0.17900130551E+00  0.22409971826E+02  0.26087772225E+02  0.51100000000E-03 0. -1.
        -11    1    3    3    0    0 -0.79188625112E+01  0.59019594806E-01  0.63549465379E+01  0.10153679754E+02  0.51100000000E-03 0.  1.
         12    1    3    3    0    0 -0.46827154701E+01  0.37624591738E+01  0.78704017397E+01  0.99008659597E+01  0.00000000000E+00 0. -1.
</event>
<event>
 7    1  0.2353206E-008  0.4614232E+02  0.7816164E-02  0.1320468E+00
        -11   -1    0    0    0    0  0.00000000000E+00  0.00000000000E+00  0.45593999997E+02  0.45594000000E+02  0.51100000000E-03 0. -1.
         11   -1    0    0    0    0 -0.00000000000E+00 -0.00000000000E+00 -0.45593999997E+02  0.45594000000E+02  0.51100000000E-03 0.  1.
    9900012    2    1    2    0    0 -0.14922339132E+02 -0.36904630743E+02 -0.21082819444E+02  0.46142320395E+02  0.10000024015E+02 0.  0.
         12    1    1    2    0    0  0.14922339132E+02  0.36904630743E+02  0.21082819444E+02  0.45045679605E+02  0.00000000000E+00 0. -1.
         11    1    3    3    0    0 -0.45143987780E+01 -0.14668236134E+02 -0.95012450382E+01  0.18050224518E+02  0.51100000000E-03 0. -1.
        -11    1    3    3    0    0 -0.11539624637E+02 -0.20266712326E+02 -0.10588922357E+02  0.25613040472E+02  0.51100000000E-03 0.  1.
        -12    1    3    3    0    0  0.11316842832E+01 -0.19696822832E+01 -0.99265204798E+00  0.24790554052E+01  0.00000000000E+00 0.  1.
</event>
<event>
 7    1  0.2353206E-008  0.4614232E+02  0.7816164E-02  0.1320468E+00
        -11   -1    0    0    0    0  0.00000000000E+00  0.00000000000E+00  0.45593999997E+02  0.45594000000E+02  0.51100000000E-03 0. -1.
         11   -1    0    0    0    0 -0.00000000000E+00 -0.00000000000E+00 -0.45593999997E+02  0.45594000000E+02  0.51100000000E-03 0.  1.
    9900012    2    1    2    0    0 -0.29488921744E+02 -0.32279355973E+02 -0.10842514045E+02  0.46142318315E+02  0.10000005047E+02 0.  0.
         12    1    1    2    0    0  0.29488921744E+02  0.32279355973E+02  0.10842514045E+02  0.45045681685E+02  0.00000000000E+00 0. -1.
         11    1    3    3    0    0 -0.11355621520E+01 -0.31896844507E+01 -0.28737751701E+01  0.44409652425E+01  0.51100000000E-03 0. -1.
        -11    1    3    3    0    0 -0.18985458100E+02 -0.20054913868E+02 -0.77571775751E+01  0.28684856523E+02  0.51100000000E-03 0.  1.
        -12    1    3    3    0    0 -0.93679014920E+01 -0.90347576543E+01 -0.21156130029E+00  0.13016496549E+02  0.00000000000E+00 0.  1.
</event>
<event>
 7    1  0.2353206E-008  0.4614232E+02  0.7816164E-02  0.1320468E+00
        -11   -1    0    0    0    0  0.00000000000E+00  0.00000000000E+00  0.45593999997E+02  0.45594000000E+02  0.51100000000E-03 0. -1.
         11   -1    0    0    0    0 -0.00000000000E+00 -0.00000000000E+00 -0.45593999997E+02  0.45594000000E+02  0.51100000000E-03 0.  1.
    9900012    2    1    2    0    0  0.10109225477E+02 -0.19782153275E+02 -0.39186520939E+02  0.46142318173E+02  0.10000003753E+02 0.  0.
         12    1    1    2    0    0 -0.10109225477E+02  0.19782153275E+02  0.39186520939E+02  0.45045681827E+02  0.00000000000E+00 0. -1.
         11    1    3    3    0    0  0.78682569563E-01 -0.21480309007E+01 -0.96271626136E+01  0.98642023472E+01  0.51100000000E-03 0. -1.
        -11    1    3    3    0    0  0.59639412506E+01 -0.12307059853E+02 -0.23763027274E+02  0.27417399274E+02  0.51100000000E-03 0.  1.
        -12    1    3    3    0    0  0.40666016571E+01 -0.53270625214E+01 -0.57963310522E+01  0.88607165518E+01  0.00000000000E+00 0.  1.
</event>
<event>
 7    1  0.2353206E-008  0.4614232E+02  0.7816164E-02  0.1320468E+00
        -11   -1    0    0    0    0  0.00000000000E+00  0.00000000000E+00  0.45593999997E+02  0.45594000000E+02  0.51100000000E-03 0.  1.
         11   -1    0    0    0    0 -0.00000000000E+00 -0.00000000000E+00 -0.45593999997E+02  0.45594000000E+02  0.51100000000E-03 0. -1.
    9900012    2    1    2    0    0 -0.51503738991E+01 -0.39387155472E+02  0.21242388974E+02  0.46142318111E+02  0.10000003194E+02 0.  0.
         12    1    1    2    0    0  0.51503738991E+01  0.39387155472E+02 -0.21242388974E+02  0.45045681889E+02  0.00000000000E+00 0. -1.
         11    1    3    3    0    0 -0.21606268160E+00 -0.11882389041E+02  0.32348559318E+01  0.12316742490E+02  0.51100000000E-03 0. -1.
        -11    1    3    3    0    0  0.13487477879E+01 -0.71100487502E+01  0.55011807942E+01  0.90903742617E+01  0.51100000000E-03 0.  1.
        -12    1    3    3    0    0 -0.62830590055E+01 -0.20394717681E+02  0.12506352248E+02  0.24735201360E+02  0.00000000000E+00 0.  1.
</event>
<event>
 7    1  0.2353206E-008  0.4614232E+02  0.7816164E-02  0.1320468E+00
        -11   -1    0    0    0    0  0.00000000000E+00  0.00000000000E+00  0.45593999997E+02  0.45594000000E+02  0.51100000000E-03 0.  1.
         11   -1    0    0    0    0 -0.00000000000E+00 -0.00000000000E+00 -0.45593999997E+02  0.45594000000E+02  0.51100000000E-03 0. -1.
    9900012    2    1    2    0    0 -0.24398957782E+02  0.12636416919E+02  0.35694892036E+02  0.46142317734E+02  0.99999997529E+01 0.  0.
         12    1    1    2    0    0  0.24398957782E+02 -0.12636416919E+02 -0.35694892036E+02  0.45045682266E+02  0.00000000000E+00 0. -1.
         11    1    3    3    0    0 -0.12472581914E+02  0.60037663006E+01  0.13175453735E+02  0.19110287564E+02  0.51100000000E-03 0. -1.
        -11    1    3    3    0    0 -0.92266250607E+01  0.17749949543E+01  0.14211764792E+02  0.17036885744E+02  0.51100000000E-03 0.  1.
         12    1    3    3    0    0 -0.26997508074E+01  0.48576556642E+01  0.83076735089E+01  0.99951444264E+01  0.00000000000E+00 0. -1.
</event>
<event>
 7    1  0.2353206E-008  0.4614232E+02  0.7816164E-02  0.1320468E+00
        -11   -1    0    0    0    0  0.00000000000E+00  0.00000000000E+00  0.45593999997E+02  0.45594000000E+02  0.51100000000E-03 0.  1.
         11   -1    0    0    0    0 -0.00000000000E+00 -0.00000000000E+00 -0.45593999997E+02  0.45594000000E+02  0.51100000000E-03 0. -1.
    9900012    2    1    2    0    0  0.17857866944E+02  0.88814992226E+01  0.40389715227E+02  0.46142317229E+02  0.99999951456E+01 0.  0.
         12    1    1    2    0    0 -0.17857866944E+02 -0.88814992226E+01 -0.40389715227E+02  0.45045682771E+02  0.00000000000E+00 0. -1.
         11    1    3    3    0    0  0.35151774784E+01  0.24853502808E+00  0.65890161869E+01  0.74721735082E+01  0.51100000000E-03 0. -1.
        -11    1    3    3    0    0  0.72296921940E+01  0.59653328095E+01  0.26599700018E+02  0.28202795713E+02  0.51100000000E-03 0.  1.
        -12    1    3    3    0    0  0.71129972712E+01  0.26676313850E+01  0.72009990222E+01  0.10467348007E+02  0.00000000000E+00 0.  1.
</event>
<event>
 7    1  0.2353206E-008  0.4614232E+02  0.7816164E-02  0.1320468E+00
        -11   -1    0    0    0    0  0.00000000000E+00  0.00000000000E+00  0.45593999997E+02  0.45594000000E+02  0.51100000000E-03 0.  1.
         11   -1    0    0    0    0 -0.00000000000E+00 -0.00000000000E+00 -0.45593999997E+02  0.45594000000E+02  0.51100000000E-03 0. -1.
    9900012    2    1    2    0    0  0.29196668400E+02  0.12714487638E+02  0.31859219548E+02  0.46142317502E+02  0.99999976332E+01 0.  0.
         12    1    1    2    0    0 -0.29196668400E+02 -0.12714487638E+02 -0.31859219548E+02  0.45045682498E+02  0.00000000000E+00 0. -1.
         11    1    3    3    0    0  0.14840454666E+02  0.73776612318E+01  0.15393960990E+02  0.22619527298E+02  0.51100000000E-03 0. -1.
        -11    1    3    3    0    0  0.11132450279E+02  0.61112587818E+01  0.96707944045E+01  0.15962556117E+02  0.51100000000E-03 0.  1.
         12    1    3    3    0    0  0.32237634550E+01 -0.77443237592E+00  0.67944641530E+01  0.75602340866E+01  0.00000000000E+00 0. -1.
</event>
<event>
 7    1  0.2555191E-008  0.4614232E+02  0.7816164E-02  0.1320468E+00
        -11   -1    0    0    0    0  0.00000000000E+00  0.00000000000E+00  0.45593999997E+02  0.45594000000E+02  0.51100000000E-03 0.  1.
         11   -1    0    0    0    0 -0.00000000000E+00 -0.00000000000E+00 -0.45593999997E+02  0.45594000000E+02  0.51100000000E-03 0. -1.
    9900012    2    1    2    0    0  0.20305789824E+02  0.40208622736E+02 -0.23452673232E+00  0.46142318237E+02  0.10000004337E+02 0.  0.
         12    1    1    2    0    0 -0.20305789824E+02 -0.40208622736E+02  0.23452673232E+00  0.45045681763E+02  0.00000000000E+00 0. -1.
         11    1    3    3    0    0 -0.24750750348E+00 -0.15771845261E+00 -0.22323906545E+00  0.36874247930E+00  0.51100000000E-03 0. -1.
        -11    1    3    3    0    0 -0.57365490127E-01  0.35143641577E+01 -0.47657798240E+00  0.35469949347E+01  0.51100000000E-03 0.  1.
        -12    1    3    3    0    0  0.20610662818E+02  0.36851977031E+02  0.46529031552E+00  0.42226580823E+02  0.00000000000E+00 0.  1.
</event>
<event>
 7    1  0.2353206E-008  0.4614232E+02  0.7816164E-02  0.1320468E+00
        -11   -1    0    0    0    0  0.00000000000E+00  0.00000000000E+00  0.45593999997E+02  0.45594000000E+02  0.51100000000E-03 0.  1.
         11   -1    0    0    0    0 -0.00000000000E+00 -0.00000000000E+00 -0.45593999997E+02  0.45594000000E+02  0.51100000000E-03 0. -1.
    9900012    2    1    2    0    0  0.21219371752E+02 -0.81111429215E+01  0.38898086452E+02  0.46142317558E+02  0.99999981512E+01 0.  0.
         12    1    1    2    0    0 -0.21219371752E+02  0.81111429215E+01 -0.38898086452E+02  0.45045682442E+02  0.00000000000E+00 0. -1.
         11    1    3    3    0    0  0.27109774887E+00 -0.18714011342E+01  0.18068371762E+01  0.26153961529E+01  0.51100000000E-03 0. -1.
        -11    1    3    3    0    0  0.92722142516E+01 -0.10052712895E+01  0.10678795490E+02  0.14178194556E+02  0.51100000000E-03 0.  1.
         12    1    3    3    0    0  0.11676059751E+02 -0.52344704978E+01  0.26412453785E+02  0.29348726849E+02  0.00000000000E+00 0. -1.
</event>
<event>
 7    1  0.2353206E-008  0.4614232E+02  0.7816164E-02  0.1320468E+00
        -11   -1    0    0    0    0  0.00000000000E+00  0.00000000000E+00  0.45593999997E+02  0.45594000000E+02  0.51100000000E-03 0.  1.
         11   -1    0    0    0    0 -0.00000000000E+00 -0.00000000000E+00 -0.45593999997E+02  0.45594000000E+02  0.51100000000E-03 0. -1.
    9900012    2    1    2    0    0 -0.11152766726E+02  0.70737305830E+01  0.43066131566E+02  0.46142316988E+02  0.99999929476E+01 0.  0.
         12    1    1    2    0    0  0.11152766726E+02 -0.70737305830E+01 -0.43066131566E+02  0.45045683012E+02  0.00000000000E+00 0. -1.
         11    1    3    3    0    0 -0.43822240043E+01  0.52358957831E+01  0.17019586922E+02  0.18338070540E+02  0.51100000000E-03 0. -1.
        -11    1    3    3    0    0 -0.23539248148E+01  0.16278451442E+01  0.23627862527E+01  0.37112802352E+01  0.51100000000E-03 0.  1.
        -12    1    3    3    0    0 -0.44166179072E+01  0.20998965575E+00  0.23683758391E+02  0.24092966212E+02  0.00000000000E+00 0.  1.
</event>
<event>
 7    1  0.2353206E-008  0.4614232E+02  0.7816164E-02  0.1320468E+00
        -11   -1    0    0    0    0  0.00000000000E+00  0.00000000000E+00  0.45593999997E+02  0.45594000000E+02  0.51100000000E-03 0.  1.
         11   -1    0    0    0    0 -0.00000000000E+00 -0.00000000000E+00 -0.45593999997E+02  0.45594000000E+02  0.51100000000E-03 0. -1.
    9900012    2    1    2    0    0 -0.41992465781E+02 -0.16130803141E+02 -0.23544586513E+01  0.46142317988E+02  0.10000002070E+02 0.  0.
         12    1    1    2    0    0  0.41992465781E+02  0.16130803141E+02  0.23544586513E+01  0.45045682012E+02  0.00000000000E+00 0. -1.
         11    1    3    3    0    0 -0.20782485239E+02 -0.68264884415E+01 -0.45891705003E+01  0.22351132484E+02  0.51100000000E-03 0. -1.
        -11    1    3    3    0    0 -0.12214568299E+02 -0.76142466324E+01  0.10497105572E+00  0.14393868476E+02  0.51100000000E-03 0.  1.
        -12    1    3    3    0    0 -0.89954122427E+01 -0.16900680672E+01  0.21297407933E+01  0.93973170286E+01  0.00000000000E+00 0.  1.
</event>
<event>
 7    1  0.2353206E-008  0.4614232E+02  0.7816164E-02  0.1320468E+00
        -11   -1    0    0    0    0  0.00000000000E+00  0.00000000000E+00  0.45593999997E+02  0.45594000000E+02  0.51100000000E-03 0. -1.
         11   -1    0    0    0    0 -0.00000000000E+00 -0.00000000000E+00 -0.45593999997E+02  0.45594000000E+02  0.51100000000E-03 0.  1.
    9900012    2    1    2    0    0  0.12652536574E+02 -0.30386208154E+02 -0.30752314853E+02  0.46142321000E+02  0.10000029536E+02 0.  0.
         12    1    1    2    0    0 -0.12652536574E+02  0.30386208154E+02  0.30752314853E+02  0.45045679000E+02  0.00000000000E+00 0. -1.
         11    1    3    3    0    0  0.68132697347E+01 -0.21553153074E+02 -0.14886904003E+02  0.27066195945E+02  0.51100000000E-03 0.  1.
        -11    1    3    3    0    0  0.25310092545E+01 -0.38017313252E+01 -0.66138086149E+01  0.80375141412E+01  0.51100000000E-03 0. -1.
        -12    1    3    3    0    0  0.33082575845E+01 -0.50313237550E+01 -0.92516022356E+01  0.11038610913E+02  0.00000000000E+00 0.  1.
</event>
<event>
 7    1  0.2353206E-008  0.4614232E+02  0.7816164E-02  0.1320468E+00
        -11   -1    0    0    0    0  0.00000000000E+00  0.00000000000E+00  0.45593999997E+02  0.45594000000E+02  0.51100000000E-03 0.  1.
         11   -1    0    0    0    0 -0.00000000000E+00 -0.00000000000E+00 -0.45593999997E+02  0.45594000000E+02  0.51100000000E-03 0. -1.
    9900012    2    1    2    0    0 -0.68574910121E+01 -0.22765694362E+02  0.38259789189E+02  0.46142317726E+02  0.99999996755E+01 0.  0.
         12    1    1    2    0    0  0.68574910121E+01  0.22765694362E+02 -0.38259789189E+02  0.45045682274E+02  0.00000000000E+00 0. -1.
         11    1    3    3    0    0 -0.33747004643E+01 -0.10872629047E+02  0.22301910112E+02  0.25039525965E+02  0.51100000000E-03 0. -1.
        -11    1    3    3    0    0 -0.15608769573E+01 -0.41947372477E+01  0.10661593247E+02  0.11562946350E+02  0.51100000000E-03 0.  1.
         12    1    3    3    0    0 -0.19219135905E+01 -0.76983280672E+01  0.52962858299E+01  0.95398454113E+01  0.00000000000E+00 0. -1.
</event>
<event>
 7    1  0.2353206E-008  0.4614232E+02  0.7816164E-02  0.1320468E+00
        -11   -1    0    0    0    0  0.00000000000E+00  0.00000000000E+00  0.45593999997E+02  0.45594000000E+02  0.51100000000E-03 0. -1.
         11   -1    0    0    0    0 -0.00000000000E+00 -0.00000000000E+00 -0.45593999997E+02  0.45594000000E+02  0.51100000000E-03 0.  1.
    9900012    2    1    2    0    0  0.23878582061E+02 -0.27126437616E+02 -0.26890209063E+02  0.46142316051E+02  0.99999844019E+01 0.  0.
         12    1    1    2    0    0 -0.23878582061E+02  0.27126437616E+02  0.26890209063E+02  0.45045683949E+02  0.00000000000E+00 0. -1.
         11    1    3    3    0    0  0.97465894997E+01 -0.90813667811E+01 -0.55404544590E+01  0.14427884993E+02  0.51100000000E-03 0. -1.
        -11    1    3    3    0    0  0.11393890231E+02 -0.11803439391E+02 -0.12972773600E+02  0.20914941338E+02  0.51100000000E-03 0.  1.
        -12    1    3    3    0    0  0.27381023312E+01 -0.62416314437E+01 -0.83769810045E+01  0.10799489720E+02  0.00000000000E+00 0.  1.
</event>
<event>
 7    1  0.2353206E-008  0.4614232E+02  0.7816164E-02  0.1320468E+00
        -11   -1    0    0    0    0  0.00000000000E+00  0.00000000000E+00  0.45593999997E+02  0.45594000000E+02  0.51100000000E-03 0.  1.
         11   -1    0    0    0    0 -0.00000000000E+00 -0.00000000000E+00 -0.45593999997E+02  0.45594000000E+02  0.51100000000E-03 0. -1.
    9900012    2    1    2    0    0  0.27842538088E+02 -0.26408589997E+02  0.23590097926E+02  0.46142320152E+02  0.10000021800E+02 0.  0.
         12    1    1    2    0    0 -0.27842538088E+02  0.26408589997E+02 -0.23590097926E+02  0.45045679848E+02  0.00000000000E+00 0. -1.
         11    1    3    3    0    0  0.60410946954E+01 -0.83970309533E+01  0.41154858480E+01  0.11132932137E+02  0.51100000000E-03 0. -1.
        -11    1    3    3    0    0  0.14322856706E+02 -0.13458341105E+02  0.16796568442E+02  0.25853353384E+02  0.51100000000E-03 0.  1.
        -12    1    3    3    0    0  0.74785866871E+01 -0.45532179386E+01  0.26780436361E+01  0.91560346302E+01  0.00000000000E+00 0.  1.
</event>
<event>
 7    1  0.2353206E-008  0.4614233E+02  0.7816164E-02  0.1320468E+00
        -11   -1    0    0    0    0  0.00000000000E+00  0.00000000000E+00  0.45593999997E+02  0.45594000000E+02  0.51100000000E-03 0. -1.
         11   -1    0    0    0    0 -0.00000000000E+00 -0.00000000000E+00 -0.45593999997E+02  0.45594000000E+02  0.51100000000E-03 0.  1.
    9900012    2    1    2    0    0 -0.36800903509E+02  0.16640641207E+02 -0.19947315121E+02  0.46142325187E+02  0.10000067713E+02 0.  0.
         12    1    1    2    0    0  0.36800903509E+02 -0.16640641207E+02  0.19947315121E+02  0.45045674813E+02  0.00000000000E+00 0. -1.
         11    1    3    3    0    0 -0.20033302038E+02  0.96835508165E+01 -0.72336005821E+01  0.23397207624E+02  0.51100000000E-03 0. -1.
        -11    1    3    3    0    0 -0.34845229861E+01  0.24522592617E+01 -0.78548235915E+00  0.43327195530E+01  0.51100000000E-03 0.  1.
        -12    1    3    3    0    0 -0.13283078484E+02  0.45048311287E+01 -0.11928232180E+02  0.18412398010E+02  0.00000000000E+00 0.  1.
</event>
<event>
 7    1  0.2353206E-008  0.4614232E+02  0.7816164E-02  0.1320468E+00
        -11   -1    0    0    0    0  0.00000000000E+00  0.00000000000E+00  0.45593999997E+02  0.45594000000E+02  0.51100000000E-03 0.  1.
         11   -1    0    0    0    0 -0.00000000000E+00 -0.00000000000E+00 -0.45593999997E+02  0.45594000000E+02  0.51100000000E-03 0. -1.
    9900012    2    1    2    0    0 -0.39516286914E+02 -0.21294638450E+02 -0.37569864106E+01  0.46142317576E+02  0.99999983137E+01 0.  0.
         12    1    1    2    0    0  0.39516286914E+02  0.21294638450E+02  0.37569864106E+01  0.45045682424E+02  0.00000000000E+00 0. -1.
         11    1    3    3    0    0 -0.21260672922E+01 -0.25890116001E+01  0.11831143572E+01  0.35528725054E+01  0.51100000000E-03 0. -1.
        -11    1    3    3    0    0 -0.23126532020E+02 -0.12757492306E+02 -0.60480550152E+01  0.27095554302E+02  0.51100000000E-03 0.  1.
        -12    1    3    3    0    0 -0.14263687602E+02 -0.59481345442E+01  0.11079542475E+01  0.15493890769E+02  0.00000000000E+00 0.  1.
</event>
<event>
 7    1  0.2353206E-008  0.4614232E+02  0.7816164E-02  0.1320468E+00
        -11   -1    0    0    0    0  0.00000000000E+00  0.00000000000E+00  0.45593999997E+02  0.45594000000E+02  0.51100000000E-03 0. -1.
         11   -1    0    0    0    0 -0.00000000000E+00 -0.00000000000E+00 -0.45593999997E+02  0.45594000000E+02  0.51100000000E-03 0.  1.
    9900012    2    1    2    0    0  0.30643611071E+02 -0.32321417544E+02 -0.67385826141E+01  0.46142318441E+02  0.10000006196E+02 0.  0.
         12    1    1    2    0    0 -0.30643611071E+02  0.32321417544E+02  0.67385826141E+01  0.45045681559E+02  0.00000000000E+00 0. -1.
         11    1    3    3    0    0  0.71678850147E+01 -0.46738284819E+01 -0.19692665511E+01  0.87807322743E+01  0.51100000000E-03 0. -1.
        -11    1    3    3    0    0  0.51201146619E+01 -0.11533338124E+02 -0.20720666990E+01  0.12787764585E+02  0.51100000000E-03 0.  1.
        -12    1    3    3    0    0  0.18355611394E+02 -0.16114250938E+02 -0.26972493639E+01  0.24573821581E+02  0.00000000000E+00 0.  1.
</event>
<event>
 7    1  0.2353206E-008  0.4614232E+02  0.7816164E-02  0.1320468E+00
        -11   -1    0    0    0    0  0.00000000000E+00  0.00000000000E+00  0.45593999997E+02  0.45594000000E+02  0.51100000000E-03 0.  1.
         11   -1    0    0    0    0 -0.00000000000E+00 -0.00000000000E+00 -0.45593999997E+02  0.45594000000E+02  0.51100000000E-03 0. -1.
    9900012    2    1    2    0    0 -0.21071691570E+02 -0.35745063771E+02  0.17532476712E+02  0.46142317529E+02  0.99999978836E+01 0.  0.
         12    1    1    2    0    0  0.21071691570E+02  0.35745063771E+02 -0.17532476712E+02  0.45045682471E+02  0.00000000000E+00 0. -1.
         11    1    3    3    0    0  0.70750016346E+00 -0.17690906061E+01  0.23051351125E+01  0.29906330771E+01  0.51100000000E-03 0. -1.
        -11    1    3    3    0    0 -0.95970950758E+01 -0.15962797980E+02  0.73381882076E+01  0.20019094877E+02  0.51100000000E-03 0.  1.
         12    1    3    3    0    0 -0.12182096658E+02 -0.18013175185E+02  0.78891533923E+01  0.23132589575E+02  0.00000000000E+00 0. -1.
</event>
<event>
 7    1  0.2353206E-008  0.4614231E+02  0.7816164E-02  0.1320468E+00
        -11   -1    0    0    0    0  0.00000000000E+00  0.00000000000E+00  0.45593999997E+02  0.45594000000E+02  0.51100000000E-03 0.  1.
         11   -1    0    0    0    0 -0.00000000000E+00 -0.00000000000E+00 -0.45593999997E+02  0.45594000000E+02  0.51100000000E-03 0. -1.
    9900012    2    1    2    0    0 -0.34686469371E+02  0.17714407824E+02  0.22631012225E+02  0.46142310791E+02  0.99999364407E+01 0.  0.
         12    1    1    2    0    0  0.34686469371E+02 -0.17714407824E+02 -0.22631012225E+02  0.45045689209E+02  0.00000000000E+00 0. -1.
         11    1    3    3    0    0 -0.25959009682E+02  0.91061456912E+01  0.16173947837E+02  0.31912202398E+02  0.51100000000E-03 0. -1.
        -11    1    3    3    0    0 -0.40649788088E+01  0.33659598333E+01  0.45282972279E+01  0.69540789728E+01  0.51100000000E-03 0.  1.
        -12    1    3    3    0    0 -0.46624808807E+01  0.52423022996E+01  0.19287671598E+01  0.72760294200E+01  0.00000000000E+00 0.  1.
</event>
<event>
 7    1  0.2353206E-008  0.4614231E+02  0.7816164E-02  0.1320468E+00
        -11   -1    0    0    0    0  0.00000000000E+00  0.00000000000E+00  0.45593999997E+02  0.45594000000E+02  0.51100000000E-03 0.  1.
         11   -1    0    0    0    0 -0.00000000000E+00 -0.00000000000E+00 -0.45593999997E+02  0.45594000000E+02  0.51100000000E-03 0. -1.
    9900012    2    1    2    0    0  0.58052464398E+01  0.29471140149E+02  0.33568810790E+02  0.46142311574E+02  0.99999435800E+01 0.  0.
         12    1    1    2    0    0 -0.58052464398E+01 -0.29471140149E+02 -0.33568810790E+02  0.45045688426E+02  0.00000000000E+00 0. -1.
         11    1    3    3    0    0 -0.16831342627E+01  0.36013093909E+01  0.49406675854E+01  0.63413379287E+01  0.51100000000E-03 0. -1.
        -11    1    3    3    0    0  0.72901008939E+01  0.24929576488E+02  0.25009667294E+02  0.36057077160E+02  0.51100000000E-03 0.  1.
        -12    1    3    3    0    0  0.19827980861E+00  0.94025427055E+00  0.36184759108E+01  0.37438964854E+01  0.00000000000E+00 0.  1.
</event>
<event>
 7    1  0.2353206E-008  0.4614233E+02  0.7816164E-02  0.1320468E+00
        -11   -1    0    0    0    0  0.00000000000E+00  0.00000000000E+00  0.45593999997E+02  0.45594000000E+02  0.51100000000E-03 0.  1.
         11   -1    0    0    0    0 -0.00000000000E+00 -0.00000000000E+00 -0.45593999997E+02  0.45594000000E+02  0.51100000000E-03 0. -1.
    9900012    2    1    2    0    0  0.29378841481E+02  0.28246012858E+02  0.19187473920E+02  0.46142326239E+02  0.10000077307E+02 0.  0.
         12    1    1    2    0    0 -0.29378841481E+02 -0.28246012858E+02 -0.19187473920E+02  0.45045673761E+02  0.00000000000E+00 0. -1.
         11    1    3    3    0    0  0.11679802253E+02  0.10548009980E+02  0.66549822924E+01  0.17087044355E+02  0.51100000000E-03 0. -1.
        -11    1    3    3    0    0  0.90467394763E+01  0.12177865137E+02  0.39496382216E+01  0.15676209261E+02  0.51100000000E-03 0.  1.
        -12    1    3    3    0    0  0.86522997514E+01  0.55201377419E+01  0.85828534058E+01  0.13379072623E+02  0.00000000000E+00 0.  1.
</event>
<event>
 7    1  0.2353206E-008  0.4614232E+02  0.7816164E-02  0.1320468E+00
        -11   -1    0    0    0    0  0.00000000000E+00  0.00000000000E+00  0.45593999997E+02  0.45594000000E+02  0.51100000000E-03 0.  1.
         11   -1    0    0    0    0 -0.00000000000E+00 -0.00000000000E+00 -0.45593999997E+02  0.45594000000E+02  0.51100000000E-03 0. -1.
    9900012    2    1    2    0    0 -0.20492699209E+02 -0.35796752083E+02 -0.18104013755E+02  0.46142317691E+02  0.99999993652E+01 0.  0.
         12    1    1    2    0    0  0.20492699209E+02  0.35796752083E+02  0.18104013755E+02  0.45045682309E+02  0.00000000000E+00 0. -1.
         11    1    3    3    0    0 -0.16235006164E+01 -0.24310188028E+01  0.10917270941E+01  0.31204927464E+01  0.51100000000E-03 0. -1.
        -11    1    3    3    0    0 -0.13458634473E+02 -0.20380057215E+02 -0.11678260514E+02  0.27071448850E+02  0.51100000000E-03 0.  1.
         12    1    3    3    0    0 -0.54105641200E+01 -0.12985676066E+02 -0.75174803358E+01  0.15950376095E+02  0.00000000000E+00 0. -1.
</event>
<event>
 7    1  0.2353206E-008  0.4614232E+02  0.7816164E-02  0.1320468E+00
        -11   -1    0    0    0    0  0.00000000000E+00  0.00000000000E+00  0.45593999997E+02  0.45594000000E+02  0.51100000000E-03 0.  1.
         11   -1    0    0    0    0 -0.00000000000E+00 -0.00000000000E+00 -0.45593999997E+02  0.45594000000E+02  0.51100000000E-03 0. -1.
    9900012    2    1    2    0    0  0.22080789613E+01  0.18115712133E+02  0.41183235065E+02  0.46142317752E+02  0.99999999146E+01 0.  0.
         12    1    1    2    0    0 -0.22080789613E+01 -0.18115712133E+02 -0.41183235065E+02  0.45045682248E+02  0.00000000000E+00 0. -1.
         11    1    3    3    0    0 -0.10853463455E+01 -0.73826456222E+00  0.43284703593E+01  0.45231258181E+01  0.51100000000E-03 0. -1.
        -11    1    3    3    0    0  0.10608555796E+01  0.24598863443E+01  0.68459893263E+01  0.73514641742E+01  0.51100000000E-03 0.  1.
        -12    1    3    3    0    0  0.22325697273E+01  0.16394090351E+02  0.30008775379E+02  0.34267727759E+02  0.00000000000E+00 0.  1.
</event>
<event>
 7    1  0.2353206E-008  0.4614232E+02  0.7816164E-02  0.1320468E+00
        -11   -1    0    0    0    0  0.00000000000E+00  0.00000000000E+00  0.45593999997E+02  0.45594000000E+02  0.51100000000E-03 0.  1.
         11   -1    0    0    0    0 -0.00000000000E+00 -0.00000000000E+00 -0.45593999997E+02  0.45594000000E+02  0.51100000000E-03 0. -1.
    9900012    2    1    2    0    0  0.37548917035E+02 -0.65117980717E+01  0.24016426618E+02  0.46142318386E+02  0.10000005694E+02 0.  0.
         12    1    1    2    0    0 -0.37548917035E+02  0.65117980717E+01 -0.24016426618E+02  0.45045681614E+02  0.00000000000E+00 0. -1.
         11    1    3    3    0    0  0.61367861118E+01  0.53339477741E+00  0.46221726347E+01  0.77012423606E+01  0.51100000000E-03 0. -1.
        -11    1    3    3    0    0  0.23113767971E+02 -0.14065124722E+01  0.13646146717E+02  0.26878278732E+02  0.51100000000E-03 0.  1.
        -12    1    3    3    0    0  0.82983629519E+01 -0.56386803769E+01  0.57481072671E+01  0.11562797293E+02  0.00000000000E+00 0.  1.
</event>
<event>
 7    1  0.2353206E-008  0.4614232E+02  0.7816164E-02  0.1320468E+00
        -11   -1    0    0    0    0  0.00000000000E+00  0.00000000000E+00  0.45593999997E+02  0.45594000000E+02  0.51100000000E-03 0.  1.
         11   -1    0    0    0    0 -0.00000000000E+00 -0.00000000000E+00 -0.45593999997E+02  0.45594000000E+02  0.51100000000E-03 0. -1.
    9900012    2    1    2    0    0 -0.24092653222E+02 -0.20413179926E+02  0.32124128494E+02  0.46142317794E+02  0.10000000296E+02 0.  0.
         12    1    1    2    0    0  0.24092653222E+02  0.20413179926E+02 -0.32124128494E+02  0.45045682206E+02  0.00000000000E+00 0. -1.
         11    1    3    3    0    0 -0.51493627199E+01 -0.75876088764E+01  0.56364460440E+01  0.10763701461E+02  0.51100000000E-03 0. -1.
        -11    1    3    3    0    0 -0.13097472926E+02 -0.58331256020E+01  0.16012770865E+02  0.21493673078E+02  0.51100000000E-03 0.  1.
        -12    1    3    3    0    0 -0.58458175760E+01 -0.69924454476E+01  0.10474911585E+02  0.13884943254E+02  0.00000000000E+00 0.  1.
</event>
<event>
 7    1  0.2353206E-008  0.4614232E+02  0.7816164E-02  0.1320468E+00
        -11   -1    0    0    0    0  0.00000000000E+00  0.00000000000E+00  0.45593999997E+02  0.45594000000E+02  0.51100000000E-03 0. -1.
         11   -1    0    0    0    0 -0.00000000000E+00 -0.00000000000E+00 -0.45593999997E+02  0.45594000000E+02  0.51100000000E-03 0.  1.
    9900012    2    1    2    0    0  0.26991037866E+02 -0.34230798596E+01 -0.35900973826E+02  0.46142317383E+02  0.99999965499E+01 0.  0.
         12    1    1    2    0    0 -0.26991037866E+02  0.34230798596E+01  0.35900973826E+02  0.45045682617E+02  0.00000000000E+00 0. -1.
         11    1    3    3    0    0  0.15498481046E+02 -0.40844277028E+01 -0.14681498995E+02  0.21735498094E+02  0.51100000000E-03 0. -1.
        -11    1    3    3    0    0  0.11028305092E+01 -0.65514796811E+00 -0.96573785942E+00  0.16056474913E+01  0.51100000000E-03 0.  1.
        -12    1    3    3    0    0  0.10389726311E+02  0.13164958113E+01 -0.20253736971E+02  0.22801171798E+02  0.00000000000E+00 0.  1.
</event>
<event>
 7    1  0.2353206E-008  0.4614232E+02  0.7816164E-02  0.1320468E+00
        -11   -1    0    0    0    0  0.00000000000E+00  0.00000000000E+00  0.45593999997E+02  0.45594000000E+02  0.51100000000E-03 0.  1.
         11   -1    0    0    0    0 -0.00000000000E+00 -0.00000000000E+00 -0.45593999997E+02  0.45594000000E+02  0.51100000000E-03 0. -1.
    9900012    2    1    2    0    0 -0.17180566465E+00  0.41956065698E+02  0.16394277154E+02  0.46142319969E+02  0.10000020137E+02 0.  0.
         12    1    1    2    0    0  0.17180566465E+00 -0.41956065698E+02 -0.16394277154E+02  0.45045680031E+02  0.00000000000E+00 0. -1.
         11    1    3    3    0    0 -0.88267667828E+00  0.49744220228E+01  0.18563544284E+01  0.53823827998E+01  0.51100000000E-03 0. -1.
        -11    1    3    3    0    0 -0.84446683708E+00  0.30529659622E+02  0.15154676311E+02  0.34094537029E+02  0.51100000000E-03 0.  1.
         12    1    3    3    0    0  0.15553378507E+01  0.64519840524E+01 -0.61675358517E+00  0.66654001401E+01  0.00000000000E+00 0. -1.
</event>
<event>
 7    1  0.2353206E-008  0.4614232E+02  0.7816164E-02  0.1320468E+00
        -11   -1    0    0    0    0  0.00000000000E+00  0.00000000000E+00  0.45593999997E+02  0.45594000000E+02  0.51100000000E-03 0. -1.
         11   -1    0    0    0    0 -0.00000000000E+00 -0.00000000000E+00 -0.45593999997E+02  0.45594000000E+02  0.51100000000E-03 0.  1.
    9900012    2    1    2    0    0  0.42753632453E+02 -0.62939390982E+01 -0.12713249148E+02  0.46142318062E+02  0.10000002747E+02 0.  0.
         12    1    1    2    0    0 -0.42753632453E+02  0.62939390982E+01  0.12713249148E+02  0.45045681938E+02  0.00000000000E+00 0. -1.
         11    1    3    3    0    0  0.15471354813E+02 -0.32256124836E+01 -0.36793197424E+01  0.16226669087E+02  0.51100000000E-03 0. -1.
        -11    1    3    3    0    0  0.23051141205E+02 -0.53875393283E+01 -0.79365179938E+01  0.24967358871E+02  0.51100000000E-03 0.  1.
        -12    1    3    3    0    0  0.42311364357E+01  0.23192127137E+01 -0.10974114122E+01  0.49482901043E+01  0.00000000000E+00 0.  1.
</event>
<event>
 7    1  0.2353206E-008  0.4614232E+02  0.7816164E-02  0.1320468E+00
        -11   -1    0    0    0    0  0.00000000000E+00  0.00000000000E+00  0.45593999997E+02  0.45594000000E+02  0.51100000000E-03 0.  1.
         11   -1    0    0    0    0 -0.00000000000E+00 -0.00000000000E+00 -0.45593999997E+02  0.45594000000E+02  0.51100000000E-03 0. -1.
    9900012    2    1    2    0    0  0.25862479979E+02 -0.34016231971E+02  0.14252771585E+02  0.46142318675E+02  0.10000008333E+02 0.  0.
         12    1    1    2    0    0 -0.25862479979E+02  0.34016231971E+02 -0.14252771585E+02  0.45045681325E+02  0.00000000000E+00 0. -1.
         11    1    3    3    0    0 -0.85240012043E-02 -0.46486342400E+01  0.90956703614E+00  0.47367906234E+01  0.51100000000E-03 0. -1.
        -11    1    3    3    0    0  0.78886511319E+01 -0.75170952833E+01  0.35536431211E+01  0.11461497192E+02  0.51100000000E-03 0.  1.
         12    1    3    3    0    0  0.17982352849E+02 -0.21850502448E+02  0.97895614278E+01  0.29944030860E+02  0.00000000000E+00 0. -1.
</event>
<event>
 7    1  0.2353206E-008  0.4614232E+02  0.7816164E-02  0.1320468E+00
        -11   -1    0    0    0    0  0.00000000000E+00  0.00000000000E+00  0.45593999997E+02  0.45594000000E+02  0.51100000000E-03 0. -1.
         11   -1    0    0    0    0 -0.00000000000E+00 -0.00000000000E+00 -0.45593999997E+02  0.45594000000E+02  0.51100000000E-03 0.  1.
    9900012    2    1    2    0    0  0.36849150738E+02  0.52280910120E+01 -0.25375592073E+02  0.46142317423E+02  0.99999969187E+01 0.  0.
         12    1    1    2    0    0 -0.36849150738E+02 -0.52280910120E+01  0.25375592073E+02  0.45045682577E+02  0.00000000000E+00 0. -1.
         11    1    3    3    0    0  0.21909500942E+02 -0.40539130124E+00 -0.10923307610E+02  0.24484877436E+02  0.51100000000E-03 0. -1.
        -11    1    3    3    0    0  0.40790380769E+01  0.48815825158E+00 -0.34722247723E+01  0.53789585648E+01  0.51100000000E-03 0.  1.
         12    1    3    3    0    0  0.10860611719E+02  0.51453240617E+01 -0.10980059691E+02  0.16278481422E+02  0.00000000000E+00 0. -1.
</event>
<event>
 7    1  0.2353206E-008  0.4614232E+02  0.7816164E-02  0.1320468E+00
        -11   -1    0    0    0    0  0.00000000000E+00  0.00000000000E+00  0.45593999997E+02  0.45594000000E+02  0.51100000000E-03 0.  1.
         11   -1    0    0    0    0 -0.00000000000E+00 -0.00000000000E+00 -0.45593999997E+02  0.45594000000E+02  0.51100000000E-03 0. -1.
    9900012    2    1    2    0    0  0.11327930822E+02  0.17615744308E+02  0.39880785690E+02  0.46142317283E+02  0.99999956385E+01 0.  0.
         12    1    1    2    0    0 -0.11327930822E+02 -0.17615744308E+02 -0.39880785690E+02  0.45045682717E+02  0.00000000000E+00 0. -1.
         11    1    3    3    0    0  0.60000741959E+01  0.36073504548E+01  0.13949093387E+02  0.15607404468E+02  0.51100000000E-03 0. -1.
        -11    1    3    3    0    0  0.30756040286E+01  0.25603339350E+01  0.38128165181E+01  0.55274062689E+01  0.51100000000E-03 0.  1.
        -12    1    3    3    0    0  0.22522525975E+01  0.11448059918E+02  0.22118875785E+02  0.25007506546E+02  0.00000000000E+00 0.  1.
</event>
<event>
 7    1  0.2353206E-008  0.4614232E+02  0.7816164E-02  0.1320468E+00
        -11   -1    0    0    0    0  0.00000000000E+00  0.00000000000E+00  0.45593999997E+02  0.45594000000E+02  0.51100000000E-03 0. -1.
         11   -1    0    0    0    0 -0.00000000000E+00 -0.00000000000E+00 -0.45593999997E+02  0.45594000000E+02  0.51100000000E-03 0.  1.
    9900012    2    1    2    0    0  0.29145131557E+02 -0.23224382819E+02 -0.25304205901E+02  0.46142317775E+02  0.10000000131E+02 0.  0.
         12    1    1    2    0    0 -0.29145131557E+02  0.23224382819E+02  0.25304205901E+02  0.45045682225E+02  0.00000000000E+00 0. -1.
         11    1    3    3    0    0  0.20635344259E+00  0.47541041464E+00  0.41821318417E+00  0.66595745671E+00  0.51100000000E-03 0. -1.
        -11    1    3    3    0    0  0.16316544729E+02 -0.11690834461E+02 -0.14237550358E+02  0.24609207276E+02  0.51100000000E-03 0.  1.
         12    1    3    3    0    0  0.12622233385E+02 -0.12008958773E+02 -0.11484868727E+02  0.20867153043E+02  0.00000000000E+00 0. -1.
</event>
<event>
 7    1  0.2353206E-008  0.4614231E+02  0.7816164E-02  0.1320468E+00
        -11   -1    0    0    0    0  0.00000000000E+00  0.00000000000E+00  0.45593999997E+02  0.45594000000E+02  0.51100000000E-03 0. -1.
         11   -1    0    0    0    0 -0.00000000000E+00 -0.00000000000E+00 -0.45593999997E+02  0.45594000000E+02  0.51100000000E-03 0.  1.
    9900012    2    1    2    0    0 -0.81474818576E+01  0.55408371738E+01 -0.43954883356E+02  0.46142310883E+02  0.99999372811E+01 0.  0.
         12    1    1    2    0    0  0.81474818576E+01 -0.55408371738E+01  0.43954883356E+02  0.45045689117E+02  0.00000000000E+00 0. -1.
         11    1    3    3    0    0 -0.26241502104E+00 -0.48337041707E+00 -0.10990516652E+02  0.11004270314E+02  0.51100000000E-03 0. -1.
        -11    1    3    3    0    0 -0.41275991678E+01 -0.55944098639E+00 -0.76180199881E+01  0.86824119867E+01  0.51100000000E-03 0.  1.
         12    1    3    3    0    0 -0.37574676688E+01  0.65836485773E+01 -0.25346346715E+02  0.26455628582E+02  0.00000000000E+00 0. -1.
</event>
<event>
 7    1  0.2353206E-008  0.4614232E+02  0.7816164E-02  0.1320468E+00
        -11   -1    0    0    0    0  0.00000000000E+00  0.00000000000E+00  0.45593999997E+02  0.45594000000E+02  0.51100000000E-03 0.  1.
         11   -1    0    0    0    0 -0.00000000000E+00 -0.00000000000E+00 -0.45593999997E+02  0.45594000000E+02  0.51100000000E-03 0. -1.
    9900012    2    1    2    0    0 -0.40814199741E+02  0.96939851715E+01  0.16411618904E+02  0.46142317809E+02  0.10000000440E+02 0.  0.
         12    1    1    2    0    0  0.40814199741E+02 -0.96939851715E+01 -0.16411618904E+02  0.45045682191E+02  0.00000000000E+00 0. -1.
         11    1    3    3    0    0 -0.29653426738E+02  0.49612017470E+01  0.13127006773E+02  0.32806364430E+02  0.51100000000E-03 0. -1.
        -11    1    3    3    0    0 -0.98480737116E+01  0.23262715496E+01  0.20276022221E+01  0.10320235762E+02  0.51100000000E-03 0.  1.
         12    1    3    3    0    0 -0.13126992914E+01  0.24065118750E+01  0.12570099088E+01  0.30157176169E+01  0.00000000000E+00 0. -1.
</event>
<event>
 7    1  0.2353206E-008  0.4614232E+02  0.7816164E-02  0.1320468E+00
        -11   -1    0    0    0    0  0.00000000000E+00  0.00000000000E+00  0.45593999997E+02  0.45594000000E+02  0.51100000000E-03 0. -1.
         11   -1    0    0    0    0 -0.00000000000E+00 -0.00000000000E+00 -0.45593999997E+02  0.45594000000E+02  0.51100000000E-03 0.  1.
    9900012    2    1    2    0    0  0.29267257455E+01  0.41445665092E+02 -0.17401282911E+02  0.46142317350E+02  0.99999962508E+01 0.  0.
         12    1    1    2    0    0 -0.29267257455E+01 -0.41445665092E+02  0.17401282911E+02  0.45045682650E+02  0.00000000000E+00 0. -1.
         11    1    3    3    0    0  0.21779749389E+01  0.82086007472E+01 -0.12524540810E+01  0.85844826604E+01  0.51100000000E-03 0. -1.
        -11    1    3    3    0    0  0.18826924382E+01  0.64999987439E+01 -0.56327181771E+01  0.88046594943E+01  0.51100000000E-03 0.  1.
         12    1    3    3    0    0 -0.11339416315E+01  0.26737065600E+02 -0.10516110653E+02  0.28753175195E+02  0.00000000000E+00 0. -1.
</event>
<event>
 7    1  0.2353206E-008  0.4614232E+02  0.7816164E-02  0.1320468E+00
        -11   -1    0    0    0    0  0.00000000000E+00  0.00000000000E+00  0.45593999997E+02  0.45594000000E+02  0.51100000000E-03 0.  1.
         11   -1    0    0    0    0 -0.00000000000E+00 -0.00000000000E+00 -0.45593999997E+02  0.45594000000E+02  0.51100000000E-03 0. -1.
    9900012    2    1    2    0    0 -0.25625928692E+02 -0.35555641490E+02 -0.10402961513E+02  0.46142317950E+02  0.10000001724E+02 0.  0.
         12    1    1    2    0    0  0.25625928692E+02  0.35555641490E+02  0.10402961513E+02  0.45045682050E+02  0.00000000000E+00 0. -1.
         11    1    3    3    0    0 -0.12987555623E+01 -0.13257223100E+01  0.89409736251E+00  0.20600281572E+01  0.51100000000E-03 0. -1.
        -11    1    3    3    0    0 -0.16527990065E+02 -0.25784761074E+02 -0.11125794853E+02  0.32585451825E+02  0.51100000000E-03 0.  1.
        -12    1    3    3    0    0 -0.77991830640E+01 -0.84451581062E+01 -0.17126402252E+00  0.11496837968E+02  0.00000000000E+00 0.  1.
</event>
<event>
 7    1  0.2353206E-008  0.4614231E+02  0.7816164E-02  0.1320468E+00
        -11   -1    0    0    0    0  0.00000000000E+00  0.00000000000E+00  0.45593999997E+02  0.45594000000E+02  0.51100000000E-03 0.  1.
         11   -1    0    0    0    0 -0.00000000000E+00 -0.00000000000E+00 -0.45593999997E+02  0.45594000000E+02  0.51100000000E-03 0. -1.
    9900012    2    1    2    0    0 -0.47884791783E+01  0.40470072407E+02  0.19192652870E+02  0.46142309667E+02  0.99999261869E+01 0.  0.
         12    1    1    2    0    0  0.47884791783E+01 -0.40470072407E+02 -0.19192652870E+02  0.45045690333E+02  0.00000000000E+00 0. -1.
         11    1    3    3    0    0 -0.30689154463E+00  0.25554214934E+01  0.39538238170E+01  0.47177414582E+01  0.51100000000E-03 0. -1.
        -11    1    3    3    0    0 -0.29358574868E+00 -0.30606841308E-01 -0.53366243988E-01  0.29996264381E+00  0.51100000000E-03 0.  1.
        -12    1    3    3    0    0 -0.41880018850E+01  0.37945257754E+02  0.15292195297E+02  0.41124605565E+02  0.00000000000E+00 0.  1.
</event>
<event>
 7    1  0.2353206E-008  0.4614232E+02  0.7816164E-02  0.1320468E+00
        -11   -1    0    0    0    0  0.00000000000E+00  0.00000000000E+00  0.45593999997E+02  0.45594000000E+02  0.51100000000E-03 0. -1.
         11   -1    0    0    0    0 -0.00000000000E+00 -0.00000000000E+00 -0.45593999997E+02  0.45594000000E+02  0.51100000000E-03 0.  1.
    9900012    2    1    2    0    0  0.37278494074E+02  0.25283334743E+02  0.42469150865E+00  0.46142317643E+02  0.99999989219E+01 0.  0.
         12    1    1    2    0    0 -0.37278494074E+02 -0.25283334743E+02 -0.42469150865E+00  0.45045682357E+02  0.00000000000E+00 0. -1.
         11    1    3    3    0    0  0.15463901377E+02  0.93288774891E+01 -0.14305732130E-01  0.18059911570E+02  0.51100000000E-03 0. -1.
        -11    1    3    3    0    0  0.19899456119E+02  0.10936906982E+02  0.24342391429E+00  0.22708226343E+02  0.51100000000E-03 0.  1.
         12    1    3    3    0    0  0.19151365774E+01  0.50175502720E+01  0.19557332649E+00  0.53741797298E+01  0.00000000000E+00 0. -1.
</event>
<event>
 7    1  0.2353206E-008  0.4614232E+02  0.7816164E-02  0.1320468E+00
        -11   -1    0    0    0    0  0.00000000000E+00  0.00000000000E+00  0.45593999997E+02  0.45594000000E+02  0.51100000000E-03 0. -1.
         11   -1    0    0    0    0 -0.00000000000E+00 -0.00000000000E+00 -0.45593999997E+02  0.45594000000E+02  0.51100000000E-03 0.  1.
    9900012    2    1    2    0    0 -0.28516049477E+02  0.31651106567E+02  0.14634063974E+02  0.46142318152E+02  0.10000003568E+02 0.  0.
         12    1    1    2    0    0  0.28516049477E+02 -0.31651106567E+02 -0.14634063974E+02  0.45045681848E+02  0.00000000000E+00 0. -1.
         11    1    3    3    0    0 -0.94858461250E+01  0.12228959040E+02  0.39782131231E+01  0.15979827778E+02  0.51100000000E-03 0. -1.
        -11    1    3    3    0    0 -0.16140318478E+02  0.19303989034E+02  0.85156416166E+01  0.26564450410E+02  0.51100000000E-03 0.  1.
         12    1    3    3    0    0 -0.28898848744E+01  0.11815849369E+00  0.21402092346E+01  0.35980399643E+01  0.00000000000E+00 0. -1.
</event>
<event>
 7    1  0.2353206E-008  0.4614232E+02  0.7816164E-02  0.1320468E+00
        -11   -1    0    0    0    0  0.00000000000E+00  0.00000000000E+00  0.45593999997E+02  0.45594000000E+02  0.51100000000E-03 0.  1.
         11   -1    0    0    0    0 -0.00000000000E+00 -0.00000000000E+00 -0.45593999997E+02  0.45594000000E+02  0.51100000000E-03 0. -1.
    9900012    2    1    2    0    0 -0.27118948071E+02  0.34054137565E+02  0.11575488041E+02  0.46142317042E+02  0.99999934402E+01 0.  0.
         12    1    1    2    0    0  0.27118948071E+02 -0.34054137565E+02 -0.11575488041E+02  0.45045682958E+02  0.00000000000E+00 0. -1.
         11    1    3    3    0    0  0.75243199925E+00  0.31830730516E+00  0.13749351437E-01  0.81710633322E+00  0.51100000000E-03 0. -1.
        -11    1    3    3    0    0 -0.12364767797E+02  0.16650703481E+02  0.60304884893E+01  0.21598615714E+02  0.51100000000E-03 0.  1.
        -12    1    3    3    0    0 -0.15506612273E+02  0.17085126779E+02  0.55312502004E+01  0.23726594994E+02  0.00000000000E+00 0.  1.
</event>
<event>
 7    1  0.2353206E-008  0.4614232E+02  0.7816164E-02  0.1320468E+00
        -11   -1    0    0    0    0  0.00000000000E+00  0.00000000000E+00  0.45593999997E+02  0.45594000000E+02  0.51100000000E-03 0.  1.
         11   -1    0    0    0    0 -0.00000000000E+00 -0.00000000000E+00 -0.45593999997E+02  0.45594000000E+02  0.51100000000E-03 0. -1.
    9900012    2    1    2    0    0  0.34737367278E+02 -0.22915911454E+02  0.17242095275E+02  0.46142317270E+02  0.99999955237E+01 0.  0.
         12    1    1    2    0    0 -0.34737367278E+02  0.22915911454E+02 -0.17242095275E+02  0.45045682730E+02  0.00000000000E+00 0. -1.
         11    1    3    3    0    0  0.20139601786E+02 -0.18124089887E+02  0.11301649324E+02  0.29356659756E+02  0.51100000000E-03 0. -1.
        -11    1    3    3    0    0  0.79158285091E+01 -0.41435107400E+01  0.40603708584E+01  0.98140528838E+01  0.51100000000E-03 0.  1.
         12    1    3    3    0    0  0.66819369825E+01 -0.64831082627E+00  0.18800750924E+01  0.69716046301E+01  0.00000000000E+00 0. -1.
</event>
<event>
 7    1  0.2353206E-008  0.4614232E+02  0.7816164E-02  0.1320468E+00
        -11   -1    0    0    0    0  0.00000000000E+00  0.00000000000E+00  0.45593999997E+02  0.45594000000E+02  0.51100000000E-03 0.  1.
         11   -1    0    0    0    0 -0.00000000000E+00 -0.00000000000E+00 -0.45593999997E+02  0.45594000000E+02  0.51100000000E-03 0. -1.
    9900012    2    1    2    0    0  0.34722387196E+01  0.20377952618E+02  0.40022444631E+02  0.46142317978E+02  0.10000001977E+02 0.  0.
         12    1    1    2    0    0 -0.34722387196E+01 -0.20377952618E+02 -0.40022444631E+02  0.45045682022E+02  0.00000000000E+00 0. -1.
         11    1    3    3    0    0  0.10091332162E+01  0.55003951069E+00  0.49519678560E+00  0.12514445369E+01  0.51100000000E-03 0. -1.
        -11    1    3    3    0    0 -0.23693017292E+00  0.18027666018E+02  0.33163439891E+02  0.37747405522E+02  0.51100000000E-03 0.  1.
        -12    1    3    3    0    0  0.27000356763E+01  0.18002470889E+01  0.63638079545E+01  0.71434679194E+01  0.00000000000E+00 0.  1.
</event>
<event>
 7    1  0.2353206E-008  0.4614232E+02  0.7816164E-02  0.1320468E+00
        -11   -1    0    0    0    0  0.00000000000E+00  0.00000000000E+00  0.45593999997E+02  0.45594000000E+02  0.51100000000E-03 0. -1.
         11   -1    0    0    0    0 -0.00000000000E+00 -0.00000000000E+00 -0.45593999997E+02  0.45594000000E+02  0.51100000000E-03 0.  1.
    9900012    2    1    2    0    0 -0.39421448041E+02  0.15644754663E+02 -0.15175792361E+02  0.46142316657E+02  0.99999899308E+01 0.  0.
         12    1    1    2    0    0  0.39421448041E+02 -0.15644754663E+02  0.15175792361E+02  0.45045683343E+02  0.00000000000E+00 0. -1.
         11    1    3    3    0    0 -0.25850216164E+01 -0.22101506931E-01 -0.20668665652E+01  0.33097980140E+01  0.51100000000E-03 0. -1.
        -11    1    3    3    0    0 -0.34683798360E+02  0.16015788824E+02 -0.10897912197E+02  0.39727016637E+02  0.51100000000E-03 0.  1.
        -12    1    3    3    0    0 -0.21526280640E+01 -0.34893265407E+00 -0.22110135981E+01  0.31055020061E+01  0.00000000000E+00 0.  1.
</event>
<event>
 7    1  0.2353206E-008  0.4614232E+02  0.7816164E-02  0.1320468E+00
        -11   -1    0    0    0    0  0.00000000000E+00  0.00000000000E+00  0.45593999997E+02  0.45594000000E+02  0.51100000000E-03 0. -1.
         11   -1    0    0    0    0 -0.00000000000E+00 -0.00000000000E+00 -0.45593999997E+02  0.45594000000E+02  0.51100000000E-03 0.  1.
    9900012    2    1    2    0    0 -0.32732194223E+02  0.30699241314E+02 -0.39081333859E+01  0.46142318049E+02  0.10000002624E+02 0.  0.
         12    1    1    2    0    0  0.32732194223E+02 -0.30699241314E+02  0.39081333859E+01  0.45045681951E+02  0.00000000000E+00 0. -1.
         11    1    3    3    0    0 -0.49928474309E+01  0.60667179048E+01 -0.25057768257E+01  0.82469697080E+01  0.51100000000E-03 0. -1.
        -11    1    3    3    0    0 -0.33389994472E+01  0.96046560428E+00 -0.17654017877E+01  0.38971855509E+01  0.51100000000E-03 0.  1.
        -12    1    3    3    0    0 -0.24400347344E+02  0.23672057805E+02  0.36304522747E+00  0.33998162790E+02  0.00000000000E+00 0.  1.
</event>
<event>
 7    1  0.2353206E-008  0.4614232E+02  0.7816164E-02  0.1320468E+00
        -11   -1    0    0    0    0  0.00000000000E+00  0.00000000000E+00  0.45593999997E+02  0.45594000000E+02  0.51100000000E-03 0.  1.
         11   -1    0    0    0    0 -0.00000000000E+00 -0.00000000000E+00 -0.45593999997E+02  0.45594000000E+02  0.51100000000E-03 0. -1.
    9900012    2    1    2    0    0 -0.43784364224E+02 -0.77652295538E+01  0.71933379138E+01  0.46142318177E+02  0.10000003795E+02 0.  0.
         12    1    1    2    0    0  0.43784364224E+02  0.77652295538E+01 -0.71933379138E+01  0.45045681823E+02  0.00000000000E+00 0. -1.
         11    1    3    3    0    0 -0.36837166292E+02 -0.40560917716E+01  0.47122386426E+01  0.37358183765E+02  0.51100000000E-03 0. -1.
        -11    1    3    3    0    0 -0.53081624417E+01 -0.19270044031E+01  0.52502237006E+00  0.56714709933E+01  0.51100000000E-03 0.  1.
        -12    1    3    3    0    0 -0.16390354899E+01 -0.17821333790E+01  0.19560769011E+01  0.31126634191E+01  0.00000000000E+00 0.  1.
</event>
<event>
 7    1  0.2353206E-008  0.4614232E+02  0.7816164E-02  0.1320468E+00
        -11   -1    0    0    0    0  0.00000000000E+00  0.00000000000E+00  0.45593999997E+02  0.45594000000E+02  0.51100000000E-03 0.  1.
         11   -1    0    0    0    0 -0.00000000000E+00 -0.00000000000E+00 -0.45593999997E+02  0.45594000000E+02  0.51100000000E-03 0. -1.
    9900012    2    1    2    0    0 -0.16496124111E+02 -0.15223535056E+02  0.39054261251E+02  0.46142318163E+02  0.10000003669E+02 0.  0.
         12    1    1    2    0    0  0.16496124111E+02  0.15223535056E+02 -0.39054261251E+02  0.45045681837E+02  0.00000000000E+00 0. -1.
         11    1    3    3    0    0 -0.17112282859E+01 -0.21445902837E+01  0.14714522687E+01  0.31133168441E+01  0.51100000000E-03 0. -1.
        -11    1    3    3    0    0 -0.84453543766E+01 -0.85193430401E+01  0.29222886218E+02  0.31589243352E+02  0.51100000000E-03 0.  1.
        -12    1    3    3    0    0 -0.63395414480E+01 -0.45596017326E+01  0.83599227639E+01  0.11439757967E+02  0.00000000000E+00 0.  1.
</event>
<event>
 7    1  0.2353206E-008  0.4614232E+02  0.7816164E-02  0.1320468E+00
        -11   -1    0    0    0    0  0.00000000000E+00  0.00000000000E+00  0.45593999997E+02  0.45594000000E+02  0.51100000000E-03 0.  1.
         11   -1    0    0    0    0 -0.00000000000E+00 -0.00000000000E+00 -0.45593999997E+02  0.45594000000E+02  0.51100000000E-03 0. -1.
    9900012    2    1    2    0    0  0.26601363702E+02  0.32436863135E+02 -0.16411303114E+02  0.46142317513E+02  0.99999977389E+01 0.  0.
         12    1    1    2    0    0 -0.26601363702E+02 -0.32436863135E+02  0.16411303114E+02  0.45045682487E+02  0.00000000000E+00 0. -1.
         11    1    3    3    0    0  0.24027706980E+01  0.50222758294E+01 -0.45949107704E+01  0.72187094957E+01  0.51100000000E-03 0. -1.
        -11    1    3    3    0    0  0.11571665860E+02  0.99643743067E+01 -0.25788512299E+01  0.15486855073E+02  0.51100000000E-03 0.  1.
         12    1    3    3    0    0  0.12626927143E+02  0.17450212999E+02 -0.92375411133E+01  0.23436752945E+02  0.00000000000E+00 0. -1.
</event>
<event>
 7    1  0.2353206E-008  0.4614232E+02  0.7816164E-02  0.1320468E+00
        -11   -1    0    0    0    0  0.00000000000E+00  0.00000000000E+00  0.45593999997E+02  0.45594000000E+02  0.51100000000E-03 0.  1.
         11   -1    0    0    0    0 -0.00000000000E+00 -0.00000000000E+00 -0.45593999997E+02  0.45594000000E+02  0.51100000000E-03 0. -1.
    9900012    2    1    2    0    0  0.26047549004E+02 -0.13039245368E+02  0.34360104680E+02  0.46142317382E+02  0.99999965443E+01 0.  0.
         12    1    1    2    0    0 -0.26047549004E+02  0.13039245368E+02 -0.34360104680E+02  0.45045682618E+02  0.00000000000E+00 0. -1.
         11    1    3    3    0    0  0.17929144275E+02 -0.13082566006E+02  0.26113584652E+02  0.34271373643E+02  0.51100000000E-03 0. -1.
        -11    1    3    3    0    0  0.77774552325E+01 -0.60842162568E+00  0.74580776799E+01  0.10792678523E+02  0.51100000000E-03 0.  1.
         12    1    3    3    0    0  0.34094949603E+00  0.65174226450E+00  0.78844234905E+00  0.10782652160E+01  0.00000000000E+00 0. -1.
</event>
<event>
 7    1  0.2353206E-008  0.4614232E+02  0.7816164E-02  0.1320468E+00
        -11   -1    0    0    0    0  0.00000000000E+00  0.00000000000E+00  0.45593999997E+02  0.45594000000E+02  0.51100000000E-03 0.  1.
         11   -1    0    0    0    0 -0.00000000000E+00 -0.00000000000E+00 -0.45593999997E+02  0.45594000000E+02  0.51100000000E-03 0. -1.
    9900012    2    1    2    0    0 -0.32208186079E+02  0.65913051839E+01 -0.30794496165E+02  0.46142317093E+02  0.99999939062E+01 0.  0.
         12    1    1    2    0    0  0.32208186079E+02 -0.65913051839E+01  0.30794496165E+02  0.45045682907E+02  0.00000000000E+00 0. -1.
         11    1    3    3    0    0 -0.62633599353E+01  0.15502080709E+01 -0.47574818943E+01  0.80166362633E+01  0.51100000000E-03 0. -1.
        -11    1    3    3    0    0 -0.22841892004E+02  0.22523486653E+01 -0.18376278745E+02  0.29402597260E+02  0.51100000000E-03 0.  1.
         12    1    3    3    0    0 -0.31029341398E+01  0.27887484477E+01 -0.76607355251E+01  0.87230835698E+01  0.00000000000E+00 0. -1.
</event>
<event>
 7    1  0.2353206E-008  0.4614232E+02  0.7816164E-02  0.1320468E+00
        -11   -1    0    0    0    0  0.00000000000E+00  0.00000000000E+00  0.45593999997E+02  0.45594000000E+02  0.51100000000E-03 0. -1.
         11   -1    0    0    0    0 -0.00000000000E+00 -0.00000000000E+00 -0.45593999997E+02  0.45594000000E+02  0.51100000000E-03 0.  1.
    9900012    2    1    2    0    0  0.39590784535E+02  0.14990613100E+02 -0.15393660409E+02  0.46142317832E+02  0.10000000646E+02 0.  0.
         12    1    1    2    0    0 -0.39590784535E+02 -0.14990613100E+02  0.15393660409E+02  0.45045682168E+02  0.00000000000E+00 0. -1.
         11    1    3    3    0    0  0.13916225645E+02  0.45110001350E+01 -0.92748138381E+01  0.17321450009E+02  0.51100000000E-03 0.  1.
        -11    1    3    3    0    0  0.25735263660E+02  0.10385449103E+02 -0.56271066184E+01  0.28316526586E+02  0.51100000000E-03 0. -1.
         12    1    3    3    0    0 -0.60704770714E-01  0.94163862373E-01 -0.49173995289E+00  0.50434123709E+00  0.00000000000E+00 0. -1.
</event>
<event>
 7    1  0.2353206E-008  0.4614232E+02  0.7816164E-02  0.1320468E+00
        -11   -1    0    0    0    0  0.00000000000E+00  0.00000000000E+00  0.45593999997E+02  0.45594000000E+02  0.51100000000E-03 0. -1.
         11   -1    0    0    0    0 -0.00000000000E+00 -0.00000000000E+00 -0.45593999997E+02  0.45594000000E+02  0.51100000000E-03 0.  1.
    9900012    2    1    2    0    0 -0.48074012397E+01 -0.44695986973E+02  0.28759620486E+01  0.46142317456E+02  0.99999972170E+01 0.  0.
         12    1    1    2    0    0  0.48074012397E+01  0.44695986973E+02 -0.28759620486E+01  0.45045682544E+02  0.00000000000E+00 0. -1.
         11    1    3    3    0    0 -0.51784992833E+01 -0.21806375484E+02 -0.16467047620E+01  0.22473239718E+02  0.51100000000E-03 0. -1.
        -11    1    3    3    0    0  0.18886533470E+01 -0.75209739720E+01  0.90044423873E+00  0.78065908719E+01  0.51100000000E-03 0.  1.
         12    1    3    3    0    0 -0.15175553034E+01 -0.15368637517E+02  0.36222225718E+01  0.15862486866E+02  0.00000000000E+00 0. -1.
</event>
<event>
 7    1  0.2353206E-008  0.4614232E+02  0.7816164E-02  0.1320468E+00
        -11   -1    0    0    0    0  0.00000000000E+00  0.00000000000E+00  0.45593999997E+02  0.45594000000E+02  0.51100000000E-03 0.  1.
         11   -1    0    0    0    0 -0.00000000000E+00 -0.00000000000E+00 -0.45593999997E+02  0.45594000000E+02  0.51100000000E-03 0. -1.
    9900012    2    1    2    0    0  0.11858597654E+02  0.14149028519E+02  0.41088833291E+02  0.46142316882E+02  0.99999919856E+01 0.  0.
         12    1    1    2    0    0 -0.11858597654E+02 -0.14149028519E+02 -0.41088833291E+02  0.45045683118E+02  0.00000000000E+00 0. -1.
         11    1    3    3    0    0  0.93847211498E+00  0.17388632049E+01  0.10447024508E+02  0.10632247951E+02  0.51100000000E-03 0. -1.
        -11    1    3    3    0    0  0.85192740801E+01  0.12626551532E+02  0.28355981622E+02  0.32188033933E+02  0.51100000000E-03 0.  1.
         12    1    3    3    0    0  0.24008514590E+01 -0.21638621789E+00  0.22858271605E+01  0.33220349985E+01  0.00000000000E+00 0. -1.
</event>
<event>
 7    1  0.2353206E-008  0.4614232E+02  0.7816164E-02  0.1320468E+00
        -11   -1    0    0    0    0  0.00000000000E+00  0.00000000000E+00  0.45593999997E+02  0.45594000000E+02  0.51100000000E-03 0. -1.
         11   -1    0    0    0    0 -0.00000000000E+00 -0.00000000000E+00 -0.45593999997E+02  0.45594000000E+02  0.51100000000E-03 0.  1.
    9900012    2    1    2    0    0 -0.15131132481E+02  0.22741023438E+02 -0.35819102124E+02  0.46142318807E+02  0.10000009535E+02 0.  0.
         12    1    1    2    0    0  0.15131132481E+02 -0.22741023438E+02  0.35819102124E+02  0.45045681193E+02  0.00000000000E+00 0. -1.
         11    1    3    3    0    0 -0.98384787975E+01  0.12731577987E+02 -0.14580292574E+02  0.21713444565E+02  0.51100000000E-03 0. -1.
        -11    1    3    3    0    0  0.10331485779E+00  0.33077843749E+01 -0.42595038844E+01  0.53940230842E+01  0.51100000000E-03 0.  1.
        -12    1    3    3    0    0 -0.53959685415E+01  0.67016610759E+01 -0.16979305666E+02  0.19034851157E+02  0.00000000000E+00 0.  1.
</event>
<event>
 7    1  0.2353206E-008  0.4614232E+02  0.7816164E-02  0.1320468E+00
        -11   -1    0    0    0    0  0.00000000000E+00  0.00000000000E+00  0.45593999997E+02  0.45594000000E+02  0.51100000000E-03 0.  1.
         11   -1    0    0    0    0 -0.00000000000E+00 -0.00000000000E+00 -0.45593999997E+02  0.45594000000E+02  0.51100000000E-03 0. -1.
    9900012    2    1    2    0    0 -0.14948847253E+02  0.31748123010E+01  0.42374121437E+02  0.46142316135E+02  0.99999851698E+01 0.  0.
         12    1    1    2    0    0  0.14948847253E+02 -0.31748123010E+01 -0.42374121437E+02  0.45045683865E+02  0.00000000000E+00 0. -1.
         11    1    3    3    0    0 -0.68632857049E+01 -0.24994740493E+00  0.24441889312E+02  0.25388444572E+02  0.51100000000E-03 0. -1.
        -11    1    3    3    0    0 -0.52848486488E+01  0.15693331595E+01  0.51735623406E+01  0.75603028617E+01  0.51100000000E-03 0.  1.
         12    1    3    3    0    0 -0.28007128990E+01  0.18554265464E+01  0.12758669784E+02  0.13193568701E+02  0.00000000000E+00 0. -1.
</event>
<event>
 7    1  0.2353206E-008  0.4614232E+02  0.7816164E-02  0.1320468E+00
        -11   -1    0    0    0    0  0.00000000000E+00  0.00000000000E+00  0.45593999997E+02  0.45594000000E+02  0.51100000000E-03 0.  1.
         11   -1    0    0    0    0 -0.00000000000E+00 -0.00000000000E+00 -0.45593999997E+02  0.45594000000E+02  0.51100000000E-03 0. -1.
    9900012    2    1    2    0    0  0.39395400260E+02 -0.41159429791E+01  0.21451689483E+02  0.46142317300E+02  0.99999957920E+01 0.  0.
         12    1    1    2    0    0 -0.39395400260E+02  0.41159429791E+01 -0.21451689483E+02  0.45045682700E+02  0.00000000000E+00 0. -1.
         11    1    3    3    0    0  0.11171410368E+02 -0.37646100430E+01  0.30682028672E+01  0.12181402525E+02  0.51100000000E-03 0. -1.
        -11    1    3    3    0    0  0.12261953197E+02 -0.16572273842E+01  0.62115139297E+01  0.13845028146E+02  0.51100000000E-03 0.  1.
         12    1    3    3    0    0  0.15962036695E+02  0.13058944482E+01  0.12171972686E+02  0.20115886628E+02  0.00000000000E+00 0. -1.
</event>
<event>
 7    1  0.2353206E-008  0.4614232E+02  0.7816164E-02  0.1320468E+00
        -11   -1    0    0    0    0  0.00000000000E+00  0.00000000000E+00  0.45593999997E+02  0.45594000000E+02  0.51100000000E-03 0.  1.
         11   -1    0    0    0    0 -0.00000000000E+00 -0.00000000000E+00 -0.45593999997E+02  0.45594000000E+02  0.51100000000E-03 0. -1.
    9900012    2    1    2    0    0 -0.15486213605E+02  0.10734949876E+02  0.40915175263E+02  0.46142317327E+02  0.99999960459E+01 0.  0.
         12    1    1    2    0    0  0.15486213605E+02 -0.10734949876E+02 -0.40915175263E+02  0.45045682673E+02  0.00000000000E+00 0. -1.
         11    1    3    3    0    0 -0.57060218394E+01  0.75400146567E+00  0.56665015490E+01  0.80769080414E+01  0.51100000000E-03 0. -1.
        -11    1    3    3    0    0 -0.47699384052E+01  0.36189549909E+01  0.18817428909E+02  0.19747019487E+02  0.51100000000E-03 0.  1.
        -12    1    3    3    0    0 -0.50102533606E+01  0.63619934192E+01  0.16431244805E+02  0.18318389799E+02  0.00000000000E+00 0.  1.
</event>
<event>
 7    1  0.2353206E-008  0.4614232E+02  0.7816164E-02  0.1320468E+00
        -11   -1    0    0    0    0  0.00000000000E+00  0.00000000000E+00  0.45593999997E+02  0.45594000000E+02  0.51100000000E-03 0.  1.
         11   -1    0    0    0    0 -0.00000000000E+00 -0.00000000000E+00 -0.45593999997E+02  0.45594000000E+02  0.51100000000E-03 0. -1.
    9900012    2    1    2    0    0  0.33061023989E+02 -0.18499325260E+02  0.24369184717E+02  0.46142317565E+02  0.99999982128E+01 0.  0.
         12    1    1    2    0    0 -0.33061023989E+02  0.18499325260E+02 -0.24369184717E+02  0.45045682435E+02  0.00000000000E+00 0. -1.
         11    1    3    3    0    0  0.29182515735E+01 -0.97556325499E+00  0.36902515919E+01  0.48047760597E+01  0.51100000000E-03 0. -1.
        -11    1    3    3    0    0  0.29991796806E+02 -0.16161937212E+02  0.18512193808E+02  0.38773926935E+02  0.51100000000E-03 0.  1.
         12    1    3    3    0    0  0.15097560960E+00 -0.13618247932E+01  0.21667393165E+01  0.25636145708E+01  0.00000000000E+00 0. -1.
</event>
<event>
 7    1  0.2353206E-008  0.4614232E+02  0.7816164E-02  0.1320468E+00
        -11   -1    0    0    0    0  0.00000000000E+00  0.00000000000E+00  0.45593999997E+02  0.45594000000E+02  0.51100000000E-03 0.  1.
         11   -1    0    0    0    0 -0.00000000000E+00 -0.00000000000E+00 -0.45593999997E+02  0.45594000000E+02  0.51100000000E-03 0. -1.
    9900012    2    1    2    0    0  0.29241252139E+02  0.88247196426E+01  0.33108714971E+02  0.46142317516E+02  0.99999977641E+01 0.  0.
         12    1    1    2    0    0 -0.29241252139E+02 -0.88247196426E+01 -0.33108714971E+02  0.45045682484E+02  0.00000000000E+00 0. -1.
         11    1    3    3    0    0  0.16466235894E+02  0.43563257791E+01  0.15950125581E+02  0.23334973861E+02  0.51100000000E-03 0. -1.
        -11    1    3    3    0    0  0.12221149362E+02  0.47924131231E+01  0.12572814506E+02  0.18176891377E+02  0.51100000000E-03 0.  1.
         12    1    3    3    0    0  0.55386688297E+00 -0.32401925965E+00  0.45857748840E+01  0.46304522772E+01  0.00000000000E+00 0. -1.
</event>
<event>
 7    1  0.2353206E-008  0.4614232E+02  0.7816164E-02  0.1320468E+00
        -11   -1    0    0    0    0  0.00000000000E+00  0.00000000000E+00  0.45593999997E+02  0.45594000000E+02  0.51100000000E-03 0.  1.
         11   -1    0    0    0    0 -0.00000000000E+00 -0.00000000000E+00 -0.45593999997E+02  0.45594000000E+02  0.51100000000E-03 0. -1.
    9900012    2    1    2    0    0 -0.51249707164E+01  0.36612527163E+02  0.25736569879E+02  0.46142317640E+02  0.99999988995E+01 0.  0.
         12    1    1    2    0    0  0.51249707164E+01 -0.36612527163E+02 -0.25736569879E+02  0.45045682360E+02  0.00000000000E+00 0. -1.
         11    1    3    3    0    0  0.44875335821E+00  0.83861786385E+01  0.85651045933E+01  0.11995431993E+02  0.51100000000E-03 0. -1.
        -11    1    3    3    0    0  0.82809360497E+00  0.37495397618E+01  0.55938568077E+00  0.38804252403E+01  0.51100000000E-03 0.  1.
        -12    1    3    3    0    0 -0.64018176796E+01  0.24476808762E+02  0.16612079605E+02  0.30266460408E+02  0.00000000000E+00 0.  1.
</event>
<event>
 7    1  0.2353206E-008  0.4614232E+02  0.7816164E-02  0.1320468E+00
        -11   -1    0    0    0    0  0.00000000000E+00  0.00000000000E+00  0.45593999997E+02  0.45594000000E+02  0.51100000000E-03 0.  1.
         11   -1    0    0    0    0 -0.00000000000E+00 -0.00000000000E+00 -0.45593999997E+02  0.45594000000E+02  0.51100000000E-03 0. -1.
    9900012    2    1    2    0    0  0.41962369902E+02  0.19346344678E+01  0.16264386585E+02  0.46142316863E+02  0.99999918097E+01 0.  0.
         12    1    1    2    0    0 -0.41962369902E+02 -0.19346344678E+01 -0.16264386585E+02  0.45045683137E+02  0.00000000000E+00 0. -1.
         11    1    3    3    0    0  0.22879226558E+01 -0.11910439622E+01  0.13005845350E+01  0.28887187804E+01  0.51100000000E-03 0. -1.
        -11    1    3    3    0    0  0.13802130142E+02  0.24657221126E+00  0.92058599608E+01  0.16592391394E+02  0.51100000000E-03 0.  1.
         12    1    3    3    0    0  0.25872317104E+02  0.28791062188E+01  0.57579420891E+01  0.26661206688E+02  0.00000000000E+00 0. -1.
</event>
<event>
 7    1  0.2353206E-008  0.4614232E+02  0.7816164E-02  0.1320468E+00
        -11   -1    0    0    0    0  0.00000000000E+00  0.00000000000E+00  0.45593999997E+02  0.45594000000E+02  0.51100000000E-03 0.  1.
         11   -1    0    0    0    0 -0.00000000000E+00 -0.00000000000E+00 -0.45593999997E+02  0.45594000000E+02  0.51100000000E-03 0. -1.
    9900012    2    1    2    0    0 -0.54281288834E+01 -0.23786081255E+02  0.37866491912E+02  0.46142318138E+02  0.10000003441E+02 0.  0.
         12    1    1    2    0    0  0.54281288834E+01  0.23786081255E+02 -0.37866491912E+02  0.45045681862E+02  0.00000000000E+00 0. -1.
         11    1    3    3    0    0 -0.14488094488E+01 -0.42801013671E+01  0.12121426974E+02  0.12936278780E+02  0.51100000000E-03 0. -1.
        -11    1    3    3    0    0 -0.50505316015E+01 -0.14980195362E+02  0.22643117067E+02  0.27615663550E+02  0.51100000000E-03 0.  1.
        -12    1    3    3    0    0  0.10712121669E+01 -0.45257845263E+01  0.31019478712E+01  0.55903758085E+01  0.00000000000E+00 0.  1.
</event>
<event>
 7    1  0.2353206E-008  0.4614232E+02  0.7816164E-02  0.1320468E+00
        -11   -1    0    0    0    0  0.00000000000E+00  0.00000000000E+00  0.45593999997E+02  0.45594000000E+02  0.51100000000E-03 0.  1.
         11   -1    0    0    0    0 -0.00000000000E+00 -0.00000000000E+00 -0.45593999997E+02  0.45594000000E+02  0.51100000000E-03 0. -1.
    9900012    2    1    2    0    0  0.86040725446E+01  0.17576689328E+02  0.40572692919E+02  0.46142317824E+02  0.10000000570E+02 0.  0.
         12    1    1    2    0    0 -0.86040725446E+01 -0.17576689328E+02 -0.40572692919E+02  0.45045682176E+02  0.00000000000E+00 0. -1.
         11    1    3    3    0    0  0.24197326346E+01  0.13615820446E+02  0.27265543283E+02  0.30572136386E+02  0.51100000000E-03 0. -1.
        -11    1    3    3    0    0  0.40815665203E+01  0.43253785375E+01  0.96129528104E+01  0.11303846547E+02  0.51100000000E-03 0.  1.
         12    1    3    3    0    0  0.21027733896E+01 -0.36450965586E+00  0.36941968254E+01  0.42663348910E+01  0.00000000000E+00 0. -1.
</event>
<event>
 7    1  0.2353206E-008  0.4614232E+02  0.7816164E-02  0.1320468E+00
        -11   -1    0    0    0    0  0.00000000000E+00  0.00000000000E+00  0.45593999997E+02  0.45594000000E+02  0.51100000000E-03 0.  1.
         11   -1    0    0    0    0 -0.00000000000E+00 -0.00000000000E+00 -0.45593999997E+02  0.45594000000E+02  0.51100000000E-03 0. -1.
    9900012    2    1    2    0    0 -0.76738442687E+01 -0.67442588108E+01  0.43871866196E+02  0.46142317007E+02  0.99999931212E+01 0.  0.
         12    1    1    2    0    0  0.76738442687E+01  0.67442588108E+01 -0.43871866196E+02  0.45045682993E+02  0.00000000000E+00 0. -1.
         11    1    3    3    0    0 -0.54080937069E+01 -0.15877855114E+01  0.22623920415E+02  0.23315452292E+02  0.51100000000E-03 0. -1.
        -11    1    3    3    0    0 -0.23261102113E+01 -0.30357590874E+01  0.43330662630E+01  0.57794537330E+01  0.51100000000E-03 0.  1.
        -12    1    3    3    0    0  0.60359649457E-01 -0.21207142120E+01  0.16914879519E+02  0.17047410982E+02  0.00000000000E+00 0.  1.
</event>
<event>
 7    1  0.2353206E-008  0.4614232E+02  0.7816164E-02  0.1320468E+00
        -11   -1    0    0    0    0  0.00000000000E+00  0.00000000000E+00  0.45593999997E+02  0.45594000000E+02  0.51100000000E-03 0.  1.
         11   -1    0    0    0    0 -0.00000000000E+00 -0.00000000000E+00 -0.45593999997E+02  0.45594000000E+02  0.51100000000E-03 0. -1.
    9900012    2    1    2    0    0 -0.33531917595E+02  0.19710288768E+02  0.22720662575E+02  0.46142317757E+02  0.99999999591E+01 0.  0.
         12    1    1    2    0    0  0.33531917595E+02 -0.19710288768E+02 -0.22720662575E+02  0.45045682243E+02  0.00000000000E+00 0. -1.
         11    1    3    3    0    0 -0.10260145393E+02  0.60256288213E+01  0.23691292574E+01  0.12132252877E+02  0.51100000000E-03 0. -1.
        -11    1    3    3    0    0 -0.64825182369E+01  0.19934269061E+01  0.54243286994E+01  0.86844767040E+01  0.51100000000E-03 0.  1.
        -12    1    3    3    0    0 -0.16789253965E+02  0.11691233041E+02  0.14927204618E+02  0.25325588176E+02  0.00000000000E+00 0.  1.
</event>
<event>
 7    1  0.2353206E-008  0.4614232E+02  0.7816164E-02  0.1320468E+00
        -11   -1    0    0    0    0  0.00000000000E+00  0.00000000000E+00  0.45593999997E+02  0.45594000000E+02  0.51100000000E-03 0. -1.
         11   -1    0    0    0    0 -0.00000000000E+00 -0.00000000000E+00 -0.45593999997E+02  0.45594000000E+02  0.51100000000E-03 0.  1.
    9900012    2    1    2    0    0  0.40657342722E+01  0.38478901333E+02 -0.23064202239E+02  0.46142317989E+02  0.10000002078E+02 0.  0.
         12    1    1    2    0    0 -0.40657342722E+01 -0.38478901333E+02  0.23064202239E+02  0.45045682011E+02  0.00000000000E+00 0. -1.
         11    1    3    3    0    0 -0.12408049801E+01  0.18743253236E+02 -0.79307515466E+01  0.20389849416E+02  0.51100000000E-03 0. -1.
        -11    1    3    3    0    0  0.27009155984E+01  0.91073493661E+01 -0.45654151731E+01  0.10539533837E+02  0.51100000000E-03 0.  1.
         12    1    3    3    0    0  0.26056236540E+01  0.10628298731E+02 -0.10568035519E+02  0.15212934735E+02  0.00000000000E+00 0. -1.
</event>
<event>
 7    1  0.2353206E-008  0.4614232E+02  0.7816164E-02  0.1320468E+00
        -11   -1    0    0    0    0  0.00000000000E+00  0.00000000000E+00  0.45593999997E+02  0.45594000000E+02  0.51100000000E-03 0.  1.
         11   -1    0    0    0    0 -0.00000000000E+00 -0.00000000000E+00 -0.45593999997E+02  0.45594000000E+02  0.51100000000E-03 0. -1.
    9900012    2    1    2    0    0 -0.31969608558E+02  0.26198368918E+02  0.17908185315E+02  0.46142317559E+02  0.99999981584E+01 0.  0.
         12    1    1    2    0    0  0.31969608558E+02 -0.26198368918E+02 -0.17908185315E+02  0.45045682441E+02  0.00000000000E+00 0. -1.
         11    1    3    3    0    0 -0.10589839666E+02  0.65485643545E+01  0.32448905962E+01  0.12866923272E+02  0.51100000000E-03 0. -1.
        -11    1    3    3    0    0 -0.21595247367E+02  0.18187947728E+02  0.13102425227E+02  0.31126029276E+02  0.51100000000E-03 0.  1.
         12    1    3    3    0    0  0.21547847494E+00  0.14618568353E+01  0.15608694919E+01  0.21493650111E+01  0.00000000000E+00 0. -1.
</event>
<event>
 7    1  0.2353206E-008  0.4614232E+02  0.7816164E-02  0.1320468E+00
        -11   -1    0    0    0    0  0.00000000000E+00  0.00000000000E+00  0.45593999997E+02  0.45594000000E+02  0.51100000000E-03 0.  1.
         11   -1    0    0    0    0 -0.00000000000E+00 -0.00000000000E+00 -0.45593999997E+02  0.45594000000E+02  0.51100000000E-03 0. -1.
    9900012    2    1    2    0    0 -0.50017014780E+01  0.21315881870E+02  0.39366604956E+02  0.46142318483E+02  0.10000006580E+02 0.  0.
         12    1    1    2    0    0  0.50017014780E+01 -0.21315881870E+02 -0.39366604956E+02  0.45045681517E+02  0.00000000000E+00 0. -1.
         11    1    3    3    0    0 -0.90618019636E+00  0.37648158944E+00  0.19724323463E+00  0.10009026377E+01  0.51100000000E-03 0. -1.
        -11    1    3    3    0    0 -0.26913093934E+00  0.14056179440E+02  0.20283142774E+02  0.24679029417E+02  0.51100000000E-03 0.  1.
        -12    1    3    3    0    0 -0.38263903423E+01  0.68832208409E+01  0.18886218948E+02  0.20462386428E+02  0.00000000000E+00 0.  1.
</event>
<event>
 7    1  0.2353206E-008  0.4614232E+02  0.7816164E-02  0.1320468E+00
        -11   -1    0    0    0    0  0.00000000000E+00  0.00000000000E+00  0.45593999997E+02  0.45594000000E+02  0.51100000000E-03 0.  1.
         11   -1    0    0    0    0 -0.00000000000E+00 -0.00000000000E+00 -0.45593999997E+02  0.45594000000E+02  0.51100000000E-03 0. -1.
    9900012    2    1    2    0    0 -0.20881726484E+02  0.22437756731E+02  0.33009302998E+02  0.46142317493E+02  0.99999975590E+01 0.  0.
         12    1    1    2    0    0  0.20881726484E+02 -0.22437756731E+02 -0.33009302998E+02  0.45045682507E+02  0.00000000000E+00 0. -1.
         11    1    3    3    0    0 -0.25441341096E+01  0.38583611188E+01  0.99195023354E+01  0.10943312832E+02  0.51100000000E-03 0. -1.
        -11    1    3    3    0    0 -0.32900301355E+01  0.61919603848E+01  0.72241088938E+01  0.10067393966E+02  0.51100000000E-03 0.  1.
         12    1    3    3    0    0 -0.15047562239E+02  0.12387435228E+02  0.15865691769E+02  0.25131610695E+02  0.00000000000E+00 0. -1.
</event>
<event>
 7    1  0.2353206E-008  0.4614232E+02  0.7816164E-02  0.1320468E+00
        -11   -1    0    0    0    0  0.00000000000E+00  0.00000000000E+00  0.45593999997E+02  0.45594000000E+02  0.51100000000E-03 0.  1.
         11   -1    0    0    0    0 -0.00000000000E+00 -0.00000000000E+00 -0.45593999997E+02  0.45594000000E+02  0.51100000000E-03 0. -1.
    9900012    2    1    2    0    0  0.26731353457E+02  0.14516700921E+02  0.33223690605E+02  0.46142317847E+02  0.10000000779E+02 0.  0.
         12    1    1    2    0    0 -0.26731353457E+02 -0.14516700921E+02 -0.33223690605E+02  0.45045682153E+02  0.00000000000E+00 0. -1.
         11    1    3    3    0    0  0.30220006473E+01 -0.36694026145E+00  0.56448654770E+01  0.64133953241E+01  0.51100000000E-03 0. -1.
        -11    1    3    3    0    0  0.49512777942E+01  0.14192335963E+01  0.76811993891E+01  0.92482538953E+01  0.51100000000E-03 0.  1.
         12    1    3    3    0    0  0.18758075015E+02  0.13464407586E+02  0.19897625739E+02  0.30480668627E+02  0.00000000000E+00 0. -1.
</event>
<event>
 7    1  0.2353206E-008  0.4614232E+02  0.7816164E-02  0.1320468E+00
        -11   -1    0    0    0    0  0.00000000000E+00  0.00000000000E+00  0.45593999997E+02  0.45594000000E+02  0.51100000000E-03 0.  1.
         11   -1    0    0    0    0 -0.00000000000E+00 -0.00000000000E+00 -0.45593999997E+02  0.45594000000E+02  0.51100000000E-03 0. -1.
    9900012    2    1    2    0    0 -0.23265507337E+02 -0.91832547913E+01  0.37463281749E+02  0.46142317858E+02  0.10000000886E+02 0.  0.
         12    1    1    2    0    0  0.23265507337E+02  0.91832547913E+01 -0.37463281749E+02  0.45045682142E+02  0.00000000000E+00 0. -1.
         11    1    3    3    0    0  0.31768093899E+00  0.19514284293E+00  0.36273971355E+01  0.36465068419E+01  0.51100000000E-03 0. -1.
        -11    1    3    3    0    0 -0.60478760115E+01 -0.36682498604E+01  0.11839722760E+02  0.13791732907E+02  0.51100000000E-03 0.  1.
         12    1    3    3    0    0 -0.17535312265E+02 -0.57101477738E+01  0.21996161854E+02  0.28704078110E+02  0.00000000000E+00 0. -1.
</event>
<event>
 7    1  0.2353206E-008  0.4614232E+02  0.7816164E-02  0.1320468E+00
        -11   -1    0    0    0    0  0.00000000000E+00  0.00000000000E+00  0.45593999997E+02  0.45594000000E+02  0.51100000000E-03 0.  1.
         11   -1    0    0    0    0 -0.00000000000E+00 -0.00000000000E+00 -0.45593999997E+02  0.45594000000E+02  0.51100000000E-03 0. -1.
    9900012    2    1    2    0    0  0.91328615484E+01 -0.47070239329E+01  0.43858273809E+02  0.46142318566E+02  0.10000007341E+02 0.  0.
         12    1    1    2    0    0 -0.91328615484E+01  0.47070239329E+01 -0.43858273809E+02  0.45045681434E+02  0.00000000000E+00 0. -1.
         11    1    3    3    0    0  0.12545519445E+01 -0.40840840294E+00  0.18333971153E+00  0.13320329260E+01  0.51100000000E-03 0. -1.
        -11    1    3    3    0    0  0.68159849881E+00 -0.95500012183E+00  0.15348980558E+02  0.15393758676E+02  0.51100000000E-03 0.  1.
        -12    1    3    3    0    0  0.71967111051E+01 -0.33436154081E+01  0.28325953539E+02  0.29416526964E+02  0.00000000000E+00 0.  1.
</event>
<event>
 7    1  0.2353206E-008  0.4614232E+02  0.7816164E-02  0.1320468E+00
        -11   -1    0    0    0    0  0.00000000000E+00  0.00000000000E+00  0.45593999997E+02  0.45594000000E+02  0.51100000000E-03 0.  1.
         11   -1    0    0    0    0 -0.00000000000E+00 -0.00000000000E+00 -0.45593999997E+02  0.45594000000E+02  0.51100000000E-03 0. -1.
    9900012    2    1    2    0    0  0.32936144911E+02  0.22146764043E+02  0.21303630075E+02  0.46142318147E+02  0.10000003522E+02 0.  0.
         12    1    1    2    0    0 -0.32936144911E+02 -0.22146764043E+02 -0.21303630075E+02  0.45045681853E+02  0.00000000000E+00 0. -1.
         11    1    3    3    0    0  0.59585820962E+01  0.18437201701E+01  0.45247434539E+01  0.77056672812E+01  0.51100000000E-03 0. -1.
        -11    1    3    3    0    0  0.26398349949E+02  0.18304092722E+02  0.14197915657E+02  0.35121126116E+02  0.51100000000E-03 0.  1.
         12    1    3    3    0    0  0.57921286587E+00  0.19989511512E+01  0.25809709649E+01  0.33155247504E+01  0.00000000000E+00 0. -1.
</event>
<event>
 7    1  0.2353206E-008  0.4614232E+02  0.7816164E-02  0.1320468E+00
        -11   -1    0    0    0    0  0.00000000000E+00  0.00000000000E+00  0.45593999997E+02  0.45594000000E+02  0.51100000000E-03 0.  1.
         11   -1    0    0    0    0 -0.00000000000E+00 -0.00000000000E+00 -0.45593999997E+02  0.45594000000E+02  0.51100000000E-03 0. -1.
    9900012    2    1    2    0    0  0.23291561274E+02  0.15207456352E+02  0.35430917648E+02  0.46142317847E+02  0.10000000780E+02 0.  0.
         12    1    1    2    0    0 -0.23291561274E+02 -0.15207456352E+02 -0.35430917648E+02  0.45045682153E+02  0.00000000000E+00 0. -1.
         11    1    3    3    0    0 -0.46604378058E+00 -0.20686155388E+00  0.93595907563E-01  0.51841003358E+00  0.51100000000E-03 0. -1.
        -11    1    3    3    0    0  0.35616229531E+01  0.47315218474E+01  0.58881189469E+01  0.83511916543E+01  0.51100000000E-03 0.  1.
        -12    1    3    3    0    0  0.20195982101E+02  0.10682796059E+02  0.29449202794E+02  0.37272716159E+02  0.00000000000E+00 0.  1.
</event>
<event>
 7    1  0.2353206E-008  0.4614232E+02  0.7816164E-02  0.1320468E+00
        -11   -1    0    0    0    0  0.00000000000E+00  0.00000000000E+00  0.45593999997E+02  0.45594000000E+02  0.51100000000E-03 0. -1.
         11   -1    0    0    0    0 -0.00000000000E+00 -0.00000000000E+00 -0.45593999997E+02  0.45594000000E+02  0.51100000000E-03 0.  1.
    9900012    2    1    2    0    0 -0.15269065849E+02  0.41926466060E+02 -0.61758082190E+01  0.46142317239E+02  0.99999952423E+01 0.  0.
         12    1    1    2    0    0  0.15269065849E+02 -0.41926466060E+02  0.61758082190E+01  0.45045682761E+02  0.00000000000E+00 0. -1.
         11    1    3    3    0    0 -0.11236776866E+02  0.22554034365E+02 -0.44489204460E+01  0.25587936882E+02  0.51100000000E-03 0. -1.
        -11    1    3    3    0    0 -0.40614755869E+01  0.84390356960E+01  0.56789393039E+00  0.93827187530E+01  0.51100000000E-03 0.  1.
         12    1    3    3    0    0  0.29186603962E-01  0.10933395999E+02 -0.22947817034E+01  0.11171661605E+02  0.00000000000E+00 0. -1.
</event>
<event>
 7    1  0.2353206E-008  0.4614232E+02  0.7816164E-02  0.1320468E+00
        -11   -1    0    0    0    0  0.00000000000E+00  0.00000000000E+00  0.45593999997E+02  0.45594000000E+02  0.51100000000E-03 0. -1.
         11   -1    0    0    0    0 -0.00000000000E+00 -0.00000000000E+00 -0.45593999997E+02  0.45594000000E+02  0.51100000000E-03 0.  1.
    9900012    2    1    2    0    0 -0.16599430692E+02 -0.41872454460E+02  0.51963014894E+00  0.46142316996E+02  0.99999930191E+01 0.  0.
         12    1    1    2    0    0  0.16599430692E+02  0.41872454460E+02 -0.51963014894E+00  0.45045683004E+02  0.00000000000E+00 0. -1.
         11    1    3    3    0    0 -0.99287878985E+01 -0.18715951962E+02 -0.19582774018E+01  0.21276807506E+02  0.51100000000E-03 0. -1.
        -11    1    3    3    0    0 -0.30222693249E+01 -0.95763565419E+01 -0.17252700097E+01  0.10189076178E+02  0.51100000000E-03 0.  1.
         12    1    3    3    0    0 -0.36483734687E+01 -0.13580145956E+02  0.42031775604E+01  0.14676433312E+02  0.00000000000E+00 0. -1.
</event>
<event>
 7    1  0.2353206E-008  0.4614232E+02  0.7816164E-02  0.1320468E+00
        -11   -1    0    0    0    0  0.00000000000E+00  0.00000000000E+00  0.45593999997E+02  0.45594000000E+02  0.51100000000E-03 0.  1.
         11   -1    0    0    0    0 -0.00000000000E+00 -0.00000000000E+00 -0.45593999997E+02  0.45594000000E+02  0.51100000000E-03 0. -1.
    9900012    2    1    2    0    0 -0.23161923003E+02 -0.31832995837E+02  0.21892905541E+02  0.46142316364E+02  0.99999872640E+01 0.  0.
         12    1    1    2    0    0  0.23161923003E+02  0.31832995837E+02 -0.21892905541E+02  0.45045683636E+02  0.00000000000E+00 0. -1.
         11    1    3    3    0    0  0.25806190266E+00 -0.61686001884E+00 -0.68887159570E+00  0.96002946045E+00  0.51100000000E-03 0. -1.
        -11    1    3    3    0    0 -0.13105627963E+02 -0.19166749105E+02  0.14579737587E+02  0.27416974740E+02  0.51100000000E-03 0.  1.
         12    1    3    3    0    0 -0.10314356943E+02 -0.12049386714E+02  0.80020395499E+01  0.17765312164E+02  0.00000000000E+00 0. -1.
</event>
<event>
 7    1  0.2353206E-008  0.4614232E+02  0.7816164E-02  0.1320468E+00
        -11   -1    0    0    0    0  0.00000000000E+00  0.00000000000E+00  0.45593999997E+02  0.45594000000E+02  0.51100000000E-03 0.  1.
         11   -1    0    0    0    0 -0.00000000000E+00 -0.00000000000E+00 -0.45593999997E+02  0.45594000000E+02  0.51100000000E-03 0. -1.
    9900012    2    1    2    0    0  0.27827568621E+02 -0.22269775666E+02  0.27546270458E+02  0.46142317635E+02  0.99999988499E+01 0.  0.
         12    1    1    2    0    0 -0.27827568621E+02  0.22269775666E+02 -0.27546270458E+02  0.45045682365E+02  0.00000000000E+00 0. -1.
         11    1    3    3    0    0  0.84015083917E+01 -0.81864561830E+01  0.10130991419E+02  0.15499690174E+02  0.51100000000E-03 0. -1.
        -11    1    3    3    0    0  0.14229739643E+02 -0.11214444790E+02  0.87005032346E+01  0.20098458126E+02  0.51100000000E-03 0.  1.
        -12    1    3    3    0    0  0.51963205866E+01 -0.28688746930E+01  0.87147758044E+01  0.10544169335E+02  0.00000000000E+00 0.  1.
</event>
<event>
 7    1  0.2353206E-008  0.4614232E+02  0.7816164E-02  0.1320468E+00
        -11   -1    0    0    0    0  0.00000000000E+00  0.00000000000E+00  0.45593999997E+02  0.45594000000E+02  0.51100000000E-03 0.  1.
         11   -1    0    0    0    0 -0.00000000000E+00 -0.00000000000E+00 -0.45593999997E+02  0.45594000000E+02  0.51100000000E-03 0. -1.
    9900012    2    1    2    0    0 -0.39807982057E+02  0.95223118214E+01  0.18808605752E+02  0.46142317541E+02  0.99999979928E+01 0.  0.
         12    1    1    2    0    0  0.39807982057E+02 -0.95223118214E+01 -0.18808605752E+02  0.45045682459E+02  0.00000000000E+00 0. -1.
         11    1    3    3    0    0 -0.25841988054E+02  0.88539639536E+01  0.10258293566E+02  0.29179335350E+02  0.51100000000E-03 0. -1.
        -11    1    3    3    0    0 -0.11219083779E+01 -0.53796133472E+00 -0.34704538184E+00  0.12917126477E+01  0.51100000000E-03 0.  1.
        -12    1    3    3    0    0 -0.12844085625E+02  0.12063092025E+01  0.88973575676E+01  0.15671269544E+02  0.00000000000E+00 0.  1.
</event>
<event>
 7    1  0.2353206E-008  0.4614232E+02  0.7816164E-02  0.1320468E+00
        -11   -1    0    0    0    0  0.00000000000E+00  0.00000000000E+00  0.45593999997E+02  0.45594000000E+02  0.51100000000E-03 0.  1.
         11   -1    0    0    0    0 -0.00000000000E+00 -0.00000000000E+00 -0.45593999997E+02  0.45594000000E+02  0.51100000000E-03 0. -1.
    9900012    2    1    2    0    0  0.24030150161E+02  0.36114672784E+02 -0.12140667914E+02  0.46142317361E+02  0.99999963495E+01 0.  0.
         12    1    1    2    0    0 -0.24030150161E+02 -0.36114672784E+02  0.12140667914E+02  0.45045682639E+02  0.00000000000E+00 0. -1.
         11    1    3    3    0    0  0.16676656723E+02  0.23235749139E+02 -0.12211772456E+02  0.31098847314E+02  0.51100000000E-03 0. -1.
        -11    1    3    3    0    0  0.49547272761E+01  0.64564423291E+01  0.64290369656E+00  0.81638407232E+01  0.51100000000E-03 0.  1.
         12    1    3    3    0    0  0.23987661618E+01  0.64224813158E+01 -0.57179915428E+00  0.68796293231E+01  0.00000000000E+00 0. -1.
</event>
<event>
 7    1  0.2353206E-008  0.4614232E+02  0.7816164E-02  0.1320468E+00
        -11   -1    0    0    0    0  0.00000000000E+00  0.00000000000E+00  0.45593999997E+02  0.45594000000E+02  0.51100000000E-03 0.  1.
         11   -1    0    0    0    0 -0.00000000000E+00 -0.00000000000E+00 -0.45593999997E+02  0.45594000000E+02  0.51100000000E-03 0. -1.
    9900012    2    1    2    0    0  0.38444302388E+01  0.17233620732E+02  0.41440754687E+02  0.46142317893E+02  0.10000001207E+02 0.  0.
         12    1    1    2    0    0 -0.38444302388E+01 -0.17233620732E+02 -0.41440754687E+02  0.45045682107E+02  0.00000000000E+00 0. -1.
         11    1    3    3    0    0  0.64510416369E+00  0.76692275706E+01  0.11905004962E+02  0.14176119155E+02  0.51100000000E-03 0.  1.
        -11    1    3    3    0    0 -0.90237365786E+00  0.17797002704E+01  0.13747129570E+02  0.13891190840E+02  0.51100000000E-03 0. -1.
         12    1    3    3    0    0  0.41016997330E+01  0.77846928914E+01  0.15788620156E+02  0.18075007898E+02  0.00000000000E+00 0. -1.
</event>
<event>
 7    1  0.2353206E-008  0.4614232E+02  0.7816164E-02  0.1320468E+00
        -11   -1    0    0    0    0  0.00000000000E+00  0.00000000000E+00  0.45593999997E+02  0.45594000000E+02  0.51100000000E-03 0.  1.
         11   -1    0    0    0    0 -0.00000000000E+00 -0.00000000000E+00 -0.45593999997E+02  0.45594000000E+02  0.51100000000E-03 0. -1.
    9900012    2    1    2    0    0 -0.28008131276E+02 -0.34368262996E+02 -0.79674680010E+01  0.46142318017E+02  0.10000002337E+02 0.  0.
         12    1    1    2    0    0  0.28008131276E+02  0.34368262996E+02  0.79674680010E+01  0.45045681983E+02  0.00000000000E+00 0. -1.
         11    1    3    3    0    0 -0.13772041943E+02 -0.17607131202E+02 -0.51969394929E+01  0.22949692565E+02  0.51100000000E-03 0. -1.
        -11    1    3    3    0    0 -0.60033517089E+01 -0.12032410862E+02 -0.26057810174E+01  0.13697052160E+02  0.51100000000E-03 0.  1.
         12    1    3    3    0    0 -0.82327376233E+01 -0.47287209319E+01 -0.16474749075E+00  0.94955732930E+01  0.00000000000E+00 0. -1.
</event>
<event>
 7    1  0.2353206E-008  0.4614232E+02  0.7816164E-02  0.1320468E+00
        -11   -1    0    0    0    0  0.00000000000E+00  0.00000000000E+00  0.45593999997E+02  0.45594000000E+02  0.51100000000E-03 0.  1.
         11   -1    0    0    0    0 -0.00000000000E+00 -0.00000000000E+00 -0.45593999997E+02  0.45594000000E+02  0.51100000000E-03 0. -1.
    9900012    2    1    2    0    0  0.43233897510E+02 -0.11335018957E+02  0.56090187020E+01  0.46142316084E+02  0.99999847043E+01 0.  0.
         12    1    1    2    0    0 -0.43233897510E+02  0.11335018957E+02 -0.56090187020E+01  0.45045683916E+02  0.00000000000E+00 0. -1.
         11    1    3    3    0    0  0.29583571898E+01  0.79310950428E+00 -0.33426886042E+00  0.30810121519E+01  0.51100000000E-03 0. -1.
        -11    1    3    3    0    0  0.10195616497E+02 -0.54419342975E+01  0.38288058651E+01  0.12174768961E+02  0.51100000000E-03 0.  1.
        -12    1    3    3    0    0  0.30079923823E+02 -0.66861941642E+01  0.21144816973E+01  0.30886534970E+02  0.00000000000E+00 0.  1.
</event>
<event>
 7    1  0.2353206E-008  0.4614232E+02  0.7816164E-02  0.1320468E+00
        -11   -1    0    0    0    0  0.00000000000E+00  0.00000000000E+00  0.45593999997E+02  0.45594000000E+02  0.51100000000E-03 0.  1.
         11   -1    0    0    0    0 -0.00000000000E+00 -0.00000000000E+00 -0.45593999997E+02  0.45594000000E+02  0.51100000000E-03 0. -1.
    9900012    2    1    2    0    0  0.18902882758E+01  0.30762260069E+02  0.32851539319E+02  0.46142317966E+02  0.10000001867E+02 0.  0.
         12    1    1    2    0    0 -0.18902882758E+01 -0.30762260069E+02 -0.32851539319E+02  0.45045682034E+02  0.00000000000E+00 0. -1.
         11    1    3    3    0    0  0.39531367813E+01  0.76472462738E+01  0.69938120472E+01  0.11091486519E+02  0.51100000000E-03 0. -1.
        -11    1    3    3    0    0 -0.15587560275E+00  0.14860825603E+02  0.13564220270E+02  0.20121046359E+02  0.51100000000E-03 0.  1.
        -12    1    3    3    0    0 -0.19069729028E+01  0.82541881920E+01  0.12293507002E+02  0.14929785088E+02  0.00000000000E+00 0.  1.
</event>
<event>
 7    1  0.2353206E-008  0.4614232E+02  0.7816164E-02  0.1320468E+00
        -11   -1    0    0    0    0  0.00000000000E+00  0.00000000000E+00  0.45593999997E+02  0.45594000000E+02  0.51100000000E-03 0.  1.
         11   -1    0    0    0    0 -0.00000000000E+00 -0.00000000000E+00 -0.45593999997E+02  0.45594000000E+02  0.51100000000E-03 0. -1.
    9900012    2    1    2    0    0 -0.43828338068E+02  0.10121222825E+02  0.23981812824E+01  0.46142316048E+02  0.99999843756E+01 0.  0.
         12    1    1    2    0    0  0.43828338068E+02 -0.10121222825E+02 -0.23981812824E+01  0.45045683952E+02  0.00000000000E+00 0. -1.
         11    1    3    3    0    0 -0.21584356850E+02  0.30628621049E+01  0.48072295775E+01  0.22324315026E+02  0.51100000000E-03 0. -1.
        -11    1    3    3    0    0 -0.11462057740E+02  0.54854745810E+01 -0.24660685939E+00  0.12709445866E+02  0.51100000000E-03 0.  1.
         12    1    3    3    0    0 -0.10781923477E+02  0.15728861390E+01 -0.21624414357E+01  0.11108555156E+02  0.00000000000E+00 0. -1.
</event>
<event>
 7    1  0.2353206E-008  0.4614232E+02  0.7816164E-02  0.1320468E+00
        -11   -1    0    0    0    0  0.00000000000E+00  0.00000000000E+00  0.45593999997E+02  0.45594000000E+02  0.51100000000E-03 0.  1.
         11   -1    0    0    0    0 -0.00000000000E+00 -0.00000000000E+00 -0.45593999997E+02  0.45594000000E+02  0.51100000000E-03 0. -1.
    9900012    2    1    2    0    0 -0.27648464018E+02 -0.19185868672E+02  0.29942918208E+02  0.46142317965E+02  0.10000001857E+02 0.  0.
         12    1    1    2    0    0  0.27648464018E+02  0.19185868672E+02 -0.29942918208E+02  0.45045682035E+02  0.00000000000E+00 0. -1.
         11    1    3    3    0    0 -0.94023346035E+01 -0.49822259193E+01  0.99041596725E+01  0.14536810179E+02  0.51100000000E-03 0.  1.
        -11    1    3    3    0    0 -0.60062086639E+01 -0.71794188145E+01  0.12468249709E+02  0.15590889907E+02  0.51100000000E-03 0. -1.
         12    1    3    3    0    0 -0.12239920750E+02 -0.70242239381E+01  0.75705088263E+01  0.16014617879E+02  0.00000000000E+00 0. -1.
</event>
<event>
 7    1  0.2353206E-008  0.4614232E+02  0.7816164E-02  0.1320468E+00
        -11   -1    0    0    0    0  0.00000000000E+00  0.00000000000E+00  0.45593999997E+02  0.45594000000E+02  0.51100000000E-03 0. -1.
         11   -1    0    0    0    0 -0.00000000000E+00 -0.00000000000E+00 -0.45593999997E+02  0.45594000000E+02  0.51100000000E-03 0.  1.
    9900012    2    1    2    0    0  0.33905978729E+02 -0.47345780133E+01  0.29275956609E+02  0.46142320319E+02  0.10000023324E+02 0.  0.
         12    1    1    2    0    0 -0.33905978729E+02  0.47345780133E+01 -0.29275956609E+02  0.45045679681E+02  0.00000000000E+00 0. -1.
         11    1    3    3    0    0  0.13662265845E+01 -0.15349420337E+01 -0.52379811226E-02  0.20549087145E+01  0.51100000000E-03 0. -1.
        -11    1    3    3    0    0  0.25394652919E+01  0.64372637408E+00  0.14968963661E+01  0.30172780126E+01  0.51100000000E-03 0.  1.
        -12    1    3    3    0    0  0.30000286853E+02 -0.38433623537E+01  0.27784298224E+02  0.41070133592E+02  0.00000000000E+00 0.  1.
</event>
<event>
 7    1  0.2353206E-008  0.4614232E+02  0.7816164E-02  0.1320468E+00
        -11   -1    0    0    0    0  0.00000000000E+00  0.00000000000E+00  0.45593999997E+02  0.45594000000E+02  0.51100000000E-03 0. -1.
         11   -1    0    0    0    0 -0.00000000000E+00 -0.00000000000E+00 -0.45593999997E+02  0.45594000000E+02  0.51100000000E-03 0.  1.
    9900012    2    1    2    0    0  0.98585743203E+01  0.36807973605E+02 -0.24022807276E+02  0.46142315657E+02  0.99999808085E+01 0.  0.
         12    1    1    2    0    0 -0.98585743203E+01 -0.36807973605E+02  0.24022807276E+02  0.45045684343E+02  0.00000000000E+00 0. -1.
         11    1    3    3    0    0  0.87137956358E+00  0.58869332749E+01 -0.21276660306E+01  0.63199880321E+01  0.51100000000E-03 0. -1.
        -11    1    3    3    0    0  0.15733083574E+01  0.19958145239E+02 -0.12742654887E+02  0.23731374052E+02  0.51100000000E-03 0.  1.
         12    1    3    3    0    0  0.74138863993E+01  0.10962895091E+02 -0.91524863590E+01  0.16090953573E+02  0.00000000000E+00 0. -1.
</event>
<event>
 7    1  0.2353206E-008  0.4614232E+02  0.7816164E-02  0.1320468E+00
        -11   -1    0    0    0    0  0.00000000000E+00  0.00000000000E+00  0.45593999997E+02  0.45594000000E+02  0.51100000000E-03 0.  1.
         11   -1    0    0    0    0 -0.00000000000E+00 -0.00000000000E+00 -0.45593999997E+02  0.45594000000E+02  0.51100000000E-03 0. -1.
    9900012    2    1    2    0    0 -0.27961288695E+02 -0.19084792347E+02  0.29716166298E+02  0.46142317589E+02  0.99999984324E+01 0.  0.
         12    1    1    2    0    0  0.27961288695E+02  0.19084792347E+02 -0.29716166298E+02  0.45045682411E+02  0.00000000000E+00 0. -1.
         11    1    3    3    0    0  0.59116494853E-01 -0.12721762953E+01  0.24402336725E+01  0.27525747808E+01  0.51100000000E-03 0. -1.
        -11    1    3    3    0    0 -0.47817779586E+01 -0.50063713999E+01  0.80808633152E+01  0.10640935449E+02  0.51100000000E-03 0.  1.
         12    1    3    3    0    0 -0.23238627231E+02 -0.12806244652E+02  0.19195069310E+02  0.32748807360E+02  0.00000000000E+00 0. -1.
</event>
<event>
 7    1  0.2353206E-008  0.4614232E+02  0.7816164E-02  0.1320468E+00
        -11   -1    0    0    0    0  0.00000000000E+00  0.00000000000E+00  0.45593999997E+02  0.45594000000E+02  0.51100000000E-03 0. -1.
         11   -1    0    0    0    0 -0.00000000000E+00 -0.00000000000E+00 -0.45593999997E+02  0.45594000000E+02  0.51100000000E-03 0.  1.
    9900012    2    1    2    0    0 -0.14573542881E+02 -0.39605805916E+02 -0.15751363803E+02  0.46142317898E+02  0.10000001249E+02 0.  0.
         12    1    1    2    0    0  0.14573542881E+02  0.39605805916E+02  0.15751363803E+02  0.45045682102E+02  0.00000000000E+00 0. -1.
         11    1    3    3    0    0 -0.39461661428E+01 -0.17298928950E+02 -0.33301219256E+01  0.18053112816E+02  0.51100000000E-03 0. -1.
        -11    1    3    3    0    0 -0.60313289973E+01 -0.17047190671E+02 -0.10192409925E+02  0.20757380846E+02  0.51100000000E-03 0.  1.
         12    1    3    3    0    0 -0.45960477405E+01 -0.52596862956E+01 -0.22288319526E+01  0.73318242364E+01  0.00000000000E+00 0. -1.
</event>
<event>
 7    1  0.2353206E-008  0.4614231E+02  0.7816164E-02  0.1320468E+00
        -11   -1    0    0    0    0  0.00000000000E+00  0.00000000000E+00  0.45593999997E+02  0.45594000000E+02  0.51100000000E-03 0.  1.
         11   -1    0    0    0    0 -0.00000000000E+00 -0.00000000000E+00 -0.45593999997E+02  0.45594000000E+02  0.51100000000E-03 0. -1.
    9900012    2    1    2    0    0 -0.14411719391E+02  0.35816252586E+02  0.23208019055E+02  0.46142314818E+02  0.99999731595E+01 0.  0.
         12    1    1    2    0    0  0.14411719391E+02 -0.35816252586E+02 -0.23208019055E+02  0.45045685182E+02  0.00000000000E+00 0. -1.
         11    1    3    3    0    0 -0.55953354270E+01  0.14814095216E+02  0.13124259756E+02  0.20567240700E+02  0.51100000000E-03 0. -1.
        -11    1    3    3    0    0 -0.80893006288E+01  0.21245350450E+02  0.96773836053E+01  0.24707356275E+02  0.51100000000E-03 0.  1.
         12    1    3    3    0    0 -0.72708333487E+00 -0.24319307991E+00  0.40637569361E+00  0.86771784257E+00  0.00000000000E+00 0. -1.
</event>
<event>
 7    1  0.2353206E-008  0.4614232E+02  0.7816164E-02  0.1320468E+00
        -11   -1    0    0    0    0  0.00000000000E+00  0.00000000000E+00  0.45593999997E+02  0.45594000000E+02  0.51100000000E-03 0. -1.
         11   -1    0    0    0    0 -0.00000000000E+00 -0.00000000000E+00 -0.45593999997E+02  0.45594000000E+02  0.51100000000E-03 0.  1.
    9900012    2    1    2    0    0 -0.22404308353E+02 -0.34570289588E+02 -0.18222390682E+02  0.46142317885E+02  0.10000001132E+02 0.  0.
         12    1    1    2    0    0  0.22404308353E+02  0.34570289588E+02  0.18222390682E+02  0.45045682115E+02  0.00000000000E+00 0. -1.
         11    1    3    3    0    0 -0.11345204222E+02 -0.14253190164E+02 -0.11992093101E+02  0.21810029479E+02  0.51100000000E-03 0. -1.
        -11    1    3    3    0    0 -0.33301738806E+01 -0.31688064427E+01 -0.21980048777E+01  0.50953525933E+01  0.51100000000E-03 0.  1.
         12    1    3    3    0    0 -0.77289302503E+01 -0.17148292982E+02 -0.40322927033E+01  0.19236935813E+02  0.00000000000E+00 0. -1.
</event>
<event>
 7    1  0.2353206E-008  0.4614232E+02  0.7816164E-02  0.1320468E+00
        -11   -1    0    0    0    0  0.00000000000E+00  0.00000000000E+00  0.45593999997E+02  0.45594000000E+02  0.51100000000E-03 0.  1.
         11   -1    0    0    0    0 -0.00000000000E+00 -0.00000000000E+00 -0.45593999997E+02  0.45594000000E+02  0.51100000000E-03 0. -1.
    9900012    2    1    2    0    0 -0.87851647048E+01  0.10318661306E+01  0.44168649886E+02  0.46142317639E+02  0.99999988872E+01 0.  0.
         12    1    1    2    0    0  0.87851647048E+01 -0.10318661306E+01 -0.44168649886E+02  0.45045682361E+02  0.00000000000E+00 0. -1.
         11    1    3    3    0    0 -0.19909938590E+01 -0.33840878332E+01  0.11298806920E+02  0.11961569508E+02  0.51100000000E-03 0. -1.
        -11    1    3    3    0    0 -0.67502616842E+00 -0.35393049895E+00  0.10033522073E+02  0.10062429755E+02  0.51100000000E-03 0.  1.
         12    1    3    3    0    0 -0.61191446774E+01  0.47698844627E+01  0.22836320893E+02  0.24118318377E+02  0.00000000000E+00 0. -1.
</event>
<event>
 7    1  0.2353206E-008  0.4614232E+02  0.7816164E-02  0.1320468E+00
        -11   -1    0    0    0    0  0.00000000000E+00  0.00000000000E+00  0.45593999997E+02  0.45594000000E+02  0.51100000000E-03 0.  1.
         11   -1    0    0    0    0 -0.00000000000E+00 -0.00000000000E+00 -0.45593999997E+02  0.45594000000E+02  0.51100000000E-03 0. -1.
    9900012    2    1    2    0    0  0.10656199583E+02 -0.12695392889E+02  0.41885390553E+02  0.46142317277E+02  0.99999955889E+01 0.  0.
         12    1    1    2    0    0 -0.10656199583E+02  0.12695392889E+02 -0.41885390553E+02  0.45045682723E+02  0.00000000000E+00 0. -1.
         11    1    3    3    0    0  0.79679927048E+01 -0.79661745201E+01  0.24780355930E+02  0.27221588574E+02  0.51100000000E-03 0.  1.
        -11    1    3    3    0    0  0.35805756459E+01 -0.38162706104E+01  0.70233307576E+01  0.87585169132E+01  0.51100000000E-03 0. -1.
        -12    1    3    3    0    0 -0.89236876802E+00 -0.91294775866E+00  0.10081703866E+02  0.10162211790E+02  0.00000000000E+00 0.  1.
</event>
<event>
 7    1  0.2353206E-008  0.4614231E+02  0.7816164E-02  0.1320468E+00
        -11   -1    0    0    0    0  0.00000000000E+00  0.00000000000E+00  0.45593999997E+02  0.45594000000E+02  0.51100000000E-03 0.  1.
         11   -1    0    0    0    0 -0.00000000000E+00 -0.00000000000E+00 -0.45593999997E+02  0.45594000000E+02  0.51100000000E-03 0. -1.
    9900012    2    1    2    0    0 -0.27232279409E+02  0.19027683808E+02  0.30421441240E+02  0.46142313413E+02  0.99999603541E+01 0.  0.
         12    1    1    2    0    0  0.27232279409E+02 -0.19027683808E+02 -0.30421441240E+02  0.45045686587E+02  0.00000000000E+00 0. -1.
         11    1    3    3    0    0 -0.69627076824E+01  0.47196202839E+01  0.97647805928E+01  0.12888174975E+02  0.51100000000E-03 0. -1.
        -11    1    3    3    0    0 -0.12765142987E+02  0.79672429086E+01  0.17166737551E+02  0.22828112349E+02  0.51100000000E-03 0.  1.
         12    1    3    3    0    0 -0.75044287402E+01  0.63408206153E+01  0.34899230967E+01  0.10426026089E+02  0.00000000000E+00 0. -1.
</event>
<event>
 7    1  0.2353206E-008  0.4614232E+02  0.7816164E-02  0.1320468E+00
        -11   -1    0    0    0    0  0.00000000000E+00  0.00000000000E+00  0.45593999997E+02  0.45594000000E+02  0.51100000000E-03 0.  1.
         11   -1    0    0    0    0 -0.00000000000E+00 -0.00000000000E+00 -0.45593999997E+02  0.45594000000E+02  0.51100000000E-03 0. -1.
    9900012    2    1    2    0    0 -0.54486088056E+01 -0.39845524994E+02  0.20291879228E+02  0.46142316938E+02  0.99999924926E+01 0.  0.
         12    1    1    2    0    0  0.54486088056E+01  0.39845524994E+02 -0.20291879228E+02  0.45045683062E+02  0.00000000000E+00 0. -1.
         11    1    3    3    0    0 -0.49537393631E+01 -0.22268824793E+02  0.15134508625E+02  0.27376877888E+02  0.51100000000E-03 0. -1.
        -11    1    3    3    0    0  0.39476360270E+00 -0.76734366097E+01  0.42508201032E+01  0.87810557176E+01  0.51100000000E-03 0.  1.
        -12    1    3    3    0    0 -0.88963304524E+00 -0.99032635910E+01  0.90655049973E+00  0.99843833318E+01  0.00000000000E+00 0.  1.
</event>
<event>
 7    1  0.2353206E-008  0.4614232E+02  0.7816164E-02  0.1320468E+00
        -11   -1    0    0    0    0  0.00000000000E+00  0.00000000000E+00  0.45593999997E+02  0.45594000000E+02  0.51100000000E-03 0.  1.
         11   -1    0    0    0    0 -0.00000000000E+00 -0.00000000000E+00 -0.45593999997E+02  0.45594000000E+02  0.51100000000E-03 0. -1.
    9900012    2    1    2    0    0  0.41115932462E+02  0.10232919348E+01  0.18372439134E+02  0.46142317095E+02  0.99999939270E+01 0.  0.
         12    1    1    2    0    0 -0.41115932462E+02 -0.10232919348E+01 -0.18372439134E+02  0.45045682905E+02  0.00000000000E+00 0. -1.
         11    1    3    3    0    0  0.14834981751E+02 -0.47855896184E-01  0.23842096405E+01  0.15025426104E+02  0.51100000000E-03 0. -1.
        -11    1    3    3    0    0  0.13614899054E+02 -0.86596857520E+00  0.61616072561E+01  0.14969328043E+02  0.51100000000E-03 0.  1.
        -12    1    3    3    0    0  0.12666051657E+02  0.19371164062E+01  0.98266222373E+01  0.16147562948E+02  0.00000000000E+00 0.  1.
</event>
<event>
 7    1  0.2353206E-008  0.4614232E+02  0.7816164E-02  0.1320468E+00
        -11   -1    0    0    0    0  0.00000000000E+00  0.00000000000E+00  0.45593999997E+02  0.45594000000E+02  0.51100000000E-03 0.  1.
         11   -1    0    0    0    0 -0.00000000000E+00 -0.00000000000E+00 -0.45593999997E+02  0.45594000000E+02  0.51100000000E-03 0. -1.
    9900012    2    1    2    0    0  0.85817070040E+00  0.35166942613E+02  0.28136510300E+02  0.46142317392E+02  0.99999966383E+01 0.  0.
         12    1    1    2    0    0 -0.85817070040E+00 -0.35166942613E+02 -0.28136510300E+02  0.45045682608E+02  0.00000000000E+00 0. -1.
         11    1    3    3    0    0  0.41438432746E+00  0.94306907352E+01  0.10587466576E+02  0.14184642783E+02  0.51100000000E-03 0.  1.
        -11    1    3    3    0    0  0.31931881537E+01  0.62597988769E+01  0.42121637675E+01  0.81929150142E+01  0.51100000000E-03 0. -1.
        -12    1    3    3    0    0 -0.27494017808E+01  0.19476453001E+02  0.13336879957E+02  0.23764759595E+02  0.00000000000E+00 0.  1.
</event>
<event>
 7    1  0.2353206E-008  0.4614232E+02  0.7816164E-02  0.1320468E+00
        -11   -1    0    0    0    0  0.00000000000E+00  0.00000000000E+00  0.45593999997E+02  0.45594000000E+02  0.51100000000E-03 0. -1.
         11   -1    0    0    0    0 -0.00000000000E+00 -0.00000000000E+00 -0.45593999997E+02  0.45594000000E+02  0.51100000000E-03 0.  1.
    9900012    2    1    2    0    0  0.24556904366E+02  0.32549237355E+02 -0.19147300695E+02  0.46142317318E+02  0.99999959603E+01 0.  0.
         12    1    1    2    0    0 -0.24556904366E+02 -0.32549237355E+02  0.19147300695E+02  0.45045682682E+02  0.00000000000E+00 0. -1.
         11    1    3    3    0    0  0.83291097117E+01  0.15978660125E+02 -0.44014577006E+01  0.18548975124E+02  0.51100000000E-03 0. -1.
        -11    1    3    3    0    0  0.65387192547E+01  0.52848277723E+01 -0.61182629664E+01  0.10397951532E+02  0.51100000000E-03 0.  1.
        -12    1    3    3    0    0  0.96890753993E+01  0.11285749457E+02 -0.86275800277E+01  0.17195390662E+02  0.00000000000E+00 0.  1.
</event>
<event>
 7    1  0.2353206E-008  0.4614232E+02  0.7816164E-02  0.1320468E+00
        -11   -1    0    0    0    0  0.00000000000E+00  0.00000000000E+00  0.45593999997E+02  0.45594000000E+02  0.51100000000E-03 0.  1.
         11   -1    0    0    0    0 -0.00000000000E+00 -0.00000000000E+00 -0.45593999997E+02  0.45594000000E+02  0.51100000000E-03 0. -1.
    9900012    2    1    2    0    0  0.41142664863E+02 -0.10146618315E+02 -0.15278770042E+02  0.46142317085E+02  0.99999938355E+01 0.  0.
         12    1    1    2    0    0 -0.41142664863E+02  0.10146618315E+02  0.15278770042E+02  0.45045682915E+02  0.00000000000E+00 0. -1.
         11    1    3    3    0    0  0.39996725442E+01  0.12522055756E+01 -0.64377752370E+00  0.42402652070E+01  0.51100000000E-03 0. -1.
        -11    1    3    3    0    0  0.10098130483E+02 -0.50276094232E+01 -0.23524863902E+01  0.11523163118E+02  0.51100000000E-03 0.  1.
         12    1    3    3    0    0  0.27044861836E+02 -0.63712144669E+01 -0.12282506128E+02  0.30378888760E+02  0.00000000000E+00 0. -1.
</event>
<event>
 7    1  0.2353206E-008  0.4614232E+02  0.7816164E-02  0.1320468E+00
        -11   -1    0    0    0    0  0.00000000000E+00  0.00000000000E+00  0.45593999997E+02  0.45594000000E+02  0.51100000000E-03 0.  1.
         11   -1    0    0    0    0 -0.00000000000E+00 -0.00000000000E+00 -0.45593999997E+02  0.45594000000E+02  0.51100000000E-03 0. -1.
    9900012    2    1    2    0    0  0.17411871820E+02  0.29555810188E+02  0.29195791959E+02  0.46142318029E+02  0.10000002439E+02 0.  0.
         12    1    1    2    0    0 -0.17411871820E+02 -0.29555810188E+02 -0.29195791959E+02  0.45045681971E+02  0.00000000000E+00 0. -1.
         11    1    3    3    0    0  0.41913603171E+01  0.55424298456E+01  0.61175538478E+01  0.92579962866E+01  0.51100000000E-03 0. -1.
        -11    1    3    3    0    0  0.82496118238E+01  0.69333160810E+01  0.10890784234E+02  0.15321101417E+02  0.51100000000E-03 0.  1.
         12    1    3    3    0    0  0.49708996796E+01  0.17080064261E+02  0.12187453877E+02  0.21563220325E+02  0.00000000000E+00 0. -1.
</event>
<event>
 7    1  0.2353206E-008  0.4614232E+02  0.7816164E-02  0.1320468E+00
        -11   -1    0    0    0    0  0.00000000000E+00  0.00000000000E+00  0.45593999997E+02  0.45594000000E+02  0.51100000000E-03 0.  1.
         11   -1    0    0    0    0 -0.00000000000E+00 -0.00000000000E+00 -0.45593999997E+02  0.45594000000E+02  0.51100000000E-03 0. -1.
    9900012    2    1    2    0    0 -0.30415682789E+02  0.33182985715E+02 -0.16997505053E+01  0.46142318162E+02  0.10000003651E+02 0.  0.
         12    1    1    2    0    0  0.30415682789E+02 -0.33182985715E+02  0.16997505053E+01  0.45045681838E+02  0.00000000000E+00 0. -1.
         11    1    3    3    0    0 -0.76684213746E+01  0.59098010569E+01 -0.37524227709E+01  0.10383212982E+02  0.51100000000E-03 0. -1.
        -11    1    3    3    0    0 -0.92755575921E+01  0.84343131674E+01  0.49385936431E+00  0.12546613271E+02  0.51100000000E-03 0.  1.
         12    1    3    3    0    0 -0.13471703823E+02  0.18838871491E+02  0.15588129013E+01  0.23212491908E+02  0.00000000000E+00 0. -1.
</event>
<event>
 7    1  0.2353206E-008  0.4614232E+02  0.7816164E-02  0.1320468E+00
        -11   -1    0    0    0    0  0.00000000000E+00  0.00000000000E+00  0.45593999997E+02  0.45594000000E+02  0.51100000000E-03 0.  1.
         11   -1    0    0    0    0 -0.00000000000E+00 -0.00000000000E+00 -0.45593999997E+02  0.45594000000E+02  0.51100000000E-03 0. -1.
    9900012    2    1    2    0    0  0.28562005176E+01 -0.34044651614E+02  0.29358426831E+02  0.46142318621E+02  0.10000007844E+02 0.  0.
         12    1    1    2    0    0 -0.28562005176E+01  0.34044651614E+02 -0.29358426831E+02  0.45045681379E+02  0.00000000000E+00 0. -1.
         11    1    3    3    0    0 -0.11884179441E+01 -0.91761411209E+01  0.63544728990E+01  0.11224670559E+02  0.51100000000E-03 0. -1.
        -11    1    3    3    0    0  0.29799290018E+01 -0.22789851475E+02  0.17340337761E+02  0.28791398386E+02  0.51100000000E-03 0.  1.
        -12    1    3    3    0    0  0.10646894600E+01 -0.20786590175E+01  0.56636161709E+01  0.61262496757E+01  0.00000000000E+00 0.  1.
</event>
<event>
 7    1  0.2353206E-008  0.4614232E+02  0.7816164E-02  0.1320468E+00
        -11   -1    0    0    0    0  0.00000000000E+00  0.00000000000E+00  0.45593999997E+02  0.45594000000E+02  0.51100000000E-03 0.  1.
         11   -1    0    0    0    0 -0.00000000000E+00 -0.00000000000E+00 -0.45593999997E+02  0.45594000000E+02  0.51100000000E-03 0. -1.
    9900012    2    1    2    0    0 -0.42576661048E+02 -0.30525387391E+01  0.14388305066E+02  0.46142318948E+02  0.10000010820E+02 0.  0.
         12    1    1    2    0    0  0.42576661048E+02  0.30525387391E+01 -0.14388305066E+02  0.45045681052E+02  0.00000000000E+00 0. -1.
         11    1    3    3    0    0 -0.10055623874E+02  0.17639261723E+01  0.41893390072E+00  0.10217754788E+02  0.51100000000E-03 0. -1.
        -11    1    3    3    0    0 -0.12600931144E+02 -0.44221824465E-02  0.50736586176E+01  0.13584016243E+02  0.51100000000E-03 0.  1.
         12    1    3    3    0    0 -0.19920106030E+02 -0.48120427290E+01  0.88957125479E+01  0.22340547917E+02  0.00000000000E+00 0. -1.
</event>
<event>
 7    1  0.2353206E-008  0.4614232E+02  0.7816164E-02  0.1320468E+00
        -11   -1    0    0    0    0  0.00000000000E+00  0.00000000000E+00  0.45593999997E+02  0.45594000000E+02  0.51100000000E-03 0.  1.
         11   -1    0    0    0    0 -0.00000000000E+00 -0.00000000000E+00 -0.45593999997E+02  0.45594000000E+02  0.51100000000E-03 0. -1.
    9900012    2    1    2    0    0 -0.16191487544E+02  0.10355732471E+02  0.40739514640E+02  0.46142317443E+02  0.99999970969E+01 0.  0.
         12    1    1    2    0    0  0.16191487544E+02 -0.10355732471E+02 -0.40739514640E+02  0.45045682557E+02  0.00000000000E+00 0. -1.
         11    1    3    3    0    0 -0.72324095388E+01  0.65052289154E+01  0.17911657833E+02  0.20382670030E+02  0.51100000000E-03 0. -1.
        -11    1    3    3    0    0 -0.44769126889E+01  0.54867845485E+01  0.15088139265E+02  0.16667318280E+02  0.51100000000E-03 0.  1.
         12    1    3    3    0    0 -0.44821653167E+01 -0.16362809931E+01  0.77397175425E+01  0.90923291324E+01  0.00000000000E+00 0. -1.
</event>
<event>
 7    1  0.2353206E-008  0.4614232E+02  0.7816164E-02  0.1320468E+00
        -11   -1    0    0    0    0  0.00000000000E+00  0.00000000000E+00  0.45593999997E+02  0.45594000000E+02  0.51100000000E-03 0.  1.
         11   -1    0    0    0    0 -0.00000000000E+00 -0.00000000000E+00 -0.45593999997E+02  0.45594000000E+02  0.51100000000E-03 0. -1.
    9900012    2    1    2    0    0  0.71606702957E+01 -0.66634055442E+01  0.43970868659E+02  0.46142318041E+02  0.10000002551E+02 0.  0.
         12    1    1    2    0    0 -0.71606702957E+01  0.66634055442E+01 -0.43970868659E+02  0.45045681959E+02  0.00000000000E+00 0. -1.
         11    1    3    3    0    0  0.15701140447E+01 -0.47745410741E+01  0.12626328956E+02  0.13589911102E+02  0.51100000000E-03 0. -1.
        -11    1    3    3    0    0  0.46891890062E+01 -0.36789418458E+01  0.15936346059E+02  0.17014412497E+02  0.51100000000E-03 0.  1.
         12    1    3    3    0    0  0.90136724479E+00  0.17900773757E+01  0.15408193644E+02  0.15537994442E+02  0.00000000000E+00 0. -1.
</event>
<event>
 7    1  0.2353206E-008  0.4614232E+02  0.7816164E-02  0.1320468E+00
        -11   -1    0    0    0    0  0.00000000000E+00  0.00000000000E+00  0.45593999997E+02  0.45594000000E+02  0.51100000000E-03 0.  1.
         11   -1    0    0    0    0 -0.00000000000E+00 -0.00000000000E+00 -0.45593999997E+02  0.45594000000E+02  0.51100000000E-03 0. -1.
    9900012    2    1    2    0    0 -0.36131364835E+02 -0.46603070213E+01  0.26493762232E+02  0.46142318481E+02  0.10000006561E+02 0.  0.
         12    1    1    2    0    0  0.36131364835E+02  0.46603070213E+01 -0.26493762232E+02  0.45045681519E+02  0.00000000000E+00 0. -1.
         11    1    3    3    0    0 -0.26376649938E+01 -0.14464426403E+01  0.51764749991E+01  0.59871000166E+01  0.51100000000E-03 0. -1.
        -11    1    3    3    0    0 -0.19747506480E+02 -0.38663477788E+01  0.14464433253E+02  0.24781696611E+02  0.51100000000E-03 0.  1.
        -12    1    3    3    0    0 -0.13746193361E+02  0.65248339785E+00  0.68528539793E+01  0.15373521853E+02  0.00000000000E+00 0.  1.
</event>
<event>
 7    1  0.2353206E-008  0.4614232E+02  0.7816164E-02  0.1320468E+00
        -11   -1    0    0    0    0  0.00000000000E+00  0.00000000000E+00  0.45593999997E+02  0.45594000000E+02  0.51100000000E-03 0.  1.
         11   -1    0    0    0    0 -0.00000000000E+00 -0.00000000000E+00 -0.45593999997E+02  0.45594000000E+02  0.51100000000E-03 0. -1.
    9900012    2    1    2    0    0 -0.36840745964E+02  0.12374359847E+02  0.22776042630E+02  0.46142318046E+02  0.10000002600E+02 0.  0.
         12    1    1    2    0    0  0.36840745964E+02 -0.12374359847E+02 -0.22776042630E+02  0.45045681954E+02  0.00000000000E+00 0. -1.
         11    1    3    3    0    0 -0.96751635110E+01  0.18143302037E+01  0.71768649437E+01  0.12182281138E+02  0.51100000000E-03 0.  1.
        -11    1    3    3    0    0 -0.22343359558E+02  0.63649890790E+01  0.14733099552E+02  0.27510053163E+02  0.51100000000E-03 0. -1.
         12    1    3    3    0    0 -0.48222228946E+01  0.41950405640E+01  0.86607813393E+00  0.64499837452E+01  0.00000000000E+00 0. -1.
</event>
<event>
 7    1  0.2353206E-008  0.4614232E+02  0.7816164E-02  0.1320468E+00
        -11   -1    0    0    0    0  0.00000000000E+00  0.00000000000E+00  0.45593999997E+02  0.45594000000E+02  0.51100000000E-03 0.  1.
         11   -1    0    0    0    0 -0.00000000000E+00 -0.00000000000E+00 -0.45593999997E+02  0.45594000000E+02  0.51100000000E-03 0. -1.
    9900012    2    1    2    0    0  0.35233149831E+02  0.64318226349E+01  0.27319781155E+02  0.46142316169E+02  0.99999854816E+01 0.  0.
         12    1    1    2    0    0 -0.35233149831E+02 -0.64318226349E+01 -0.27319781155E+02  0.45045683831E+02  0.00000000000E+00 0. -1.
         11    1    3    3    0    0  0.21970695176E+02  0.37386023306E+01  0.17504694822E+02  0.28339070821E+02  0.51100000000E-03 0. -1.
        -11    1    3    3    0    0  0.10958400505E+02  0.80623445069E-01  0.55117288766E+01  0.12266710938E+02  0.51100000000E-03 0.  1.
         12    1    3    3    0    0  0.23040541498E+01  0.26125968592E+01  0.43033574562E+01  0.55365344097E+01  0.00000000000E+00 0. -1.
</event>
<event>
 7    1  0.2353206E-008  0.4614232E+02  0.7816164E-02  0.1320468E+00
        -11   -1    0    0    0    0  0.00000000000E+00  0.00000000000E+00  0.45593999997E+02  0.45594000000E+02  0.51100000000E-03 0. -1.
         11   -1    0    0    0    0 -0.00000000000E+00 -0.00000000000E+00 -0.45593999997E+02  0.45594000000E+02  0.51100000000E-03 0.  1.
    9900012    2    1    2    0    0 -0.20011117807E+02 -0.31768760256E+02 -0.24888041309E+02  0.46142316919E+02  0.99999923205E+01 0.  0.
         12    1    1    2    0    0  0.20011117807E+02  0.31768760256E+02  0.24888041309E+02  0.45045683081E+02  0.00000000000E+00 0. -1.
         11    1    3    3    0    0  0.65708697179E+00 -0.22836966335E+01 -0.28827351239E+01  0.37359330372E+01  0.51100000000E-03 0. -1.
        -11    1    3    3    0    0 -0.24139308983E+00 -0.50146826162E+00 -0.11292009325E+01  0.12589027160E+01  0.51100000000E-03 0.  1.
        -12    1    3    3    0    0 -0.20426811689E+02 -0.28983595360E+02 -0.20876105252E+02  0.41147481166E+02  0.00000000000E+00 0.  1.
</event>
<event>
 7    1  0.2353206E-008  0.4614232E+02  0.7816164E-02  0.1320468E+00
        -11   -1    0    0    0    0  0.00000000000E+00  0.00000000000E+00  0.45593999997E+02  0.45594000000E+02  0.51100000000E-03 0.  1.
         11   -1    0    0    0    0 -0.00000000000E+00 -0.00000000000E+00 -0.45593999997E+02  0.45594000000E+02  0.51100000000E-03 0. -1.
    9900012    2    1    2    0    0  0.40529691706E+02  0.10377563269E+02  0.16696220569E+02  0.46142317515E+02  0.99999977601E+01 0.  0.
         12    1    1    2    0    0 -0.40529691706E+02 -0.10377563269E+02 -0.16696220569E+02  0.45045682485E+02  0.00000000000E+00 0. -1.
         11    1    3    3    0    0  0.91805675374E+00 -0.89682116566E+00  0.15788104303E+01  0.20346397819E+01  0.51100000000E-03 0. -1.
        -11    1    3    3    0    0  0.99292055806E+01  0.13753578051E+01  0.51454929653E+01  0.11267512178E+02  0.51100000000E-03 0.  1.
        -12    1    3    3    0    0  0.29682429372E+02  0.98990266296E+01  0.99719171737E+01  0.32840165556E+02  0.00000000000E+00 0.  1.
</event>
<event>
 7    1  0.2353206E-008  0.4614232E+02  0.7816164E-02  0.1320468E+00
        -11   -1    0    0    0    0  0.00000000000E+00  0.00000000000E+00  0.45593999997E+02  0.45594000000E+02  0.51100000000E-03 0.  1.
         11   -1    0    0    0    0 -0.00000000000E+00 -0.00000000000E+00 -0.45593999997E+02  0.45594000000E+02  0.51100000000E-03 0. -1.
    9900012    2    1    2    0    0  0.30513541453E+02 -0.29864746474E+02  0.14357370926E+02  0.46142318810E+02  0.10000009569E+02 0.  0.
         12    1    1    2    0    0 -0.30513541453E+02  0.29864746474E+02 -0.14357370926E+02  0.45045681190E+02  0.00000000000E+00 0. -1.
         11    1    3    3    0    0  0.38213778669E+01 -0.20989835032E+01  0.32898081868E+01  0.54618219227E+01  0.51100000000E-03 0. -1.
        -11    1    3    3    0    0  0.34808430735E+01 -0.35941101113E+01  0.40613101987E+01  0.64442328314E+01  0.51100000000E-03 0.  1.
         12    1    3    3    0    0  0.23211320512E+02 -0.24171652859E+02  0.70062525405E+01  0.34236264056E+02  0.00000000000E+00 0. -1.
</event>
<event>
 7    1  0.2353206E-008  0.4614232E+02  0.7816164E-02  0.1320468E+00
        -11   -1    0    0    0    0  0.00000000000E+00  0.00000000000E+00  0.45593999997E+02  0.45594000000E+02  0.51100000000E-03 0.  1.
         11   -1    0    0    0    0 -0.00000000000E+00 -0.00000000000E+00 -0.45593999997E+02  0.45594000000E+02  0.51100000000E-03 0. -1.
    9900012    2    1    2    0    0 -0.17148930387E+02  0.14954899168E+01  0.41626808774E+02  0.46142317496E+02  0.99999975861E+01 0.  0.
         12    1    1    2    0    0  0.17148930387E+02 -0.14954899168E+01 -0.41626808774E+02  0.45045682504E+02  0.00000000000E+00 0. -1.
         11    1    3    3    0    0 -0.48461004284E+01  0.75131914422E+00  0.16428109586E+02  0.17144443842E+02  0.51100000000E-03 0.  1.
        -11    1    3    3    0    0 -0.23618234247E+01  0.32969263089E+01  0.80069268190E+01  0.89754559952E+01  0.51100000000E-03 0. -1.
         12    1    3    3    0    0 -0.99410065338E+01 -0.25527555364E+01  0.17191772369E+02  0.20022417659E+02  0.00000000000E+00 0. -1.
</event>
<event>
 7    1  0.2353206E-008  0.4614232E+02  0.7816164E-02  0.1320468E+00
        -11   -1    0    0    0    0  0.00000000000E+00  0.00000000000E+00  0.45593999997E+02  0.45594000000E+02  0.51100000000E-03 0.  1.
         11   -1    0    0    0    0 -0.00000000000E+00 -0.00000000000E+00 -0.45593999997E+02  0.45594000000E+02  0.51100000000E-03 0. -1.
    9900012    2    1    2    0    0  0.13211147529E+02 -0.25371746721E+02  0.34797323129E+02  0.46142315993E+02  0.99999838776E+01 0.  0.
         12    1    1    2    0    0 -0.13211147529E+02  0.25371746721E+02 -0.34797323129E+02  0.45045684007E+02  0.00000000000E+00 0. -1.
         11    1    3    3    0    0  0.13735830727E+01 -0.10078389414E+02  0.14147326173E+02  0.17424336479E+02  0.51100000000E-03 0. -1.
        -11    1    3    3    0    0  0.31924703210E+01 -0.81006665144E+01  0.87123708686E+01  0.12317388974E+02  0.51100000000E-03 0.  1.
         12    1    3    3    0    0  0.86450941350E+01 -0.71926907923E+01  0.11937626088E+02  0.16400590540E+02  0.00000000000E+00 0. -1.
</event>
<event>
 7    1  0.2353206E-008  0.4614232E+02  0.7816164E-02  0.1320468E+00
        -11   -1    0    0    0    0  0.00000000000E+00  0.00000000000E+00  0.45593999997E+02  0.45594000000E+02  0.51100000000E-03 0.  1.
         11   -1    0    0    0    0 -0.00000000000E+00 -0.00000000000E+00 -0.45593999997E+02  0.45594000000E+02  0.51100000000E-03 0. -1.
    9900012    2    1    2    0    0 -0.21439088762E+02 -0.37752282827E+01  0.39436359389E+02  0.46142319659E+02  0.10000017302E+02 0.  0.
         12    1    1    2    0    0  0.21439088762E+02  0.37752282827E+01 -0.39436359389E+02  0.45045680341E+02  0.00000000000E+00 0. -1.
         11    1    3    3    0    0 -0.50672357568E+01  0.11280261602E+01  0.49318080066E+01  0.71604505241E+01  0.51100000000E-03 0. -1.
        -11    1    3    3    0    0 -0.13647313620E+02 -0.31055867248E+01  0.22134142556E+02  0.26188052713E+02  0.51100000000E-03 0.  1.
         12    1    3    3    0    0 -0.27245393856E+01 -0.17976677182E+01  0.12370408827E+02  0.12793816422E+02  0.00000000000E+00 0. -1.
</event>
<event>
 7    1  0.2353206E-008  0.4614232E+02  0.7816164E-02  0.1320468E+00
        -11   -1    0    0    0    0  0.00000000000E+00  0.00000000000E+00  0.45593999997E+02  0.45594000000E+02  0.51100000000E-03 0.  1.
         11   -1    0    0    0    0 -0.00000000000E+00 -0.00000000000E+00 -0.45593999997E+02  0.45594000000E+02  0.51100000000E-03 0. -1.
    9900012    2    1    2    0    0 -0.85527840670E+01 -0.21764223848E+02  0.38500413774E+02  0.46142318567E+02  0.10000007350E+02 0.  0.
         12    1    1    2    0    0  0.85527840670E+01  0.21764223848E+02 -0.38500413774E+02  0.45045681433E+02  0.00000000000E+00 0. -1.
         11    1    3    3    0    0  0.54922699855E-02  0.51716533232E+00  0.23350079510E+01  0.23916004136E+01  0.51100000000E-03 0. -1.
        -11    1    3    3    0    0 -0.27442225690E+01 -0.13460664572E+02  0.23862914496E+02  0.27534686065E+02  0.51100000000E-03 0.  1.
         12    1    3    3    0    0 -0.58140537680E+01 -0.88207246082E+01  0.12302491327E+02  0.16216032088E+02  0.00000000000E+00 0. -1.
</event>
<event>
 7    1  0.2353206E-008  0.4614232E+02  0.7816164E-02  0.1320468E+00
        -11   -1    0    0    0    0  0.00000000000E+00  0.00000000000E+00  0.45593999997E+02  0.45594000000E+02  0.51100000000E-03 0. -1.
         11   -1    0    0    0    0 -0.00000000000E+00 -0.00000000000E+00 -0.45593999997E+02  0.45594000000E+02  0.51100000000E-03 0.  1.
    9900012    2    1    2    0    0  0.25992920146E+00 -0.13856674136E+02 -0.42860688372E+02  0.46142316644E+02  0.99999898158E+01 0.  0.
         12    1    1    2    0    0 -0.25992920146E+00  0.13856674136E+02  0.42860688372E+02  0.45045683356E+02  0.00000000000E+00 0. -1.
         11    1    3    3    0    0 -0.34573894368E+00 -0.43239475867E+01 -0.34227232743E+01  0.55254948216E+01  0.51100000000E-03 0. -1.
        -11    1    3    3    0    0 -0.17373082806E+00 -0.67611882955E+01 -0.25281114310E+02  0.26170185146E+02  0.51100000000E-03 0.  1.
         12    1    3    3    0    0  0.77939897320E+00 -0.27715382539E+01 -0.14156850788E+02  0.14446636677E+02  0.00000000000E+00 0. -1.
</event>
<event>
 7    1  0.2353206E-008  0.4614232E+02  0.7816164E-02  0.1320468E+00
        -11   -1    0    0    0    0  0.00000000000E+00  0.00000000000E+00  0.45593999997E+02  0.45594000000E+02  0.51100000000E-03 0.  1.
         11   -1    0    0    0    0 -0.00000000000E+00 -0.00000000000E+00 -0.45593999997E+02  0.45594000000E+02  0.51100000000E-03 0. -1.
    9900012    2    1    2    0    0  0.14078892927E+02 -0.65919789033E+01  0.42278175763E+02  0.46142316991E+02  0.99999929776E+01 0.  0.
         12    1    1    2    0    0 -0.14078892927E+02  0.65919789033E+01 -0.42278175763E+02  0.45045683009E+02  0.00000000000E+00 0. -1.
         11    1    3    3    0    0  0.64959131570E+01 -0.24203907076E+00  0.18267320565E+02  0.19389442270E+02  0.51100000000E-03 0.  1.
        -11    1    3    3    0    0  0.28217177197E+01 -0.15304067781E+01  0.15728114458E+02  0.16052346261E+02  0.51100000000E-03 0. -1.
         12    1    3    3    0    0  0.47612620500E+01 -0.48195330544E+01  0.82827407395E+01  0.10700528460E+02  0.00000000000E+00 0. -1.
</event>
<event>
 7    1  0.2353206E-008  0.4614232E+02  0.7816164E-02  0.1320468E+00
        -11   -1    0    0    0    0  0.00000000000E+00  0.00000000000E+00  0.45593999997E+02  0.45594000000E+02  0.51100000000E-03 0.  1.
         11   -1    0    0    0    0 -0.00000000000E+00 -0.00000000000E+00 -0.45593999997E+02  0.45594000000E+02  0.51100000000E-03 0. -1.
    9900012    2    1    2    0    0 -0.23641026489E+02  0.16931945496E+02  0.34402392782E+02  0.46142317179E+02  0.99999946896E+01 0.  0.
         12    1    1    2    0    0  0.23641026489E+02 -0.16931945496E+02 -0.34402392782E+02  0.45045682821E+02  0.00000000000E+00 0. -1.
         11    1    3    3    0    0 -0.10352504803E+02  0.85512328955E+01  0.12061732957E+02  0.18049469297E+02  0.51100000000E-03 0. -1.
        -11    1    3    3    0    0 -0.10102462712E+02  0.70944746162E+01  0.12078719203E+02  0.17270980886E+02  0.51100000000E-03 0.  1.
         12    1    3    3    0    0 -0.31860589740E+01  0.12862379841E+01  0.10261940622E+02  0.10821866995E+02  0.00000000000E+00 0. -1.
</event>
<event>
 7    1  0.2353206E-008  0.4614232E+02  0.7816164E-02  0.1320468E+00
        -11   -1    0    0    0    0  0.00000000000E+00  0.00000000000E+00  0.45593999997E+02  0.45594000000E+02  0.51100000000E-03 0.  1.
         11   -1    0    0    0    0 -0.00000000000E+00 -0.00000000000E+00 -0.45593999997E+02  0.45594000000E+02  0.51100000000E-03 0. -1.
    9900012    2    1    2    0    0 -0.34167069758E+01 -0.23419135255E+02  0.38327321374E+02  0.46142319337E+02  0.10000014371E+02 0.  0.
         12    1    1    2    0    0  0.34167069758E+01  0.23419135255E+02 -0.38327321374E+02  0.45045680663E+02  0.00000000000E+00 0. -1.
         11    1    3    3    0    0 -0.26339349749E+01 -0.44743455982E+01  0.45217952766E+01  0.68850573541E+01  0.51100000000E-03 0. -1.
        -11    1    3    3    0    0 -0.16727801504E+00 -0.17305536815E+02  0.25829926702E+02  0.31091714332E+02  0.51100000000E-03 0.  1.
        -12    1    3    3    0    0 -0.61549398584E+00 -0.16392528419E+01  0.79755993957E+01  0.81655476514E+01  0.00000000000E+00 0.  1.
</event>
<event>
 7    1  0.2353206E-008  0.4614232E+02  0.7816164E-02  0.1320468E+00
        -11   -1    0    0    0    0  0.00000000000E+00  0.00000000000E+00  0.45593999997E+02  0.45594000000E+02  0.51100000000E-03 0.  1.
         11   -1    0    0    0    0 -0.00000000000E+00 -0.00000000000E+00 -0.45593999997E+02  0.45594000000E+02  0.51100000000E-03 0. -1.
    9900012    2    1    2    0    0 -0.42924265225E+01  0.32325936251E+02  0.31076074513E+02  0.46142317775E+02  0.10000000129E+02 0.  0.
         12    1    1    2    0    0  0.42924265225E+01 -0.32325936251E+02 -0.31076074513E+02  0.45045682225E+02  0.00000000000E+00 0. -1.
         11    1    3    3    0    0  0.52571257446E+00  0.86237149454E+00  0.22955523528E+01  0.25079113164E+01  0.51100000000E-03 0. -1.
        -11    1    3    3    0    0 -0.22016661749E+00  0.20363239335E+02  0.14650819093E+02  0.25086978493E+02  0.51100000000E-03 0.  1.
        -12    1    3    3    0    0 -0.45979724795E+01  0.11100325421E+02  0.14129703067E+02  0.18547427966E+02  0.00000000000E+00 0.  1.
</event>
<event>
 7    1  0.2353206E-008  0.4614232E+02  0.7816164E-02  0.1320468E+00
        -11   -1    0    0    0    0  0.00000000000E+00  0.00000000000E+00  0.45593999997E+02  0.45594000000E+02  0.51100000000E-03 0.  1.
         11   -1    0    0    0    0 -0.00000000000E+00 -0.00000000000E+00 -0.45593999997E+02  0.45594000000E+02  0.51100000000E-03 0. -1.
    9900012    2    1    2    0    0  0.19989078641E+02 -0.25968216523E+02  0.30906342281E+02  0.46142317327E+02  0.99999960399E+01 0.  0.
         12    1    1    2    0    0 -0.19989078641E+02  0.25968216523E+02 -0.30906342281E+02  0.45045682673E+02  0.00000000000E+00 0. -1.
         11    1    3    3    0    0  0.38656241059E+01 -0.46300348442E+01  0.43278217754E+01  0.74236321277E+01  0.51100000000E-03 0. -1.
        -11    1    3    3    0    0  0.31227887198E+01 -0.40410902715E+01  0.98014435378E+00  0.52002791451E+01  0.51100000000E-03 0.  1.
         12    1    3    3    0    0  0.13000665815E+02 -0.17297091407E+02  0.25598376152E+02  0.33518406054E+02  0.00000000000E+00 0. -1.
</event>
<event>
 7    1  0.2353206E-008  0.4614232E+02  0.7816164E-02  0.1320468E+00
        -11   -1    0    0    0    0  0.00000000000E+00  0.00000000000E+00  0.45593999997E+02  0.45594000000E+02  0.51100000000E-03 0.  1.
         11   -1    0    0    0    0 -0.00000000000E+00 -0.00000000000E+00 -0.45593999997E+02  0.45594000000E+02  0.51100000000E-03 0. -1.
    9900012    2    1    2    0    0 -0.38275459084E+01 -0.25892320449E+02  0.36661302200E+02  0.46142318243E+02  0.10000004396E+02 0.  0.
         12    1    1    2    0    0  0.38275459084E+01  0.25892320449E+02 -0.36661302200E+02  0.45045681757E+02  0.00000000000E+00 0. -1.
         11    1    3    3    0    0 -0.26633859413E+01 -0.14668942307E+02  0.13748598458E+02  0.20280420432E+02  0.51100000000E-03 0. -1.
        -11    1    3    3    0    0 -0.19493603403E+01 -0.97727816510E+01  0.16825513329E+02  0.19555182586E+02  0.51100000000E-03 0.  1.
         12    1    3    3    0    0  0.78520037315E+00 -0.14505964913E+01  0.60871904128E+01  0.63067152249E+01  0.00000000000E+00 0. -1.
</event>
<event>
 7    1  0.2353206E-008  0.4614232E+02  0.7816164E-02  0.1320468E+00
        -11   -1    0    0    0    0  0.00000000000E+00  0.00000000000E+00  0.45593999997E+02  0.45594000000E+02  0.51100000000E-03 0. -1.
         11   -1    0    0    0    0 -0.00000000000E+00 -0.00000000000E+00 -0.45593999997E+02  0.45594000000E+02  0.51100000000E-03 0.  1.
    9900012    2    1    2    0    0 -0.80742001976E+01 -0.19215450558E+02 -0.39933531750E+02  0.46142320884E+02  0.10000028481E+02 0.  0.
         12    1    1    2    0    0  0.80742001976E+01  0.19215450558E+02  0.39933531750E+02  0.45045679116E+02  0.00000000000E+00 0. -1.
         11    1    3    3    0    0 -0.76466198774E+01 -0.12521713454E+02 -0.21666805238E+02  0.26167050901E+02  0.51100000000E-03 0. -1.
        -11    1    3    3    0    0 -0.19612435241E+01 -0.16690895047E+01 -0.38570314620E+01  0.46377826486E+01  0.51100000000E-03 0.  1.
        -12    1    3    3    0    0  0.15336632039E+01 -0.50246475997E+01 -0.14409695050E+02  0.15337487335E+02  0.00000000000E+00 0.  1.
</event>
<event>
 7    1  0.2353206E-008  0.4614232E+02  0.7816164E-02  0.1320468E+00
        -11   -1    0    0    0    0  0.00000000000E+00  0.00000000000E+00  0.45593999997E+02  0.45594000000E+02  0.51100000000E-03 0.  1.
         11   -1    0    0    0    0 -0.00000000000E+00 -0.00000000000E+00 -0.45593999997E+02  0.45594000000E+02  0.51100000000E-03 0. -1.
    9900012    2    1    2    0    0 -0.27149203473E+02 -0.25795902161E+02  0.25032092789E+02  0.46142317778E+02  0.10000000150E+02 0.  0.
         12    1    1    2    0    0  0.27149203473E+02  0.25795902161E+02 -0.25032092789E+02  0.45045682222E+02  0.00000000000E+00 0. -1.
         11    1    3    3    0    0 -0.75687434664E+01 -0.85298285547E+01  0.10579575305E+02  0.15555425636E+02  0.51100000000E-03 0. -1.
        -11    1    3    3    0    0 -0.12936817721E+02 -0.69479274204E+01  0.77771289512E+01  0.16616819286E+02  0.51100000000E-03 0.  1.
         12    1    3    3    0    0 -0.66436422848E+01 -0.10318146186E+02  0.66753885330E+01  0.13970072855E+02  0.00000000000E+00 0. -1.
</event>
<event>
 7    1  0.2353206E-008  0.4614232E+02  0.7816164E-02  0.1320468E+00
        -11   -1    0    0    0    0  0.00000000000E+00  0.00000000000E+00  0.45593999997E+02  0.45594000000E+02  0.51100000000E-03 0.  1.
         11   -1    0    0    0    0 -0.00000000000E+00 -0.00000000000E+00 -0.45593999997E+02  0.45594000000E+02  0.51100000000E-03 0. -1.
    9900012    2    1    2    0    0  0.19315067038E+02 -0.23700215391E+02  0.33080832379E+02  0.46142317686E+02  0.99999993134E+01 0.  0.
         12    1    1    2    0    0 -0.19315067038E+02  0.23700215391E+02 -0.33080832379E+02  0.45045682314E+02  0.00000000000E+00 0. -1.
         11    1    3    3    0    0  0.23100956697E+01 -0.64301130003E+01  0.63659323035E+01  0.93385218077E+01  0.51100000000E-03 0. -1.
        -11    1    3    3    0    0  0.13252229341E+02 -0.16990556851E+02  0.22509809559E+02  0.31160746641E+02  0.51100000000E-03 0.  1.
         12    1    3    3    0    0  0.37527420280E+01 -0.27954553966E+00  0.42050905162E+01  0.56430492366E+01  0.00000000000E+00 0. -1.
</event>
<event>
 7    1  0.2353206E-008  0.4614232E+02  0.7816164E-02  0.1320468E+00
        -11   -1    0    0    0    0  0.00000000000E+00  0.00000000000E+00  0.45593999997E+02  0.45594000000E+02  0.51100000000E-03 0.  1.
         11   -1    0    0    0    0 -0.00000000000E+00 -0.00000000000E+00 -0.45593999997E+02  0.45594000000E+02  0.51100000000E-03 0. -1.
    9900012    2    1    2    0    0 -0.24276642997E+02  0.20633048354E+02  0.31843921090E+02  0.46142318854E+02  0.10000009963E+02 0.  0.
         12    1    1    2    0    0  0.24276642997E+02 -0.20633048354E+02 -0.31843921090E+02  0.45045681146E+02  0.00000000000E+00 0. -1.
         11    1    3    3    0    0 -0.57888117598E+01  0.22654225005E+01  0.38242969375E+01  0.72984743627E+01  0.51100000000E-03 0. -1.
        -11    1    3    3    0    0 -0.16188306435E+02  0.12111118123E+02  0.20423736605E+02  0.28737944683E+02  0.51100000000E-03 0.  1.
        -12    1    3    3    0    0 -0.22995248013E+01  0.62565077306E+01  0.75958875477E+01  0.10105899808E+02  0.00000000000E+00 0.  1.
</event>
<event>
 7    1  0.2353206E-008  0.4614232E+02  0.7816164E-02  0.1320468E+00
        -11   -1    0    0    0    0  0.00000000000E+00  0.00000000000E+00  0.45593999997E+02  0.45594000000E+02  0.51100000000E-03 0.  1.
         11   -1    0    0    0    0 -0.00000000000E+00 -0.00000000000E+00 -0.45593999997E+02  0.45594000000E+02  0.51100000000E-03 0. -1.
    9900012    2    1    2    0    0  0.38444506874E+01  0.31640523026E+02  0.31830975538E+02  0.46142317608E+02  0.99999986034E+01 0.  0.
         12    1    1    2    0    0 -0.38444506874E+01 -0.31640523026E+02 -0.31830975538E+02  0.45045682392E+02  0.00000000000E+00 0. -1.
         11    1    3    3    0    0  0.38684067732E+01  0.14293795476E+02  0.10177910219E+02  0.17968500682E+02  0.51100000000E-03 0. -1.
        -11    1    3    3    0    0  0.20621045535E+01  0.53192262447E+01  0.84158928623E+01  0.10167285575E+02  0.51100000000E-03 0.  1.
         12    1    3    3    0    0 -0.20860606393E+01  0.12027501306E+02  0.13237172457E+02  0.18006531351E+02  0.00000000000E+00 0. -1.
</event>
<event>
 7    1  0.2353206E-008  0.4614232E+02  0.7816164E-02  0.1320468E+00
        -11   -1    0    0    0    0  0.00000000000E+00  0.00000000000E+00  0.45593999997E+02  0.45594000000E+02  0.51100000000E-03 0.  1.
         11   -1    0    0    0    0 -0.00000000000E+00 -0.00000000000E+00 -0.45593999997E+02  0.45594000000E+02  0.51100000000E-03 0. -1.
    9900012    2    1    2    0    0 -0.25024872197E+02  0.12886157223E+02  0.35168397242E+02  0.46142318287E+02  0.10000004793E+02 0.  0.
         12    1    1    2    0    0  0.25024872197E+02 -0.12886157223E+02 -0.35168397242E+02  0.45045681713E+02  0.00000000000E+00 0. -1.
         11    1    3    3    0    0 -0.31194314810E+01  0.23193386879E+01  0.25009149834E+01  0.46222030168E+01  0.51100000000E-03 0. -1.
        -11    1    3    3    0    0 -0.53693297631E+01  0.65887534413E+01  0.90443926016E+01  0.12411382349E+02  0.51100000000E-03 0.  1.
         12    1    3    3    0    0 -0.16536110953E+02  0.39780650942E+01  0.23623089657E+02  0.29108732921E+02  0.00000000000E+00 0. -1.
</event>
<event>
 7    1  0.2353206E-008  0.4614232E+02  0.7816164E-02  0.1320468E+00
        -11   -1    0    0    0    0  0.00000000000E+00  0.00000000000E+00  0.45593999997E+02  0.45594000000E+02  0.51100000000E-03 0.  1.
         11   -1    0    0    0    0 -0.00000000000E+00 -0.00000000000E+00 -0.45593999997E+02  0.45594000000E+02  0.51100000000E-03 0. -1.
    9900012    2    1    2    0    0 -0.14561536943E+02 -0.40925069594E+02  0.11925342912E+02  0.46142317821E+02  0.10000000545E+02 0.  0.
         12    1    1    2    0    0  0.14561536943E+02  0.40925069594E+02 -0.11925342912E+02  0.45045682179E+02  0.00000000000E+00 0. -1.
         11    1    3    3    0    0 -0.53700333923E+00 -0.25258910358E+01  0.17704468336E+01  0.31309711533E+01  0.51100000000E-03 0. -1.
        -11    1    3    3    0    0 -0.69105917543E+01 -0.29592730616E+02  0.86134606856E+01  0.31586036297E+02  0.51100000000E-03 0.  1.
         12    1    3    3    0    0 -0.71139418496E+01 -0.88064479421E+01  0.15414353930E+01  0.11425310371E+02  0.00000000000E+00 0. -1.
</event>
<event>
 7    1  0.2353206E-008  0.4614232E+02  0.7816164E-02  0.1320468E+00
        -11   -1    0    0    0    0  0.00000000000E+00  0.00000000000E+00  0.45593999997E+02  0.45594000000E+02  0.51100000000E-03 0.  1.
         11   -1    0    0    0    0 -0.00000000000E+00 -0.00000000000E+00 -0.45593999997E+02  0.45594000000E+02  0.51100000000E-03 0. -1.
    9900012    2    1    2    0    0 -0.12956929218E+02 -0.16755189910E+02  0.39755441842E+02  0.46142316969E+02  0.99999927783E+01 0.  0.
         12    1    1    2    0    0  0.12956929218E+02  0.16755189910E+02 -0.39755441842E+02  0.45045683031E+02  0.00000000000E+00 0. -1.
         11    1    3    3    0    0 -0.35880889338E+01 -0.42134902725E+01  0.35812837856E+01  0.65919250820E+01  0.51100000000E-03 0. -1.
        -11    1    3    3    0    0 -0.36157959687E+01 -0.38203707655E+01  0.88280681049E+01  0.10276380686E+02  0.51100000000E-03 0.  1.
        -12    1    3    3    0    0 -0.57530443156E+01 -0.87213288717E+01  0.27346089951E+02  0.29274011201E+02  0.00000000000E+00 0.  1.
</event>
<event>
 7    1  0.2353206E-008  0.4614232E+02  0.7816164E-02  0.1320468E+00
        -11   -1    0    0    0    0  0.00000000000E+00  0.00000000000E+00  0.45593999997E+02  0.45594000000E+02  0.51100000000E-03 0. -1.
         11   -1    0    0    0    0 -0.00000000000E+00 -0.00000000000E+00 -0.45593999997E+02  0.45594000000E+02  0.51100000000E-03 0.  1.
    9900012    2    1    2    0    0  0.34659621616E+02 -0.23817128844E+02 -0.16142133634E+02  0.46142317907E+02  0.10000001332E+02 0.  0.
         12    1    1    2    0    0 -0.34659621616E+02  0.23817128844E+02  0.16142133634E+02  0.45045682093E+02  0.00000000000E+00 0. -1.
         11    1    3    3    0    0  0.10130829922E+01 -0.37341527039E+00 -0.94926286236E+00  0.14376635059E+01  0.51100000000E-03 0. -1.
        -11    1    3    3    0    0  0.23308345490E+02 -0.10847593102E+02 -0.10239444103E+02  0.27673009619E+02  0.51100000000E-03 0.  1.
         12    1    3    3    0    0  0.10338193134E+02 -0.12596120472E+02 -0.49534266682E+01  0.17031644782E+02  0.00000000000E+00 0. -1.
</event>
<event>
 7    1  0.2353206E-008  0.4614232E+02  0.7816164E-02  0.1320468E+00
        -11   -1    0    0    0    0  0.00000000000E+00  0.00000000000E+00  0.45593999997E+02  0.45594000000E+02  0.51100000000E-03 0.  1.
         11   -1    0    0    0    0 -0.00000000000E+00 -0.00000000000E+00 -0.45593999997E+02  0.45594000000E+02  0.51100000000E-03 0. -1.
    9900012    2    1    2    0    0  0.32444599582E+02 -0.30300086753E+00  0.31246914339E+02  0.46142317551E+02  0.99999980867E+01 0.  0.
         12    1    1    2    0    0 -0.32444599582E+02  0.30300086753E+00 -0.31246914339E+02  0.45045682449E+02  0.00000000000E+00 0. -1.
         11    1    3    3    0    0  0.17323783210E+02  0.27831249798E+01  0.19210326832E+02  0.26017223269E+02  0.51100000000E-03 0. -1.
        -11    1    3    3    0    0  0.14281983271E+02 -0.16191558700E+01  0.11291512784E+02  0.18278265046E+02  0.51100000000E-03 0.  1.
         12    1    3    3    0    0  0.83883310096E+00 -0.14669699774E+01  0.74507472301E+00  0.18468292365E+01  0.00000000000E+00 0. -1.
</event>
<event>
 7    1  0.2353206E-008  0.4614232E+02  0.7816164E-02  0.1320468E+00
        -11   -1    0    0    0    0  0.00000000000E+00  0.00000000000E+00  0.45593999997E+02  0.45594000000E+02  0.51100000000E-03 0. -1.
         11   -1    0    0    0    0 -0.00000000000E+00 -0.00000000000E+00 -0.45593999997E+02  0.45594000000E+02  0.51100000000E-03 0.  1.
    9900012    2    1    2    0    0  0.14299115017E+02  0.32883960579E+02 -0.27263417491E+02  0.46142317777E+02  0.10000000148E+02 0.  0.
         12    1    1    2    0    0 -0.14299115017E+02 -0.32883960579E+02  0.27263417491E+02  0.45045682223E+02  0.00000000000E+00 0. -1.
         11    1    3    3    0    0  0.17164890374E+01  0.70325863505E+01 -0.10197604974E+02  0.12505788774E+02  0.51100000000E-03 0. -1.
        -11    1    3    3    0    0  0.83871333309E+01  0.13173792056E+02 -0.97366843783E+01  0.18403690543E+02  0.51100000000E-03 0.  1.
        -12    1    3    3    0    0  0.41954926483E+01  0.12677582173E+02 -0.73291281387E+01  0.15232838461E+02  0.00000000000E+00 0.  1.
</event>
<event>
 7    1  0.2353206E-008  0.4614232E+02  0.7816164E-02  0.1320468E+00
        -11   -1    0    0    0    0  0.00000000000E+00  0.00000000000E+00  0.45593999997E+02  0.45594000000E+02  0.51100000000E-03 0. -1.
         11   -1    0    0    0    0 -0.00000000000E+00 -0.00000000000E+00 -0.45593999997E+02  0.45594000000E+02  0.51100000000E-03 0.  1.
    9900012    2    1    2    0    0  0.36533133873E+02 -0.18627953003E+02 -0.18639822610E+02  0.46142317736E+02  0.99999997747E+01 0.  0.
         12    1    1    2    0    0 -0.36533133873E+02  0.18627953003E+02  0.18639822610E+02  0.45045682264E+02  0.00000000000E+00 0. -1.
         11    1    3    3    0    0  0.43282315255E+01 -0.65552812907E+00 -0.30066161054E+01  0.53106540024E+01  0.51100000000E-03 0. -1.
        -11    1    3    3    0    0  0.31875087040E+02 -0.17999552175E+02 -0.14042827582E+02  0.39207219477E+02  0.51100000000E-03 0.  1.
        -12    1    3    3    0    0  0.32981530709E+00  0.27127301245E-01 -0.15903789228E+01  0.16244442574E+01  0.00000000000E+00 0.  1.
</event>
<event>
 7    1  0.2353206E-008  0.4614232E+02  0.7816164E-02  0.1320468E+00
        -11   -1    0    0    0    0  0.00000000000E+00  0.00000000000E+00  0.45593999997E+02  0.45594000000E+02  0.51100000000E-03 0.  1.
         11   -1    0    0    0    0 -0.00000000000E+00 -0.00000000000E+00 -0.45593999997E+02  0.45594000000E+02  0.51100000000E-03 0. -1.
    9900012    2    1    2    0    0  0.15802866168E+02 -0.39675900042E+02  0.14325006703E+02  0.46142318295E+02  0.10000004869E+02 0.  0.
         12    1    1    2    0    0 -0.15802866168E+02  0.39675900042E+02 -0.14325006703E+02  0.45045681705E+02  0.00000000000E+00 0. -1.
         11    1    3    3    0    0  0.15909797059E+01 -0.28616453818E+01 -0.48440687404E-02  0.32741799648E+01  0.51100000000E-03 0. -1.
        -11    1    3    3    0    0  0.14244118473E+02 -0.29379479184E+02  0.95081730277E+01  0.34006676738E+02  0.51100000000E-03 0.  1.
         12    1    3    3    0    0 -0.32232011106E-01 -0.74347754759E+01  0.48216777442E+01  0.88614615921E+01  0.00000000000E+00 0. -1.
</event>
<event>
 7    1  0.2353206E-008  0.4614232E+02  0.7816164E-02  0.1320468E+00
        -11   -1    0    0    0    0  0.00000000000E+00  0.00000000000E+00  0.45593999997E+02  0.45594000000E+02  0.51100000000E-03 0. -1.
         11   -1    0    0    0    0 -0.00000000000E+00 -0.00000000000E+00 -0.45593999997E+02  0.45594000000E+02  0.51100000000E-03 0.  1.
    9900012    2    1    2    0    0  0.19390474799E+02 -0.38143144770E+02  0.14079183847E+02  0.46142318479E+02  0.10000006550E+02 0.  0.
         12    1    1    2    0    0 -0.19390474799E+02  0.38143144770E+02 -0.14079183847E+02  0.45045681521E+02  0.00000000000E+00 0. -1.
         11    1    3    3    0    0  0.44019007215E+01 -0.12683268179E+02  0.20714158207E+01  0.13584284502E+02  0.51100000000E-03 0. -1.
        -11    1    3    3    0    0  0.48124582415E+01 -0.14367015263E+02  0.50173847223E+01  0.15960734056E+02  0.51100000000E-03 0.  1.
         12    1    3    3    0    0  0.10176115836E+02 -0.11092861327E+02  0.69903833040E+01  0.16597299921E+02  0.00000000000E+00 0. -1.
</event>
<event>
 7    1  0.2353206E-008  0.4614232E+02  0.7816164E-02  0.1320468E+00
        -11   -1    0    0    0    0  0.00000000000E+00  0.00000000000E+00  0.45593999997E+02  0.45594000000E+02  0.51100000000E-03 0.  1.
         11   -1    0    0    0    0 -0.00000000000E+00 -0.00000000000E+00 -0.45593999997E+02  0.45594000000E+02  0.51100000000E-03 0. -1.
    9900012    2    1    2    0    0 -0.16240672601E+01  0.97862462475E+01  0.43939791544E+02  0.46142317732E+02  0.99999997303E+01 0.  0.
         12    1    1    2    0    0  0.16240672601E+01 -0.97862462475E+01 -0.43939791544E+02  0.45045682268E+02  0.00000000000E+00 0. -1.
         11    1    3    3    0    0 -0.18099729611E+01  0.32424881007E+00  0.87056859191E+00  0.20344604556E+01  0.51100000000E-03 0. -1.
        -11    1    3    3    0    0 -0.76179530362E-01  0.43827516376E+01  0.22114671181E+02  0.22544910666E+02  0.51100000000E-03 0.  1.
         12    1    3    3    0    0  0.26208523138E+00  0.50792457998E+01  0.20954551771E+02  0.21562946610E+02  0.00000000000E+00 0. -1.
</event>
<event>
 7    1  0.2353206E-008  0.4614232E+02  0.7816164E-02  0.1320468E+00
        -11   -1    0    0    0    0  0.00000000000E+00  0.00000000000E+00  0.45593999997E+02  0.45594000000E+02  0.51100000000E-03 0.  1.
         11   -1    0    0    0    0 -0.00000000000E+00 -0.00000000000E+00 -0.45593999997E+02  0.45594000000E+02  0.51100000000E-03 0. -1.
    9900012    2    1    2    0    0 -0.22065236896E+02  0.55244791368E+01  0.38880829769E+02  0.46142317936E+02  0.10000001599E+02 0.  0.
         12    1    1    2    0    0  0.22065236896E+02 -0.55244791368E+01 -0.38880829769E+02  0.45045682064E+02  0.00000000000E+00 0. -1.
         11    1    3    3    0    0 -0.12014932936E+02  0.57413990866E+01  0.16874129069E+02  0.21495546260E+02  0.51100000000E-03 0. -1.
        -11    1    3    3    0    0 -0.18463803610E+01  0.17060711529E+01  0.69780057990E+01  0.74170320484E+01  0.51100000000E-03 0.  1.
        -12    1    3    3    0    0 -0.82039235996E+01 -0.19229911028E+01  0.15028694902E+02  0.17229739628E+02  0.00000000000E+00 0.  1.
</event>
<event>
 7    1  0.2353206E-008  0.4614232E+02  0.7816164E-02  0.1320468E+00
        -11   -1    0    0    0    0  0.00000000000E+00  0.00000000000E+00  0.45593999997E+02  0.45594000000E+02  0.51100000000E-03 0.  1.
         11   -1    0    0    0    0 -0.00000000000E+00 -0.00000000000E+00 -0.45593999997E+02  0.45594000000E+02  0.51100000000E-03 0. -1.
    9900012    2    1    2    0    0 -0.35323578331E+02  0.27952711543E+02  0.65735353167E-01  0.46142316634E+02  0.99999897232E+01 0.  0.
         12    1    1    2    0    0  0.35323578331E+02 -0.27952711543E+02 -0.65735353167E-01  0.45045683366E+02  0.00000000000E+00 0. -1.
         11    1    3    3    0    0 -0.44097417430E+01  0.18473654897E+01 -0.27465478823E+00  0.47889473798E+01  0.51100000000E-03 0. -1.
        -11    1    3    3    0    0 -0.21774348922E+02  0.19381139054E+02 -0.35331278649E+01  0.29363818123E+02  0.51100000000E-03 0.  1.
         12    1    3    3    0    0 -0.91394876662E+01  0.67242069996E+01  0.38735180063E+01  0.11989551131E+02  0.00000000000E+00 0. -1.
</event>
<event>
 7    1  0.2353206E-008  0.4614232E+02  0.7816164E-02  0.1320468E+00
        -11   -1    0    0    0    0  0.00000000000E+00  0.00000000000E+00  0.45593999997E+02  0.45594000000E+02  0.51100000000E-03 0.  1.
         11   -1    0    0    0    0 -0.00000000000E+00 -0.00000000000E+00 -0.45593999997E+02  0.45594000000E+02  0.51100000000E-03 0. -1.
    9900012    2    1    2    0    0 -0.32517433775E+01 -0.24001618193E+02  0.37979757082E+02  0.46142318089E+02  0.10000002987E+02 0.  0.
         12    1    1    2    0    0  0.32517433775E+01  0.24001618193E+02 -0.37979757082E+02  0.45045681911E+02  0.00000000000E+00 0. -1.
         11    1    3    3    0    0  0.69853094366E+00 -0.12156175142E+02  0.24283922915E+02  0.27165593164E+02  0.51100000000E-03 0.  1.
        -11    1    3    3    0    0 -0.14578100169E+01 -0.72796717133E+00  0.97218846228E+00  0.18974448385E+01  0.51100000000E-03 0. -1.
        -12    1    3    3    0    0 -0.24924643043E+01 -0.11117475879E+02  0.12723645705E+02  0.17079280086E+02  0.00000000000E+00 0.  1.
</event>
<event>
 7    1  0.2353206E-008  0.4614232E+02  0.7816164E-02  0.1320468E+00
        -11   -1    0    0    0    0  0.00000000000E+00  0.00000000000E+00  0.45593999997E+02  0.45594000000E+02  0.51100000000E-03 0.  1.
         11   -1    0    0    0    0 -0.00000000000E+00 -0.00000000000E+00 -0.45593999997E+02  0.45594000000E+02  0.51100000000E-03 0. -1.
    9900012    2    1    2    0    0 -0.31939757425E+02  0.93211700420E+01  0.30365788976E+02  0.46142318126E+02  0.10000003331E+02 0.  0.
         12    1    1    2    0    0  0.31939757425E+02 -0.93211700420E+01 -0.30365788976E+02  0.45045681874E+02  0.00000000000E+00 0. -1.
         11    1    3    3    0    0 -0.10330023902E+02  0.60309169114E+01  0.75746018628E+01  0.14158246581E+02  0.51100000000E-03 0. -1.
        -11    1    3    3    0    0 -0.17256628695E+02  0.46580361376E+01  0.18349959553E+02  0.25616587408E+02  0.51100000000E-03 0.  1.
        -12    1    3    3    0    0 -0.43531048286E+01 -0.13677830070E+01  0.44412275602E+01  0.63674841377E+01  0.00000000000E+00 0.  1.
</event>
<event>
 7    1  0.2353206E-008  0.4614232E+02  0.7816164E-02  0.1320468E+00
        -11   -1    0    0    0    0  0.00000000000E+00  0.00000000000E+00  0.45593999997E+02  0.45594000000E+02  0.51100000000E-03 0. -1.
         11   -1    0    0    0    0 -0.00000000000E+00 -0.00000000000E+00 -0.45593999997E+02  0.45594000000E+02  0.51100000000E-03 0.  1.
    9900012    2    1    2    0    0  0.17655152363E+02  0.41440896946E+02  0.24721095770E+00  0.46142318100E+02  0.10000003086E+02 0.  0.
         12    1    1    2    0    0 -0.17655152363E+02 -0.41440896946E+02 -0.24721095770E+00  0.45045681900E+02  0.00000000000E+00 0. -1.
         11    1    3    3    0    0  0.29141782581E+01  0.71664957744E+01 -0.15365048575E+01  0.78874548520E+01  0.51100000000E-03 0. -1.
        -11    1    3    3    0    0  0.51260176622E+01  0.17871555902E+02 -0.25158409038E+01  0.18761610356E+02  0.51100000000E-03 0.  1.
         12    1    3    3    0    0  0.96149564423E+01  0.16402845269E+02  0.42995567190E+01  0.19493252891E+02  0.00000000000E+00 0. -1.
</event>
<event>
 7    1  0.2353206E-008  0.4614232E+02  0.7816164E-02  0.1320468E+00
        -11   -1    0    0    0    0  0.00000000000E+00  0.00000000000E+00  0.45593999997E+02  0.45594000000E+02  0.51100000000E-03 0.  1.
         11   -1    0    0    0    0 -0.00000000000E+00 -0.00000000000E+00 -0.45593999997E+02  0.45594000000E+02  0.51100000000E-03 0. -1.
    9900012    2    1    2    0    0 -0.18019700440E+02 -0.28816144520E+02  0.29564061334E+02  0.46142317505E+02  0.99999976636E+01 0.  0.
         12    1    1    2    0    0  0.18019700440E+02  0.28816144520E+02 -0.29564061334E+02  0.45045682495E+02  0.00000000000E+00 0. -1.
         11    1    3    3    0    0 -0.66857242611E+00 -0.58226417628E-01 -0.31321897210E+00  0.74059826510E+00  0.51100000000E-03 0. -1.
        -11    1    3    3    0    0 -0.14988998603E+02 -0.23834327969E+02  0.21606024698E+02  0.35490358864E+02  0.51100000000E-03 0.  1.
         12    1    3    3    0    0 -0.23621294109E+01 -0.49235901331E+01  0.82712556083E+01  0.99113603753E+01  0.00000000000E+00 0. -1.
</event>
<event>
 7    1  0.2353206E-008  0.4614232E+02  0.7816164E-02  0.1320468E+00
        -11   -1    0    0    0    0  0.00000000000E+00  0.00000000000E+00  0.45593999997E+02  0.45594000000E+02  0.51100000000E-03 0. -1.
         11   -1    0    0    0    0 -0.00000000000E+00 -0.00000000000E+00 -0.45593999997E+02  0.45594000000E+02  0.51100000000E-03 0.  1.
    9900012    2    1    2    0    0 -0.41483908266E+01  0.13447225372E+02 -0.42791079708E+02  0.46142317418E+02  0.99999968730E+01 0.  0.
         12    1    1    2    0    0  0.41483908266E+01 -0.13447225372E+02  0.42791079708E+02  0.45045682582E+02  0.00000000000E+00 0. -1.
         11    1    3    3    0    0 -0.37786781912E+01  0.70006812368E+01 -0.14929168229E+02  0.16916501143E+02  0.51100000000E-03 0. -1.
        -11    1    3    3    0    0  0.41104901604E+00  0.21808831787E+01 -0.19522464388E+01  0.29557535674E+01  0.51100000000E-03 0.  1.
        -12    1    3    3    0    0 -0.78076165153E+00  0.42656609568E+01 -0.25909665041E+02  0.26270062708E+02  0.00000000000E+00 0.  1.
</event>
<event>
 7    1  0.2353206E-008  0.4614232E+02  0.7816164E-02  0.1320468E+00
        -11   -1    0    0    0    0  0.00000000000E+00  0.00000000000E+00  0.45593999997E+02  0.45594000000E+02  0.51100000000E-03 0.  1.
         11   -1    0    0    0    0 -0.00000000000E+00 -0.00000000000E+00 -0.45593999997E+02  0.45594000000E+02  0.51100000000E-03 0. -1.
    9900012    2    1    2    0    0  0.14998349618E+02 -0.42167489233E+02  0.51054699662E+01  0.46142318042E+02  0.10000002559E+02 0.  0.
         12    1    1    2    0    0 -0.14998349618E+02  0.42167489233E+02 -0.51054699662E+01  0.45045681958E+02  0.00000000000E+00 0. -1.
         11    1    3    3    0    0  0.47322108563E+01 -0.17122313107E+02  0.42084984203E+01  0.18255927392E+02  0.51100000000E-03 0. -1.
        -11    1    3    3    0    0 -0.64530725001E+00 -0.37140255776E+00  0.51426611070E+00  0.90489292215E+00  0.51100000000E-03 0.  1.
        -12    1    3    3    0    0  0.10911446012E+02 -0.24673773569E+02  0.38270543518E+00  0.26981497728E+02  0.00000000000E+00 0.  1.
</event>
<event>
 7    1  0.2353206E-008  0.4614232E+02  0.7816164E-02  0.1320468E+00
        -11   -1    0    0    0    0  0.00000000000E+00  0.00000000000E+00  0.45593999997E+02  0.45594000000E+02  0.51100000000E-03 0.  1.
         11   -1    0    0    0    0 -0.00000000000E+00 -0.00000000000E+00 -0.45593999997E+02  0.45594000000E+02  0.51100000000E-03 0. -1.
    9900012    2    1    2    0    0  0.26199254861E+02 -0.14360566595E+02  0.33711817492E+02  0.46142318000E+02  0.10000002180E+02 0.  0.
         12    1    1    2    0    0 -0.26199254861E+02  0.14360566595E+02 -0.33711817492E+02  0.45045682000E+02  0.00000000000E+00 0. -1.
         11    1    3    3    0    0  0.13032463404E+00  0.11383413122E+00 -0.30519659715E+00  0.35083891418E+00  0.51100000000E-03 0. -1.
        -11    1    3    3    0    0  0.20224250238E+02 -0.13688373421E+02  0.29867778821E+02  0.38580773406E+02  0.51100000000E-03 0.  1.
        -12    1    3    3    0    0  0.58446799891E+01 -0.78602730537E+00  0.41492352675E+01  0.72107056801E+01  0.00000000000E+00 0.  1.
</event>
<event>
 7    1  0.2353206E-008  0.4614232E+02  0.7816164E-02  0.1320468E+00
        -11   -1    0    0    0    0  0.00000000000E+00  0.00000000000E+00  0.45593999997E+02  0.45594000000E+02  0.51100000000E-03 0. -1.
         11   -1    0    0    0    0 -0.00000000000E+00 -0.00000000000E+00 -0.45593999997E+02  0.45594000000E+02  0.51100000000E-03 0.  1.
    9900012    2    1    2    0    0  0.22562521573E+02 -0.15544193324E+02 -0.35755058118E+02  0.46142317557E+02  0.99999981346E+01 0.  0.
         12    1    1    2    0    0 -0.22562521573E+02  0.15544193324E+02  0.35755058118E+02  0.45045682443E+02  0.00000000000E+00 0. -1.
         11    1    3    3    0    0  0.44763514373E+00 -0.14960483847E+01 -0.16986904415E+01  0.23073984199E+01  0.51100000000E-03 0. -1.
        -11    1    3    3    0    0  0.62983095437E+01 -0.70771854436E+01 -0.17501599012E+02  0.19901287022E+02  0.51100000000E-03 0.  1.
         12    1    3    3    0    0  0.15816576885E+02 -0.69709594956E+01 -0.16554768664E+02  0.23933632114E+02  0.00000000000E+00 0. -1.
</event>
<event>
 7    1  0.2353206E-008  0.4614232E+02  0.7816164E-02  0.1320468E+00
        -11   -1    0    0    0    0  0.00000000000E+00  0.00000000000E+00  0.45593999997E+02  0.45594000000E+02  0.51100000000E-03 0.  1.
         11   -1    0    0    0    0 -0.00000000000E+00 -0.00000000000E+00 -0.45593999997E+02  0.45594000000E+02  0.51100000000E-03 0. -1.
    9900012    2    1    2    0    0 -0.28076716138E+02 -0.10180771542E+02  0.33721854665E+02  0.46142316741E+02  0.99999906951E+01 0.  0.
         12    1    1    2    0    0  0.28076716138E+02  0.10180771542E+02 -0.33721854665E+02  0.45045683259E+02  0.00000000000E+00 0. -1.
         11    1    3    3    0    0 -0.51618331392E+01 -0.46964636294E+01  0.79819844187E+01  0.10602517036E+02  0.51100000000E-03 0. -1.
        -11    1    3    3    0    0 -0.65492771047E+01  0.12977834905E+01  0.55712760799E+01  0.86957685113E+01  0.51100000000E-03 0.  1.
        -12    1    3    3    0    0 -0.16365605894E+02 -0.67820914027E+01  0.20168594166E+02  0.26844031193E+02  0.00000000000E+00 0.  1.
</event>
<event>
 7    1  0.2353206E-008  0.4614232E+02  0.7816164E-02  0.1320468E+00
        -11   -1    0    0    0    0  0.00000000000E+00  0.00000000000E+00  0.45593999997E+02  0.45594000000E+02  0.51100000000E-03 0.  1.
         11   -1    0    0    0    0 -0.00000000000E+00 -0.00000000000E+00 -0.45593999997E+02  0.45594000000E+02  0.51100000000E-03 0. -1.
    9900012    2    1    2    0    0  0.83910725294E+01 -0.27682063075E+01  0.44170583559E+02  0.46142317451E+02  0.99999971692E+01 0.  0.
         12    1    1    2    0    0 -0.83910725294E+01  0.27682063075E+01 -0.44170583559E+02  0.45045682549E+02  0.00000000000E+00 0. -1.
         11    1    3    3    0    0 -0.33447311660E+00 -0.22225943075E-01 -0.47015252589E-01  0.33849217623E+00  0.51100000000E-03 0. -1.
        -11    1    3    3    0    0  0.32379503791E+01 -0.50148574952E+01  0.24088690480E+02  0.24817294930E+02  0.51100000000E-03 0.  1.
        -12    1    3    3    0    0  0.54875952668E+01  0.22688771308E+01  0.20128908332E+02  0.20986530344E+02  0.00000000000E+00 0.  1.
</event>
<event>
 7    1  0.2353206E-008  0.4614232E+02  0.7816164E-02  0.1320468E+00
        -11   -1    0    0    0    0  0.00000000000E+00  0.00000000000E+00  0.45593999997E+02  0.45594000000E+02  0.51100000000E-03 0.  1.
         11   -1    0    0    0    0 -0.00000000000E+00 -0.00000000000E+00 -0.45593999997E+02  0.45594000000E+02  0.51100000000E-03 0. -1.
    9900012    2    1    2    0    0 -0.18453094637E+02 -0.40686015731E+02  0.57658294084E+01  0.46142319113E+02  0.10000012332E+02 0.  0.
         12    1    1    2    0    0  0.18453094637E+02  0.40686015731E+02 -0.57658294084E+01  0.45045680887E+02  0.00000000000E+00 0. -1.
         11    1    3    3    0    0  0.77452537170E+00 -0.37695552298E+01  0.19033539750E+00  0.38530071382E+01  0.51100000000E-03 0. -1.
        -11    1    3    3    0    0 -0.12255242827E+01 -0.58959491917E+01  0.13892524180E+01  0.61801415178E+01  0.51100000000E-03 0.  1.
        -12    1    3    3    0    0 -0.18002095726E+02 -0.31020511310E+02  0.41862415929E+01  0.36109170457E+02  0.00000000000E+00 0.  1.
</event>
<event>
 7    1  0.2353206E-008  0.4614232E+02  0.7816164E-02  0.1320468E+00
        -11   -1    0    0    0    0  0.00000000000E+00  0.00000000000E+00  0.45593999997E+02  0.45594000000E+02  0.51100000000E-03 0.  1.
         11   -1    0    0    0    0 -0.00000000000E+00 -0.00000000000E+00 -0.45593999997E+02  0.45594000000E+02  0.51100000000E-03 0. -1.
    9900012    2    1    2    0    0 -0.36559518856E+02 -0.22915796186E+02 -0.12937594667E+02  0.46142317748E+02  0.99999998803E+01 0.  0.
         12    1    1    2    0    0  0.36559518856E+02  0.22915796186E+02  0.12937594667E+02  0.45045682252E+02  0.00000000000E+00 0. -1.
         11    1    3    3    0    0 -0.80256975404E+01 -0.94316461616E+01 -0.52083736054E+01  0.13434840014E+02  0.51100000000E-03 0. -1.
        -11    1    3    3    0    0 -0.15828606676E+02 -0.60614834217E+01 -0.55339376329E+01  0.17830054306E+02  0.51100000000E-03 0.  1.
         12    1    3    3    0    0 -0.12705214639E+02 -0.74226666024E+01 -0.21952834291E+01  0.14877423428E+02  0.00000000000E+00 0. -1.
</event>
<event>
 7    1  0.2353206E-008  0.4614232E+02  0.7816164E-02  0.1320468E+00
        -11   -1    0    0    0    0  0.00000000000E+00  0.00000000000E+00  0.45593999997E+02  0.45594000000E+02  0.51100000000E-03 0. -1.
         11   -1    0    0    0    0 -0.00000000000E+00 -0.00000000000E+00 -0.45593999997E+02  0.45594000000E+02  0.51100000000E-03 0.  1.
    9900012    2    1    2    0    0 -0.43367311721E+02  0.83103737716E+01 -0.89065970041E+01  0.46142317540E+02  0.99999979799E+01 0.  0.
         12    1    1    2    0    0  0.43367311721E+02 -0.83103737716E+01  0.89065970041E+01  0.45045682460E+02  0.00000000000E+00 0. -1.
         11    1    3    3    0    0 -0.47498408916E+01  0.79490397856E+00 -0.29242293924E+01  0.56341794993E+01  0.51100000000E-03 0. -1.
        -11    1    3    3    0    0 -0.33559525259E+02  0.44618355291E+01 -0.68372588580E+01  0.34538352897E+02  0.51100000000E-03 0.  1.
        -12    1    3    3    0    0 -0.50579455704E+01  0.30536342639E+01  0.85489124625E+00  0.59697851430E+01  0.00000000000E+00 0.  1.
</event>
<event>
 7    1  0.2353206E-008  0.4614232E+02  0.7816164E-02  0.1320468E+00
        -11   -1    0    0    0    0  0.00000000000E+00  0.00000000000E+00  0.45593999997E+02  0.45594000000E+02  0.51100000000E-03 0.  1.
         11   -1    0    0    0    0 -0.00000000000E+00 -0.00000000000E+00 -0.45593999997E+02  0.45594000000E+02  0.51100000000E-03 0. -1.
    9900012    2    1    2    0    0  0.13739091184E+02  0.40699633549E+02  0.13560622903E+02  0.46142319950E+02  0.10000019963E+02 0.  0.
         12    1    1    2    0    0 -0.13739091184E+02 -0.40699633549E+02 -0.13560622903E+02  0.45045680050E+02  0.00000000000E+00 0. -1.
         11    1    3    3    0    0  0.11135391114E+01  0.72438940158E+01  0.43560978494E+01  0.85258171808E+01  0.51100000000E-03 0. -1.
        -11    1    3    3    0    0 -0.96540906865E-01  0.38202794850E+01  0.27961242047E+01  0.47352049924E+01  0.51100000000E-03 0.  1.
        -12    1    3    3    0    0  0.12722092980E+02  0.29635460049E+02  0.64084008485E+01  0.32881297777E+02  0.00000000000E+00 0.  1.
</event>
<event>
 7    1  0.2353206E-008  0.4614232E+02  0.7816164E-02  0.1320468E+00
        -11   -1    0    0    0    0  0.00000000000E+00  0.00000000000E+00  0.45593999997E+02  0.45594000000E+02  0.51100000000E-03 0.  1.
         11   -1    0    0    0    0 -0.00000000000E+00 -0.00000000000E+00 -0.45593999997E+02  0.45594000000E+02  0.51100000000E-03 0. -1.
    9900012    2    1    2    0    0 -0.23790510624E+02 -0.35328379516E+02  0.14663923536E+02  0.46142318204E+02  0.10000004042E+02 0.  0.
         12    1    1    2    0    0  0.23790510624E+02  0.35328379516E+02 -0.14663923536E+02  0.45045681796E+02  0.00000000000E+00 0. -1.
         11    1    3    3    0    0 -0.57379601766E+01 -0.14114447445E+02  0.53953740152E+01  0.16163287867E+02  0.51100000000E-03 0. -1.
        -11    1    3    3    0    0 -0.15365687141E+01 -0.51135849261E+01  0.27738438066E+01  0.60169763116E+01  0.51100000000E-03 0.  1.
        -12    1    3    3    0    0 -0.16515981733E+02 -0.16100347145E+02  0.64947057138E+01  0.23962054026E+02  0.00000000000E+00 0.  1.
</event>
<event>
 7    1  0.2353206E-008  0.4614232E+02  0.7816164E-02  0.1320468E+00
        -11   -1    0    0    0    0  0.00000000000E+00  0.00000000000E+00  0.45593999997E+02  0.45594000000E+02  0.51100000000E-03 0. -1.
         11   -1    0    0    0    0 -0.00000000000E+00 -0.00000000000E+00 -0.45593999997E+02  0.45594000000E+02  0.51100000000E-03 0.  1.
    9900012    2    1    2    0    0 -0.25600202652E+02  0.66510626601E+01 -0.36462399394E+02  0.46142316745E+02  0.99999907340E+01 0.  0.
         12    1    1    2    0    0  0.25600202652E+02 -0.66510626601E+01  0.36462399394E+02  0.45045683255E+02  0.00000000000E+00 0. -1.
         11    1    3    3    0    0 -0.91291251060E+01  0.48790203733E+01 -0.13858021093E+02  0.17297124440E+02  0.51100000000E-03 0. -1.
        -11    1    3    3    0    0  0.66657973270E+00  0.16355690758E+00 -0.11500497597E+01  0.13392886593E+01  0.51100000000E-03 0.  1.
         12    1    3    3    0    0 -0.17137657279E+02  0.16084853792E+01 -0.21454328541E+02  0.27505903646E+02  0.00000000000E+00 0. -1.
</event>
<event>
 7    1  0.2353206E-008  0.4614232E+02  0.7816164E-02  0.1320468E+00
        -11   -1    0    0    0    0  0.00000000000E+00  0.00000000000E+00  0.45593999997E+02  0.45594000000E+02  0.51100000000E-03 0.  1.
         11   -1    0    0    0    0 -0.00000000000E+00 -0.00000000000E+00 -0.45593999997E+02  0.45594000000E+02  0.51100000000E-03 0. -1.
    9900012    2    1    2    0    0 -0.37278449169E+02 -0.11782764831E+02  0.22374029028E+02  0.46142317693E+02  0.99999993818E+01 0.  0.
         12    1    1    2    0    0  0.37278449169E+02  0.11782764831E+02 -0.22374029028E+02  0.45045682307E+02  0.00000000000E+00 0. -1.
         11    1    3    3    0    0 -0.16549723058E+02 -0.31368830876E+01  0.81418496530E+01  0.18708903891E+02  0.51100000000E-03 0. -1.
        -11    1    3    3    0    0 -0.11505061579E+02 -0.83652382448E+01  0.86854854005E+01  0.16666772625E+02  0.51100000000E-03 0.  1.
         12    1    3    3    0    0 -0.92236645323E+01 -0.28064349860E+00  0.55466939750E+01  0.10766641177E+02  0.00000000000E+00 0. -1.
</event>
<event>
 7    1  0.2353206E-008  0.4614232E+02  0.7816164E-02  0.1320468E+00
        -11   -1    0    0    0    0  0.00000000000E+00  0.00000000000E+00  0.45593999997E+02  0.45594000000E+02  0.51100000000E-03 0.  1.
         11   -1    0    0    0    0 -0.00000000000E+00 -0.00000000000E+00 -0.45593999997E+02  0.45594000000E+02  0.51100000000E-03 0. -1.
    9900012    2    1    2    0    0  0.32895944666E+02  0.44375152781E+00  0.30769685091E+02  0.46142316395E+02  0.99999875391E+01 0.  0.
         12    1    1    2    0    0 -0.32895944666E+02 -0.44375152781E+00 -0.30769685091E+02  0.45045683605E+02  0.00000000000E+00 0. -1.
         11    1    3    3    0    0  0.52060942897E+01  0.23075675366E+01  0.87415798620E+01  0.10432809038E+02  0.51100000000E-03 0. -1.
        -11    1    3    3    0    0  0.23609547693E+02 -0.11799440119E+01  0.20529754215E+02  0.31309324786E+02  0.51100000000E-03 0.  1.
         12    1    3    3    0    0  0.40803026829E+01 -0.68387199691E+00  0.14983510145E+01  0.44001825706E+01  0.00000000000E+00 0. -1.
</event>
<event>
 7    1  0.2353206E-008  0.4614232E+02  0.7816164E-02  0.1320468E+00
        -11   -1    0    0    0    0  0.00000000000E+00  0.00000000000E+00  0.45593999997E+02  0.45594000000E+02  0.51100000000E-03 0.  1.
         11   -1    0    0    0    0 -0.00000000000E+00 -0.00000000000E+00 -0.45593999997E+02  0.45594000000E+02  0.51100000000E-03 0. -1.
    9900012    2    1    2    0    0 -0.14085859173E+02  0.38019674146E+02  0.19626673390E+02  0.46142319195E+02  0.10000013076E+02 0.  0.
         12    1    1    2    0    0  0.14085859173E+02 -0.38019674146E+02 -0.19626673390E+02  0.45045680805E+02  0.00000000000E+00 0. -1.
         11    1    3    3    0    0 -0.69067123988E+01  0.22453544958E+02  0.13230241592E+02  0.26961150757E+02  0.51100000000E-03 0.  1.
        -11    1    3    3    0    0 -0.39667145646E+01  0.12995035328E+02  0.31686614829E+01  0.13951565628E+02  0.51100000000E-03 0. -1.
        -12    1    3    3    0    0 -0.32124322094E+01  0.25710938606E+01  0.32277703153E+01  0.52296028098E+01  0.00000000000E+00 0.  1.
</event>
<event>
 7    1  0.2353206E-008  0.4614232E+02  0.7816164E-02  0.1320468E+00
        -11   -1    0    0    0    0  0.00000000000E+00  0.00000000000E+00  0.45593999997E+02  0.45594000000E+02  0.51100000000E-03 0.  1.
         11   -1    0    0    0    0 -0.00000000000E+00 -0.00000000000E+00 -0.45593999997E+02  0.45594000000E+02  0.51100000000E-03 0. -1.
    9900012    2    1    2    0    0 -0.11037491166E+02 -0.19017048757E+02  0.39314620425E+02  0.46142315036E+02  0.99999751507E+01 0.  0.
         12    1    1    2    0    0  0.11037491166E+02  0.19017048757E+02 -0.39314620425E+02  0.45045684964E+02  0.00000000000E+00 0. -1.
         11    1    3    3    0    0 -0.14074543989E+01 -0.62619990205E+01  0.55145551826E+01  0.84619075120E+01  0.51100000000E-03 0. -1.
        -11    1    3    3    0    0 -0.38141757092E+01 -0.44887287081E+01  0.77218047955E+01  0.97119972877E+01  0.51100000000E-03 0.  1.
         12    1    3    3    0    0 -0.58158610580E+01 -0.82663210288E+01  0.26078260447E+02  0.27968410236E+02  0.00000000000E+00 0. -1.
</event>
<event>
 7    1  0.2353206E-008  0.4614232E+02  0.7816164E-02  0.1320468E+00
        -11   -1    0    0    0    0  0.00000000000E+00  0.00000000000E+00  0.45593999997E+02  0.45594000000E+02  0.51100000000E-03 0. -1.
         11   -1    0    0    0    0 -0.00000000000E+00 -0.00000000000E+00 -0.45593999997E+02  0.45594000000E+02  0.51100000000E-03 0.  1.
    9900012    2    1    2    0    0  0.34943605295E+02 -0.18974438046E+02  0.21166672812E+02  0.46142324424E+02  0.10000060758E+02 0.  0.
         12    1    1    2    0    0 -0.34943605295E+02  0.18974438046E+02 -0.21166672812E+02  0.45045675576E+02  0.00000000000E+00 0. -1.
         11    1    3    3    0    0  0.47153353888E+01  0.34812360995E+00  0.22213728684E+01  0.52239903865E+01  0.51100000000E-03 0. -1.
        -11    1    3    3    0    0  0.34859042035E+01 -0.22937553725E+01  0.43113410817E+01  0.60000420006E+01  0.51100000000E-03 0.  1.
        -12    1    3    3    0    0  0.26742365703E+02 -0.17028806283E+02  0.14633958861E+02  0.34918292037E+02  0.00000000000E+00 0.  1.
</event>
<event>
 7    1  0.2353206E-008  0.4614232E+02  0.7816164E-02  0.1320468E+00
        -11   -1    0    0    0    0  0.00000000000E+00  0.00000000000E+00  0.45593999997E+02  0.45594000000E+02  0.51100000000E-03 0.  1.
         11   -1    0    0    0    0 -0.00000000000E+00 -0.00000000000E+00 -0.45593999997E+02  0.45594000000E+02  0.51100000000E-03 0. -1.
    9900012    2    1    2    0    0 -0.18591441183E+02  0.29780153399E+02  0.28224356150E+02  0.46142317612E+02  0.99999986407E+01 0.  0.
         12    1    1    2    0    0  0.18591441183E+02 -0.29780153399E+02 -0.28224356150E+02  0.45045682388E+02  0.00000000000E+00 0. -1.
         11    1    3    3    0    0 -0.16509280750E+02  0.26163109410E+02  0.19796643478E+02  0.36728350604E+02  0.51100000000E-03 0. -1.
        -11    1    3    3    0    0 -0.77033040412E+00  0.17338158552E+01  0.39754323128E+01  0.44049504749E+01  0.51100000000E-03 0.  1.
         12    1    3    3    0    0 -0.13118300290E+01  0.18832281340E+01  0.44522803593E+01  0.50090165329E+01  0.00000000000E+00 0. -1.
</event>
<event>
 7    1  0.2353206E-008  0.4614232E+02  0.7816164E-02  0.1320468E+00
        -11   -1    0    0    0    0  0.00000000000E+00  0.00000000000E+00  0.45593999997E+02  0.45594000000E+02  0.51100000000E-03 0.  1.
         11   -1    0    0    0    0 -0.00000000000E+00 -0.00000000000E+00 -0.45593999997E+02  0.45594000000E+02  0.51100000000E-03 0. -1.
    9900012    2    1    2    0    0 -0.34871378858E+02 -0.21608693120E+02  0.18605505603E+02  0.46142317404E+02  0.99999967402E+01 0.  0.
         12    1    1    2    0    0  0.34871378858E+02  0.21608693120E+02 -0.18605505603E+02  0.45045682596E+02  0.00000000000E+00 0. -1.
         11    1    3    3    0    0 -0.17872050006E+02 -0.10578188233E+02  0.42735350913E+01  0.21203097419E+02  0.51100000000E-03 0. -1.
        -11    1    3    3    0    0 -0.10627323484E+02 -0.58751135564E+01  0.95609946011E+01  0.15455406231E+02  0.51100000000E-03 0.  1.
        -12    1    3    3    0    0 -0.63720053685E+01 -0.51553913300E+01  0.47709759108E+01  0.94838137541E+01  0.00000000000E+00 0.  1.
</event>
<event>
 7    1  0.2353206E-008  0.4614232E+02  0.7816164E-02  0.1320468E+00
        -11   -1    0    0    0    0  0.00000000000E+00  0.00000000000E+00  0.45593999997E+02  0.45594000000E+02  0.51100000000E-03 0.  1.
         11   -1    0    0    0    0 -0.00000000000E+00 -0.00000000000E+00 -0.45593999997E+02  0.45594000000E+02  0.51100000000E-03 0. -1.
    9900012    2    1    2    0    0  0.22046786674E+02  0.32837265228E+02  0.21558450743E+02  0.46142316647E+02  0.99999898429E+01 0.  0.
         12    1    1    2    0    0 -0.22046786674E+02 -0.32837265228E+02 -0.21558450743E+02  0.45045683353E+02  0.00000000000E+00 0. -1.
         11    1    3    3    0    0  0.54951946894E+01  0.12008987028E+02  0.47804542342E+01  0.14045130012E+02  0.51100000000E-03 0.  1.
        -11    1    3    3    0    0  0.26147854722E+01  0.17889247566E+01  0.44867259551E+01  0.54925463045E+01  0.51100000000E-03 0. -1.
         12    1    3    3    0    0  0.13936806512E+02  0.19039353443E+02  0.12291270554E+02  0.26604640331E+02  0.00000000000E+00 0. -1.
</event>
<event>
 7    1  0.2353206E-008  0.4614232E+02  0.7816164E-02  0.1320468E+00
        -11   -1    0    0    0    0  0.00000000000E+00  0.00000000000E+00  0.45593999997E+02  0.45594000000E+02  0.51100000000E-03 0.  1.
         11   -1    0    0    0    0 -0.00000000000E+00 -0.00000000000E+00 -0.45593999997E+02  0.45594000000E+02  0.51100000000E-03 0. -1.
    9900012    2    1    2    0    0 -0.13497123873E+02 -0.42487491457E+02 -0.64617507859E+01  0.46142317561E+02  0.99999981767E+01 0.  0.
         12    1    1    2    0    0  0.13497123873E+02  0.42487491457E+02  0.64617507859E+01  0.45045682439E+02  0.00000000000E+00 0. -1.
         11    1    3    3    0    0 -0.27297933913E+01 -0.16191688025E+02 -0.16652157368E+01  0.16504407798E+02  0.51100000000E-03 0. -1.
        -11    1    3    3    0    0 -0.55295265673E+01 -0.20951139919E+02 -0.25121246955E+01  0.21813681457E+02  0.51100000000E-03 0.  1.
         12    1    3    3    0    0 -0.52378039149E+01 -0.53446635127E+01 -0.22844103537E+01  0.78242283057E+01  0.00000000000E+00 0. -1.
</event>
<event>
 7    1  0.2353206E-008  0.4614232E+02  0.7816164E-02  0.1320468E+00
        -11   -1    0    0    0    0  0.00000000000E+00  0.00000000000E+00  0.45593999997E+02  0.45594000000E+02  0.51100000000E-03 0.  1.
         11   -1    0    0    0    0 -0.00000000000E+00 -0.00000000000E+00 -0.45593999997E+02  0.45594000000E+02  0.51100000000E-03 0. -1.
    9900012    2    1    2    0    0 -0.15409727680E+02  0.66941290442E+01  0.41795245034E+02  0.46142316763E+02  0.99999908947E+01 0.  0.
         12    1    1    2    0    0  0.15409727680E+02 -0.66941290442E+01 -0.41795245034E+02  0.45045683237E+02  0.00000000000E+00 0. -1.
         11    1    3    3    0    0 -0.24762585724E+00  0.47308947065E+00  0.83545060205E+00  0.99151912841E+00  0.51100000000E-03 0. -1.
        -11    1    3    3    0    0 -0.39750881543E+01  0.63727829474E+01  0.20486570584E+02  0.21820019773E+02  0.51100000000E-03 0.  1.
        -12    1    3    3    0    0 -0.11187013669E+02 -0.15174337385E+00  0.20473223849E+02  0.23330777862E+02  0.00000000000E+00 0.  1.
</event>
<event>
 7    1  0.2353206E-008  0.4614232E+02  0.7816164E-02  0.1320468E+00
        -11   -1    0    0    0    0  0.00000000000E+00  0.00000000000E+00  0.45593999997E+02  0.45594000000E+02  0.51100000000E-03 0.  1.
         11   -1    0    0    0    0 -0.00000000000E+00 -0.00000000000E+00 -0.45593999997E+02  0.45594000000E+02  0.51100000000E-03 0. -1.
    9900012    2    1    2    0    0 -0.29620539480E+02 -0.30226944910E+02 -0.15429481164E+02  0.46142318224E+02  0.10000004224E+02 0.  0.
         12    1    1    2    0    0  0.29620539480E+02  0.30226944910E+02  0.15429481164E+02  0.45045681776E+02  0.00000000000E+00 0. -1.
         11    1    3    3    0    0 -0.15262393869E+01 -0.37756108357E-01 -0.81860022996E+00  0.17323217909E+01  0.51100000000E-03 0. -1.
        -11    1    3    3    0    0 -0.23435508520E+02 -0.20367400084E+02 -0.10252191252E+02  0.32698034674E+02  0.51100000000E-03 0.  1.
         12    1    3    3    0    0 -0.46587915728E+01 -0.98217887170E+01 -0.43586896818E+01  0.11711961760E+02  0.00000000000E+00 0. -1.
</event>
<event>
 7    1  0.2353206E-008  0.4614232E+02  0.7816164E-02  0.1320468E+00
        -11   -1    0    0    0    0  0.00000000000E+00  0.00000000000E+00  0.45593999997E+02  0.45594000000E+02  0.51100000000E-03 0. -1.
         11   -1    0    0    0    0 -0.00000000000E+00 -0.00000000000E+00 -0.45593999997E+02  0.45594000000E+02  0.51100000000E-03 0.  1.
    9900012    2    1    2    0    0  0.33764168216E+02  0.21611310788E+02 -0.20543751641E+02  0.46142317179E+02  0.99999946935E+01 0.  0.
         12    1    1    2    0    0 -0.33764168216E+02 -0.21611310788E+02  0.20543751641E+02  0.45045682821E+02  0.00000000000E+00 0. -1.
         11    1    3    3    0    0  0.81637362774E+00  0.13490034315E+01 -0.46209801955E+00  0.16431101603E+01  0.51100000000E-03 0. -1.
        -11    1    3    3    0    0  0.99140713263E+01  0.78592417266E+01 -0.11126789595E+02  0.16848202804E+02  0.51100000000E-03 0.  1.
        -12    1    3    3    0    0  0.23033723262E+02  0.12403065630E+02 -0.89548640260E+01  0.27651004214E+02  0.00000000000E+00 0.  1.
</event>
<event>
 7    1  0.2353206E-008  0.4614232E+02  0.7816164E-02  0.1320468E+00
        -11   -1    0    0    0    0  0.00000000000E+00  0.00000000000E+00  0.45593999997E+02  0.45594000000E+02  0.51100000000E-03 0.  1.
         11   -1    0    0    0    0 -0.00000000000E+00 -0.00000000000E+00 -0.45593999997E+02  0.45594000000E+02  0.51100000000E-03 0. -1.
    9900012    2    1    2    0    0 -0.20813383307E+02  0.29122560150E+02  0.27345804630E+02  0.46142318018E+02  0.10000002346E+02 0.  0.
         12    1    1    2    0    0  0.20813383307E+02 -0.29122560150E+02 -0.27345804630E+02  0.45045681982E+02  0.00000000000E+00 0. -1.
         11    1    3    3    0    0 -0.16377625060E+01  0.76299961664E+01  0.76535054911E+01  0.10930473644E+02  0.51100000000E-03 0. -1.
        -11    1    3    3    0    0 -0.12498491150E+02  0.11883553393E+02  0.13927493592E+02  0.22167683692E+02  0.51100000000E-03 0.  1.
        -12    1    3    3    0    0 -0.66771296503E+01  0.96090105908E+01  0.57648055470E+01  0.13044160682E+02  0.00000000000E+00 0.  1.
</event>
<event>
 7    1  0.2353206E-008  0.4614232E+02  0.7816164E-02  0.1320468E+00
        -11   -1    0    0    0    0  0.00000000000E+00  0.00000000000E+00  0.45593999997E+02  0.45594000000E+02  0.51100000000E-03 0.  1.
         11   -1    0    0    0    0 -0.00000000000E+00 -0.00000000000E+00 -0.45593999997E+02  0.45594000000E+02  0.51100000000E-03 0. -1.
    9900012    2    1    2    0    0  0.24590653898E+02 -0.23922114934E+02  0.29191533637E+02  0.46142317874E+02  0.10000001032E+02 0.  0.
         12    1    1    2    0    0 -0.24590653898E+02  0.23922114934E+02 -0.29191533637E+02  0.45045682126E+02  0.00000000000E+00 0. -1.
         11    1    3    3    0    0  0.16322694918E+02 -0.15227205190E+02  0.14410651371E+02  0.26570002267E+02  0.51100000000E-03 0. -1.
        -11    1    3    3    0    0  0.47883184969E+01 -0.78746808686E+01  0.11310446990E+02  0.14589887052E+02  0.51100000000E-03 0.  1.
        -12    1    3    3    0    0  0.34796404832E+01 -0.82022887598E+00  0.34704352762E+01  0.49824285552E+01  0.00000000000E+00 0.  1.
</event>
<event>
 7    1  0.2353206E-008  0.4614232E+02  0.7816164E-02  0.1320468E+00
        -11   -1    0    0    0    0  0.00000000000E+00  0.00000000000E+00  0.45593999997E+02  0.45594000000E+02  0.51100000000E-03 0.  1.
         11   -1    0    0    0    0 -0.00000000000E+00 -0.00000000000E+00 -0.45593999997E+02  0.45594000000E+02  0.51100000000E-03 0. -1.
    9900012    2    1    2    0    0  0.32998716067E+02  0.30451541588E+02  0.35919038965E+01  0.46142318511E+02  0.10000006841E+02 0.  0.
         12    1    1    2    0    0 -0.32998716067E+02 -0.30451541588E+02 -0.35919038965E+01  0.45045681489E+02  0.00000000000E+00 0. -1.
         11    1    3    3    0    0  0.33525437986E+00 -0.22966646361E+00  0.21450404101E+00  0.45951542787E+00  0.51100000000E-03 0.  1.
        -11    1    3    3    0    0  0.84275521079E+01  0.45161886606E+01 -0.15260173066E+01  0.96823717978E+01  0.51100000000E-03 0. -1.
        -12    1    3    3    0    0  0.24235909580E+02  0.26165019391E+02  0.49034171621E+01  0.36000431286E+02  0.00000000000E+00 0.  1.
</event>
<event>
 7    1  0.2353206E-008  0.4614232E+02  0.7816164E-02  0.1320468E+00
        -11   -1    0    0    0    0  0.00000000000E+00  0.00000000000E+00  0.45593999997E+02  0.45594000000E+02  0.51100000000E-03 0.  1.
         11   -1    0    0    0    0 -0.00000000000E+00 -0.00000000000E+00 -0.45593999997E+02  0.45594000000E+02  0.51100000000E-03 0. -1.
    9900012    2    1    2    0    0 -0.42854761421E+02  0.92109531017E+01  0.10379846566E+02  0.46142318207E+02  0.10000004066E+02 0.  0.
         12    1    1    2    0    0  0.42854761421E+02 -0.92109531017E+01 -0.10379846566E+02  0.45045681793E+02  0.00000000000E+00 0. -1.
         11    1    3    3    0    0 -0.74454085522E+01  0.16571062535E+01  0.27536583569E+01  0.81094231763E+01  0.51100000000E-03 0. -1.
        -11    1    3    3    0    0 -0.26753362331E+02  0.60654212805E+01  0.95399237091E+01  0.29043792382E+02  0.51100000000E-03 0.  1.
         12    1    3    3    0    0 -0.86559905378E+01  0.14884255677E+01 -0.19137355001E+01  0.89891026485E+01  0.00000000000E+00 0. -1.
</event>
<event>
 7    1  0.2353206E-008  0.4614232E+02  0.7816164E-02  0.1320468E+00
        -11   -1    0    0    0    0  0.00000000000E+00  0.00000000000E+00  0.45593999997E+02  0.45594000000E+02  0.51100000000E-03 0.  1.
         11   -1    0    0    0    0 -0.00000000000E+00 -0.00000000000E+00 -0.45593999997E+02  0.45594000000E+02  0.51100000000E-03 0. -1.
    9900012    2    1    2    0    0  0.50639258087E+01  0.54492465742E+01  0.44427197381E+02  0.46142317632E+02  0.99999988267E+01 0.  0.
         12    1    1    2    0    0 -0.50639258087E+01 -0.54492465742E+01 -0.44427197381E+02  0.45045682368E+02  0.00000000000E+00 0. -1.
         11    1    3    3    0    0  0.28575400993E+01 -0.71279340516E+00  0.50909995166E+01  0.58814867335E+01  0.51100000000E-03 0. -1.
        -11    1    3    3    0    0 -0.18300947037E+01  0.25270331282E+01  0.12852591347E+02  0.13225893075E+02  0.51100000000E-03 0.  1.
        -12    1    3    3    0    0  0.40364804131E+01  0.36350068511E+01  0.26483606518E+02  0.27034937824E+02  0.00000000000E+00 0.  1.
</event>
<event>
 7    1  0.2353206E-008  0.4614232E+02  0.7816164E-02  0.1320468E+00
        -11   -1    0    0    0    0  0.00000000000E+00  0.00000000000E+00  0.45593999997E+02  0.45594000000E+02  0.51100000000E-03 0.  1.
         11   -1    0    0    0    0 -0.00000000000E+00 -0.00000000000E+00 -0.45593999997E+02  0.45594000000E+02  0.51100000000E-03 0. -1.
    9900012    2    1    2    0    0  0.88214932717E+00  0.37551232719E+02  0.24864437325E+02  0.46142317524E+02  0.99999978422E+01 0.  0.
         12    1    1    2    0    0 -0.88214932717E+00 -0.37551232719E+02 -0.24864437325E+02  0.45045682476E+02  0.00000000000E+00 0. -1.
         11    1    3    3    0    0  0.13158132910E+00  0.40616889271E+01  0.41103917428E+00  0.40845543271E+01  0.51100000000E-03 0. -1.
        -11    1    3    3    0    0 -0.38056450997E+00  0.23178458132E+02  0.12892650342E+02  0.26525576032E+02  0.51100000000E-03 0.  1.
         12    1    3    3    0    0  0.11311325080E+01  0.10311085661E+02  0.11560747809E+02  0.15532187166E+02  0.00000000000E+00 0. -1.
</event>
<event>
 7    1  0.2353206E-008  0.4614232E+02  0.7816164E-02  0.1320468E+00
        -11   -1    0    0    0    0  0.00000000000E+00  0.00000000000E+00  0.45593999997E+02  0.45594000000E+02  0.51100000000E-03 0.  1.
         11   -1    0    0    0    0 -0.00000000000E+00 -0.00000000000E+00 -0.45593999997E+02  0.45594000000E+02  0.51100000000E-03 0. -1.
    9900012    2    1    2    0    0 -0.39314776615E+02  0.20894513768E+02  0.68469755817E+01  0.46142318292E+02  0.10000004845E+02 0.  0.
         12    1    1    2    0    0  0.39314776615E+02 -0.20894513768E+02 -0.68469755817E+01  0.45045681708E+02  0.00000000000E+00 0. -1.
         11    1    3    3    0    0 -0.89547417374E+01  0.15014092387E+01  0.37667603787E+01  0.98300617138E+01  0.51100000000E-03 0. -1.
        -11    1    3    3    0    0 -0.16884028846E+02  0.10084248068E+02  0.32488132309E+01  0.19932819089E+02  0.51100000000E-03 0.  1.
         12    1    3    3    0    0 -0.13476006032E+02  0.93088564611E+01 -0.16859802784E+00  0.16379437490E+02  0.00000000000E+00 0. -1.
</event>
<event>
 7    1  0.2353206E-008  0.4614232E+02  0.7816164E-02  0.1320468E+00
        -11   -1    0    0    0    0  0.00000000000E+00  0.00000000000E+00  0.45593999997E+02  0.45594000000E+02  0.51100000000E-03 0.  1.
         11   -1    0    0    0    0 -0.00000000000E+00 -0.00000000000E+00 -0.45593999997E+02  0.45594000000E+02  0.51100000000E-03 0. -1.
    9900012    2    1    2    0    0 -0.36125301249E+02 -0.26105530610E+02  0.65251296079E+01  0.46142318352E+02  0.10000005388E+02 0.  0.
         12    1    1    2    0    0  0.36125301249E+02  0.26105530610E+02 -0.65251296079E+01  0.45045681648E+02  0.00000000000E+00 0. -1.
         11    1    3    3    0    0 -0.67517424703E+01 -0.87082196692E+01  0.34180290345E+00  0.11024334251E+02  0.51100000000E-03 0. -1.
        -11    1    3    3    0    0 -0.28636555235E+02 -0.17795761136E+02  0.61953643721E+01  0.34280080952E+02  0.51100000000E-03 0.  1.
        -12    1    3    3    0    0 -0.73700354333E+00  0.39845019516E+00 -0.12037667650E-01  0.83790314855E+00  0.00000000000E+00 0.  1.
</event>
<event>
 7    1  0.2353206E-008  0.4614232E+02  0.7816164E-02  0.1320468E+00
        -11   -1    0    0    0    0  0.00000000000E+00  0.00000000000E+00  0.45593999997E+02  0.45594000000E+02  0.51100000000E-03 0.  1.
         11   -1    0    0    0    0 -0.00000000000E+00 -0.00000000000E+00 -0.45593999997E+02  0.45594000000E+02  0.51100000000E-03 0. -1.
    9900012    2    1    2    0    0 -0.15651913415E+02  0.25494578818E+02  0.33677254475E+02  0.46142318613E+02  0.10000007770E+02 0.  0.
         12    1    1    2    0    0  0.15651913415E+02 -0.25494578818E+02 -0.33677254475E+02  0.45045681387E+02  0.00000000000E+00 0. -1.
         11    1    3    3    0    0 -0.43763987372E+01  0.53406226452E+01  0.11709350875E+02  0.13593528398E+02  0.51100000000E-03 0. -1.
        -11    1    3    3    0    0 -0.68555015683E+01  0.16225049364E+02  0.19081090928E+02  0.25968021871E+02  0.51100000000E-03 0.  1.
         12    1    3    3    0    0 -0.44200131090E+01  0.39289068092E+01  0.28868126718E+01  0.65807683443E+01  0.00000000000E+00 0. -1.
</event>
<event>
 7    1  0.2353206E-008  0.4614232E+02  0.7816164E-02  0.1320468E+00
        -11   -1    0    0    0    0  0.00000000000E+00  0.00000000000E+00  0.45593999997E+02  0.45594000000E+02  0.51100000000E-03 0.  1.
         11   -1    0    0    0    0 -0.00000000000E+00 -0.00000000000E+00 -0.45593999997E+02  0.45594000000E+02  0.51100000000E-03 0. -1.
    9900012    2    1    2    0    0 -0.91562505690E+01 -0.38407263306E+02  0.21683145116E+02  0.46142316730E+02  0.99999905977E+01 0.  0.
         12    1    1    2    0    0  0.91562505690E+01  0.38407263306E+02 -0.21683145116E+02  0.45045683270E+02  0.00000000000E+00 0. -1.
         11    1    3    3    0    0 -0.30218608461E+01 -0.12590548928E+02  0.60690191143E+01  0.14299879669E+02  0.51100000000E-03 0. -1.
        -11    1    3    3    0    0 -0.52305615861E+00 -0.17588142016E+02  0.11754884475E+02  0.21161135050E+02  0.51100000000E-03 0.  1.
         12    1    3    3    0    0 -0.56113335643E+01 -0.82285723621E+01  0.38592415264E+01  0.10681302011E+02  0.00000000000E+00 0. -1.
</event>
<event>
 7    1  0.2353206E-008  0.4614233E+02  0.7816164E-02  0.1320468E+00
        -11   -1    0    0    0    0  0.00000000000E+00  0.00000000000E+00  0.45593999997E+02  0.45594000000E+02  0.51100000000E-03 0. -1.
         11   -1    0    0    0    0 -0.00000000000E+00 -0.00000000000E+00 -0.45593999997E+02  0.45594000000E+02  0.51100000000E-03 0.  1.
    9900012    2    1    2    0    0  0.30495257955E-01 -0.44201420823E+02 -0.86802230977E+01  0.46142325338E+02  0.10000069091E+02 0.  0.
         12    1    1    2    0    0 -0.30495257955E-01  0.44201420823E+02  0.86802230977E+01  0.45045674662E+02  0.00000000000E+00 0. -1.
         11    1    3    3    0    0 -0.86476065285E+00 -0.12655464380E+02 -0.26543338932E+01  0.12959709810E+02  0.51100000000E-03 0.  1.
        -11    1    3    3    0    0 -0.13327054773E+01 -0.29717289520E+02 -0.54062892710E+01  0.30234440035E+02  0.51100000000E-03 0. -1.
        -12    1    3    3    0    0  0.22279613881E+01 -0.18286669229E+01 -0.61959993355E+00  0.29481754933E+01  0.00000000000E+00 0.  1.
</event>
<event>
 7    1  0.2353206E-008  0.4614232E+02  0.7816164E-02  0.1320468E+00
        -11   -1    0    0    0    0  0.00000000000E+00  0.00000000000E+00  0.45593999997E+02  0.45594000000E+02  0.51100000000E-03 0.  1.
         11   -1    0    0    0    0 -0.00000000000E+00 -0.00000000000E+00 -0.45593999997E+02  0.45594000000E+02  0.51100000000E-03 0. -1.
    9900012    2    1    2    0    0  0.72642718275E+01 -0.12003298613E+02  0.42804961399E+02  0.46142317153E+02  0.99999944568E+01 0.  0.
         12    1    1    2    0    0 -0.72642718275E+01  0.12003298613E+02 -0.42804961399E+02  0.45045682847E+02  0.00000000000E+00 0. -1.
         11    1    3    3    0    0 -0.92093413199E+00 -0.10933368505E+01  0.62303026855E+01  0.63921965676E+01  0.51100000000E-03 0. -1.
        -11    1    3    3    0    0  0.90442067316E+01 -0.72636485990E+01  0.30269451546E+02  0.32416013998E+02  0.51100000000E-03 0.  1.
        -12    1    3    3    0    0 -0.85900077213E+00 -0.36463131636E+01  0.63052071670E+01  0.73341065872E+01  0.00000000000E+00 0.  1.
</event>
<event>
 7    1  0.2353206E-008  0.4614232E+02  0.7816164E-02  0.1320468E+00
        -11   -1    0    0    0    0  0.00000000000E+00  0.00000000000E+00  0.45593999997E+02  0.45594000000E+02  0.51100000000E-03 0.  1.
         11   -1    0    0    0    0 -0.00000000000E+00 -0.00000000000E+00 -0.45593999997E+02  0.45594000000E+02  0.51100000000E-03 0. -1.
    9900012    2    1    2    0    0  0.37542758966E+02 -0.12609265242E+02  0.21463021540E+02  0.46142316363E+02  0.99999872514E+01 0.  0.
         12    1    1    2    0    0 -0.37542758966E+02  0.12609265242E+02 -0.21463021540E+02  0.45045683637E+02  0.00000000000E+00 0. -1.
         11    1    3    3    0    0  0.21248664530E+02 -0.96857962695E+01  0.15394037124E+02  0.27969568694E+02  0.51100000000E-03 0. -1.
        -11    1    3    3    0    0  0.23683886668E+01  0.11303974323E+01  0.10112104221E+01  0.28124028892E+01  0.51100000000E-03 0.  1.
        -12    1    3    3    0    0  0.13925705769E+02 -0.40538664054E+01  0.50577739936E+01  0.15360344780E+02  0.00000000000E+00 0.  1.
</event>
<event>
 7    1  0.2353206E-008  0.4614232E+02  0.7816164E-02  0.1320468E+00
        -11   -1    0    0    0    0  0.00000000000E+00  0.00000000000E+00  0.45593999997E+02  0.45594000000E+02  0.51100000000E-03 0. -1.
         11   -1    0    0    0    0 -0.00000000000E+00 -0.00000000000E+00 -0.45593999997E+02  0.45594000000E+02  0.51100000000E-03 0.  1.
    9900012    2    1    2    0    0 -0.20478497081E+02  0.40121384719E+02 -0.13762743695E+00  0.46142319899E+02  0.10000019492E+02 0.  0.
         12    1    1    2    0    0  0.20478497081E+02 -0.40121384719E+02  0.13762743695E+00  0.45045680101E+02  0.00000000000E+00 0. -1.
         11    1    3    3    0    0 -0.75657116346E+00  0.58996644426E+01 -0.21364645841E+01  0.63200412689E+01  0.51100000000E-03 0. -1.
        -11    1    3    3    0    0 -0.10146507452E+02  0.16093489969E+02 -0.12439627646E+01  0.19065662236E+02  0.51100000000E-03 0.  1.
         12    1    3    3    0    0 -0.95754184652E+01  0.18128230307E+02  0.32427999117E+01  0.20756616394E+02  0.00000000000E+00 0. -1.
</event>
<event>
 7    1  0.2353206E-008  0.4614232E+02  0.7816164E-02  0.1320468E+00
        -11   -1    0    0    0    0  0.00000000000E+00  0.00000000000E+00  0.45593999997E+02  0.45594000000E+02  0.51100000000E-03 0. -1.
         11   -1    0    0    0    0 -0.00000000000E+00 -0.00000000000E+00 -0.45593999997E+02  0.45594000000E+02  0.51100000000E-03 0.  1.
    9900012    2    1    2    0    0 -0.69679223789E+01  0.38039134312E+02 -0.23099475940E+02  0.46142317963E+02  0.10000001838E+02 0.  0.
         12    1    1    2    0    0  0.69679223789E+01 -0.38039134312E+02  0.23099475940E+02  0.45045682037E+02  0.00000000000E+00 0. -1.
         11    1    3    3    0    0 -0.23870297331E+01  0.12279193638E+02 -0.28360767971E+01  0.12826528728E+02  0.51100000000E-03 0. -1.
        -11    1    3    3    0    0 -0.99738924992E+00  0.16276627379E+02 -0.12518033564E+02  0.20557834242E+02  0.51100000000E-03 0.  1.
        -12    1    3    3    0    0 -0.35835033959E+01  0.94833132948E+01 -0.77453655790E+01  0.12757954992E+02  0.00000000000E+00 0.  1.
</event>
<event>
 7    1  0.2353206E-008  0.4614232E+02  0.7816164E-02  0.1320468E+00
        -11   -1    0    0    0    0  0.00000000000E+00  0.00000000000E+00  0.45593999997E+02  0.45594000000E+02  0.51100000000E-03 0.  1.
         11   -1    0    0    0    0 -0.00000000000E+00 -0.00000000000E+00 -0.45593999997E+02  0.45594000000E+02  0.51100000000E-03 0. -1.
    9900012    2    1    2    0    0 -0.25680975481E+02  0.35275766993E+02  0.11190231727E+02  0.46142317358E+02  0.99999963237E+01 0.  0.
         12    1    1    2    0    0  0.25680975481E+02 -0.35275766993E+02 -0.11190231727E+02  0.45045682642E+02  0.00000000000E+00 0. -1.
         11    1    3    3    0    0 -0.41425743864E+01  0.65291474699E+01  0.48040150390E+01  0.91032549116E+01  0.51100000000E-03 0. -1.
        -11    1    3    3    0    0 -0.16628847718E+02  0.18201246559E+02  0.25245929466E+01  0.24782605241E+02  0.51100000000E-03 0.  1.
        -12    1    3    3    0    0 -0.49095533768E+01  0.10545372964E+02  0.38616237413E+01  0.12256457205E+02  0.00000000000E+00 0.  1.
</event>
<event>
 7    1  0.2353206E-008  0.4614232E+02  0.7816164E-02  0.1320468E+00
        -11   -1    0    0    0    0  0.00000000000E+00  0.00000000000E+00  0.45593999997E+02  0.45594000000E+02  0.51100000000E-03 0.  1.
         11   -1    0    0    0    0 -0.00000000000E+00 -0.00000000000E+00 -0.45593999997E+02  0.45594000000E+02  0.51100000000E-03 0. -1.
    9900012    2    1    2    0    0 -0.15682598606E+02 -0.32008187085E+02  0.27543521029E+02  0.46142317741E+02  0.99999998145E+01 0.  0.
         12    1    1    2    0    0  0.15682598606E+02  0.32008187085E+02 -0.27543521029E+02  0.45045682259E+02  0.00000000000E+00 0. -1.
         11    1    3    3    0    0  0.12974336947E+00 -0.80798382596E+00 -0.13973607376E+00  0.83017927966E+00  0.51100000000E-03 0. -1.
        -11    1    3    3    0    0 -0.13665270132E+02 -0.18544184574E+02  0.17848173611E+02  0.29140756524E+02  0.51100000000E-03 0.  1.
         12    1    3    3    0    0 -0.21470718442E+01 -0.12656018686E+02  0.98350834912E+01  0.16171381937E+02  0.00000000000E+00 0. -1.
</event>
<event>
 7    1  0.2353206E-008  0.4614232E+02  0.7816164E-02  0.1320468E+00
        -11   -1    0    0    0    0  0.00000000000E+00  0.00000000000E+00  0.45593999997E+02  0.45594000000E+02  0.51100000000E-03 0. -1.
         11   -1    0    0    0    0 -0.00000000000E+00 -0.00000000000E+00 -0.45593999997E+02  0.45594000000E+02  0.51100000000E-03 0.  1.
    9900012    2    1    2    0    0  0.28148371407E+02  0.30180769052E+02  0.18052807966E+02  0.46142317533E+02  0.99999979190E+01 0.  0.
         12    1    1    2    0    0 -0.28148371407E+02 -0.30180769052E+02 -0.18052807966E+02  0.45045682467E+02  0.00000000000E+00 0. -1.
         11    1    3    3    0    0  0.10899658139E+02  0.18384215166E+02  0.88635314747E+01  0.23137504301E+02  0.51100000000E-03 0. -1.
        -11    1    3    3    0    0  0.52015581259E+01  0.22284421279E+01  0.18033173054E+01  0.59392015305E+01  0.51100000000E-03 0.  1.
        -12    1    3    3    0    0  0.12047155143E+02  0.95681117585E+01  0.73859591857E+01  0.17065611702E+02  0.00000000000E+00 0.  1.
</event>
<event>
 7    1  0.2353206E-008  0.4614232E+02  0.7816164E-02  0.1320468E+00
        -11   -1    0    0    0    0  0.00000000000E+00  0.00000000000E+00  0.45593999997E+02  0.45594000000E+02  0.51100000000E-03 0.  1.
         11   -1    0    0    0    0 -0.00000000000E+00 -0.00000000000E+00 -0.45593999997E+02  0.45594000000E+02  0.51100000000E-03 0. -1.
    9900012    2    1    2    0    0 -0.24545955968E+02  0.78431718848E+01  0.36947181375E+02  0.46142317508E+02  0.99999976940E+01 0.  0.
         12    1    1    2    0    0  0.24545955968E+02 -0.78431718848E+01 -0.36947181375E+02  0.45045682492E+02  0.00000000000E+00 0. -1.
         11    1    3    3    0    0 -0.18295593505E+01  0.14888119329E-02  0.47330992490E+01  0.50743983284E+01  0.51100000000E-03 0. -1.
        -11    1    3    3    0    0 -0.87181862637E+01  0.31047965767E+01  0.19455164059E+02  0.21544139396E+02  0.51100000000E-03 0.  1.
         12    1    3    3    0    0 -0.13998210354E+02  0.47368864962E+01  0.12758918067E+02  0.19523779784E+02  0.00000000000E+00 0. -1.
</event>
<event>
 7    1  0.2353206E-008  0.4614232E+02  0.7816164E-02  0.1320468E+00
        -11   -1    0    0    0    0  0.00000000000E+00  0.00000000000E+00  0.45593999997E+02  0.45594000000E+02  0.51100000000E-03 0.  1.
         11   -1    0    0    0    0 -0.00000000000E+00 -0.00000000000E+00 -0.45593999997E+02  0.45594000000E+02  0.51100000000E-03 0. -1.
    9900012    2    1    2    0    0  0.23131995067E+02  0.14712584469E+02  0.35743030189E+02  0.46142317137E+02  0.99999943079E+01 0.  0.
         12    1    1    2    0    0 -0.23131995067E+02 -0.14712584469E+02 -0.35743030189E+02  0.45045682863E+02  0.00000000000E+00 0. -1.
         11    1    3    3    0    0  0.34835070227E+01  0.38887434226E+01  0.75658661143E+01  0.91923597027E+01  0.51100000000E-03 0. -1.
        -11    1    3    3    0    0  0.17229919693E+02  0.11322523123E+02  0.27535076142E+02  0.34398402302E+02  0.51100000000E-03 0.  1.
        -12    1    3    3    0    0  0.24185683505E+01 -0.49868207643E+00  0.64208793224E+00  0.25515551321E+01  0.00000000000E+00 0.  1.
</event>
<event>
 7    1  0.2353206E-008  0.4614232E+02  0.7816164E-02  0.1320468E+00
        -11   -1    0    0    0    0  0.00000000000E+00  0.00000000000E+00  0.45593999997E+02  0.45594000000E+02  0.51100000000E-03 0. -1.
         11   -1    0    0    0    0 -0.00000000000E+00 -0.00000000000E+00 -0.45593999997E+02  0.45594000000E+02  0.51100000000E-03 0.  1.
    9900012    2    1    2    0    0  0.20700795384E+02 -0.64550512218E+01 -0.39483197379E+02  0.46142317731E+02  0.99999997255E+01 0.  0.
         12    1    1    2    0    0 -0.20700795384E+02  0.64550512218E+01  0.39483197379E+02  0.45045682269E+02  0.00000000000E+00 0. -1.
         11    1    3    3    0    0  0.35073720788E+01 -0.71577424723E+00 -0.12766127179E+02  0.13258506518E+02  0.51100000000E-03 0. -1.
        -11    1    3    3    0    0  0.13045032528E+01  0.71967607287E+00 -0.49615458795E+01  0.51804054051E+01  0.51100000000E-03 0.  1.
        -12    1    3    3    0    0  0.15888920052E+02 -0.64589530475E+01 -0.21755524321E+02  0.27703405808E+02  0.00000000000E+00 0.  1.
</event>
<event>
 7    1  0.2353206E-008  0.4614232E+02  0.7816164E-02  0.1320468E+00
        -11   -1    0    0    0    0  0.00000000000E+00  0.00000000000E+00  0.45593999997E+02  0.45594000000E+02  0.51100000000E-03 0.  1.
         11   -1    0    0    0    0 -0.00000000000E+00 -0.00000000000E+00 -0.45593999997E+02  0.45594000000E+02  0.51100000000E-03 0. -1.
    9900012    2    1    2    0    0 -0.76157217166E+01 -0.12896433988E+02  0.42482894612E+02  0.46142316950E+02  0.99999925995E+01 0.  0.
         12    1    1    2    0    0  0.76157217166E+01  0.12896433988E+02 -0.42482894612E+02  0.45045683050E+02  0.00000000000E+00 0. -1.
         11    1    3    3    0    0 -0.44173974714E+01 -0.36068819807E+01  0.20617405542E+02  0.21391596705E+02  0.51100000000E-03 0. -1.
        -11    1    3    3    0    0 -0.42367896810E+01 -0.81414569075E+01  0.14040500554E+02  0.16774068184E+02  0.51100000000E-03 0.  1.
        -12    1    3    3    0    0  0.10384654358E+01 -0.11480951000E+01  0.78249885153E+01  0.79766520599E+01  0.00000000000E+00 0.  1.
</event>
<event>
 7    1  0.2353206E-008  0.4614232E+02  0.7816164E-02  0.1320468E+00
        -11   -1    0    0    0    0  0.00000000000E+00  0.00000000000E+00  0.45593999997E+02  0.45594000000E+02  0.51100000000E-03 0.  1.
         11   -1    0    0    0    0 -0.00000000000E+00 -0.00000000000E+00 -0.45593999997E+02  0.45594000000E+02  0.51100000000E-03 0. -1.
    9900012    2    1    2    0    0 -0.20873540647E+02  0.39351585419E+02 -0.66978568653E+01  0.46142320287E+02  0.10000023037E+02 0.  0.
         12    1    1    2    0    0  0.20873540647E+02 -0.39351585419E+02  0.66978568653E+01  0.45045679713E+02  0.00000000000E+00 0. -1.
         11    1    3    3    0    0 -0.90447749367E+01  0.15672662938E+02 -0.49733302683E+01  0.18766308413E+02  0.51100000000E-03 0. -1.
        -11    1    3    3    0    0 -0.24836120312E+00  0.54073012389E+01  0.12070210052E+01  0.55459435576E+01  0.51100000000E-03 0.  1.
        -12    1    3    3    0    0 -0.11580404508E+02  0.18271621242E+02 -0.29315476022E+01  0.21830068317E+02  0.00000000000E+00 0.  1.
</event>
<event>
 7    1  0.2353206E-008  0.4614232E+02  0.7816164E-02  0.1320468E+00
        -11   -1    0    0    0    0  0.00000000000E+00  0.00000000000E+00  0.45593999997E+02  0.45594000000E+02  0.51100000000E-03 0.  1.
         11   -1    0    0    0    0 -0.00000000000E+00 -0.00000000000E+00 -0.45593999997E+02  0.45594000000E+02  0.51100000000E-03 0. -1.
    9900012    2    1    2    0    0 -0.17046268122E+02 -0.17742973161E+02  0.37732282672E+02  0.46142317531E+02  0.99999979012E+01 0.  0.
         12    1    1    2    0    0  0.17046268122E+02  0.17742973161E+02 -0.37732282672E+02  0.45045682469E+02  0.00000000000E+00 0. -1.
         11    1    3    3    0    0 -0.73406831013E+01 -0.99041452220E+01  0.15926343525E+02  0.20140162345E+02  0.51100000000E-03 0. -1.
        -11    1    3    3    0    0 -0.81849211640E+01 -0.28636507504E+01  0.16056332880E+02  0.18248267203E+02  0.51100000000E-03 0.  1.
        -12    1    3    3    0    0 -0.15206638564E+01 -0.49751771889E+01  0.57496062669E+01  0.77538879828E+01  0.00000000000E+00 0.  1.
</event>
<event>
 7    1  0.2353206E-008  0.4614232E+02  0.7816164E-02  0.1320468E+00
        -11   -1    0    0    0    0  0.00000000000E+00  0.00000000000E+00  0.45593999997E+02  0.45594000000E+02  0.51100000000E-03 0. -1.
         11   -1    0    0    0    0 -0.00000000000E+00 -0.00000000000E+00 -0.45593999997E+02  0.45594000000E+02  0.51100000000E-03 0.  1.
    9900012    2    1    2    0    0 -0.90263689384E+00 -0.31350777185E+02  0.32333070255E+02  0.46142318568E+02  0.10000007362E+02 0.  0.
         12    1    1    2    0    0  0.90263689384E+00  0.31350777185E+02 -0.32333070255E+02  0.45045681432E+02  0.00000000000E+00 0. -1.
         11    1    3    3    0    0 -0.81273346789E+00 -0.58127406837E+00  0.31521606456E+01  0.33067404236E+01  0.51100000000E-03 0. -1.
        -11    1    3    3    0    0  0.12969866253E+01 -0.12330663364E+01  0.16774635014E+01  0.24528577121E+01  0.51100000000E-03 0.  1.
        -12    1    3    3    0    0 -0.13868900512E+01 -0.29536436781E+02  0.27503446108E+02  0.40382720433E+02  0.00000000000E+00 0.  1.
</event>
<event>
 7    1  0.2353206E-008  0.4614232E+02  0.7816164E-02  0.1320468E+00
        -11   -1    0    0    0    0  0.00000000000E+00  0.00000000000E+00  0.45593999997E+02  0.45594000000E+02  0.51100000000E-03 0.  1.
         11   -1    0    0    0    0 -0.00000000000E+00 -0.00000000000E+00 -0.45593999997E+02  0.45594000000E+02  0.51100000000E-03 0. -1.
    9900012    2    1    2    0    0  0.15162112207E+02 -0.36621865454E+02  0.21402403111E+02  0.46142317246E+02  0.99999952991E+01 0.  0.
         12    1    1    2    0    0 -0.15162112207E+02  0.36621865454E+02 -0.21402403111E+02  0.45045682754E+02  0.00000000000E+00 0. -1.
         11    1    3    3    0    0  0.24296438790E+00 -0.35283715321E+01  0.35253792227E+01  0.49936696214E+01  0.51100000000E-03 0. -1.
        -11    1    3    3    0    0  0.94200140793E+01 -0.17294819506E+02  0.13436726131E+02  0.23840995289E+02  0.51100000000E-03 0.  1.
        -12    1    3    3    0    0  0.54991337400E+01 -0.15798674416E+02  0.44402977573E+01  0.17307652335E+02  0.00000000000E+00 0.  1.
</event>
<event>
 7    1  0.2353206E-008  0.4614232E+02  0.7816164E-02  0.1320468E+00
        -11   -1    0    0    0    0  0.00000000000E+00  0.00000000000E+00  0.45593999997E+02  0.45594000000E+02  0.51100000000E-03 0.  1.
         11   -1    0    0    0    0 -0.00000000000E+00 -0.00000000000E+00 -0.45593999997E+02  0.45594000000E+02  0.51100000000E-03 0. -1.
    9900012    2    1    2    0    0  0.11987732289E+01 -0.45579469138E+01  0.44798454904E+02  0.46142317642E+02  0.99999989162E+01 0.  0.
         12    1    1    2    0    0 -0.11987732289E+01  0.45579469138E+01 -0.44798454904E+02  0.45045682358E+02  0.00000000000E+00 0. -1.
         11    1    3    3    0    0 -0.15250059572E+01 -0.14494738851E+01  0.23622884256E+02  0.23716392612E+02  0.51100000000E-03 0. -1.
        -11    1    3    3    0    0  0.21040377235E+00 -0.42408255628E+01  0.91316022511E+01  0.10070503023E+02  0.51100000000E-03 0.  1.
         12    1    3    3    0    0  0.25133754137E+01  0.11323525341E+01  0.12043968397E+02  0.12355422007E+02  0.00000000000E+00 0. -1.
</event>
<event>
 7    1  0.2353206E-008  0.4614232E+02  0.7816164E-02  0.1320468E+00
        -11   -1    0    0    0    0  0.00000000000E+00  0.00000000000E+00  0.45593999997E+02  0.45594000000E+02  0.51100000000E-03 0.  1.
         11   -1    0    0    0    0 -0.00000000000E+00 -0.00000000000E+00 -0.45593999997E+02  0.45594000000E+02  0.51100000000E-03 0. -1.
    9900012    2    1    2    0    0  0.17558426329E+02  0.18893266102E+02  0.36930471991E+02  0.46142316516E+02  0.99999886416E+01 0.  0.
         12    1    1    2    0    0 -0.17558426329E+02 -0.18893266102E+02 -0.36930471991E+02  0.45045683484E+02  0.00000000000E+00 0. -1.
         11    1    3    3    0    0  0.80972443312E+00 -0.79074384572E+00  0.29741079765E+01  0.31821766142E+01  0.51100000000E-03 0. -1.
        -11    1    3    3    0    0  0.95806373747E+01  0.82548468729E+01  0.18935046099E+02  0.22769872210E+02  0.51100000000E-03 0.  1.
        -12    1    3    3    0    0  0.71680645210E+01  0.11429163074E+02  0.15021317915E+02  0.20190267692E+02  0.00000000000E+00 0.  1.
</event>
<event>
 7    1  0.2353206E-008  0.4614232E+02  0.7816164E-02  0.1320468E+00
        -11   -1    0    0    0    0  0.00000000000E+00  0.00000000000E+00  0.45593999997E+02  0.45594000000E+02  0.51100000000E-03 0.  1.
         11   -1    0    0    0    0 -0.00000000000E+00 -0.00000000000E+00 -0.45593999997E+02  0.45594000000E+02  0.51100000000E-03 0. -1.
    9900012    2    1    2    0    0  0.44381212275E+02 -0.11845885430E+01  0.76169697595E+01  0.46142317839E+02  0.10000000709E+02 0.  0.
         12    1    1    2    0    0 -0.44381212275E+02  0.11845885430E+01 -0.76169697595E+01  0.45045682161E+02  0.00000000000E+00 0. -1.
         11    1    3    3    0    0  0.36226211802E+01 -0.24467097168E+01  0.22169817343E+01  0.49015080256E+01  0.51100000000E-03 0. -1.
        -11    1    3    3    0    0  0.59323501525E+01 -0.21549250508E+00 -0.18238321481E+00  0.59390638361E+01  0.51100000000E-03 0.  1.
        -12    1    3    3    0    0  0.34826240943E+02  0.14776136789E+01  0.55823712400E+01  0.35301745977E+02  0.00000000000E+00 0.  1.
</event>
<event>
 7    1  0.2353206E-008  0.4614232E+02  0.7816164E-02  0.1320468E+00
        -11   -1    0    0    0    0  0.00000000000E+00  0.00000000000E+00  0.45593999997E+02  0.45594000000E+02  0.51100000000E-03 0. -1.
         11   -1    0    0    0    0 -0.00000000000E+00 -0.00000000000E+00 -0.45593999997E+02  0.45594000000E+02  0.51100000000E-03 0.  1.
    9900012    2    1    2    0    0  0.19885030077E+02  0.40343092999E+02 -0.24766742763E+01  0.46142317750E+02  0.99999998953E+01 0.  0.
         12    1    1    2    0    0 -0.19885030077E+02 -0.40343092999E+02  0.24766742763E+01  0.45045682250E+02  0.00000000000E+00 0. -1.
         11    1    3    3    0    0  0.86643277276E+00  0.24917706814E+01 -0.10015133545E+01  0.28218178784E+01  0.51100000000E-03 0. -1.
        -11    1    3    3    0    0  0.78331383805E+01  0.11765635032E+02 -0.43593768798E+01  0.14791632487E+02  0.51100000000E-03 0.  1.
        -12    1    3    3    0    0  0.11185458924E+02  0.26085687286E+02  0.28842159580E+01  0.28528867384E+02  0.00000000000E+00 0.  1.
</event>
<event>
 7    1  0.2353206E-008  0.4614232E+02  0.7816164E-02  0.1320468E+00
        -11   -1    0    0    0    0  0.00000000000E+00  0.00000000000E+00  0.45593999997E+02  0.45594000000E+02  0.51100000000E-03 0.  1.
         11   -1    0    0    0    0 -0.00000000000E+00 -0.00000000000E+00 -0.45593999997E+02  0.45594000000E+02  0.51100000000E-03 0. -1.
    9900012    2    1    2    0    0 -0.32172089672E+02 -0.25362466684E+02  0.18730069721E+02  0.46142316723E+02  0.99999905294E+01 0.  0.
         12    1    1    2    0    0  0.32172089672E+02  0.25362466684E+02 -0.18730069721E+02  0.45045683277E+02  0.00000000000E+00 0. -1.
         11    1    3    3    0    0 -0.71419948323E+00 -0.15826048106E+01  0.89354330171E+00  0.19527259874E+01  0.51100000000E-03 0. -1.
        -11    1    3    3    0    0 -0.32705014745E+01 -0.25913053237E+01 -0.88418029606E+00  0.42653040024E+01  0.51100000000E-03 0.  1.
        -12    1    3    3    0    0 -0.28187388715E+02 -0.21188556550E+02  0.18720706715E+02  0.39924286733E+02  0.00000000000E+00 0.  1.
</event>
<event>
 7    1  0.2353206E-008  0.4614232E+02  0.7816164E-02  0.1320468E+00
        -11   -1    0    0    0    0  0.00000000000E+00  0.00000000000E+00  0.45593999997E+02  0.45594000000E+02  0.51100000000E-03 0.  1.
         11   -1    0    0    0    0 -0.00000000000E+00 -0.00000000000E+00 -0.45593999997E+02  0.45594000000E+02  0.51100000000E-03 0. -1.
    9900012    2    1    2    0    0  0.92487012230E+01  0.41044001699E+02  0.16092386994E+02  0.46142317977E+02  0.10000001965E+02 0.  0.
         12    1    1    2    0    0 -0.92487012230E+01 -0.41044001699E+02 -0.16092386994E+02  0.45045682023E+02  0.00000000000E+00 0. -1.
         11    1    3    3    0    0  0.36836867993E+00  0.18561921670E-01 -0.17693587551E-01  0.36926054955E+00  0.51100000000E-03 0. -1.
        -11    1    3    3    0    0  0.93254616052E+01  0.41259243352E+02  0.15684137478E+02  0.45114094969E+02  0.51100000000E-03 0.  1.
        -12    1    3    3    0    0 -0.44512906211E+00 -0.23380357503E+00  0.42594310438E+00  0.65896245857E+00  0.00000000000E+00 0.  1.
</event>
<event>
 7    1  0.2353206E-008  0.4614232E+02  0.7816164E-02  0.1320468E+00
        -11   -1    0    0    0    0  0.00000000000E+00  0.00000000000E+00  0.45593999997E+02  0.45594000000E+02  0.51100000000E-03 0.  1.
         11   -1    0    0    0    0 -0.00000000000E+00 -0.00000000000E+00 -0.45593999997E+02  0.45594000000E+02  0.51100000000E-03 0. -1.
    9900012    2    1    2    0    0  0.28044387287E+02 -0.67637958439E+01  0.34595907570E+02  0.46142318596E+02  0.10000007618E+02 0.  0.
         12    1    1    2    0    0 -0.28044387287E+02  0.67637958439E+01 -0.34595907570E+02  0.45045681404E+02  0.00000000000E+00 0. -1.
         11    1    3    3    0    0  0.11766339675E+01  0.16718830691E+00 -0.32116153114E+00  0.12310826185E+01  0.51100000000E-03 0. -1.
        -11    1    3    3    0    0  0.24253186531E+01 -0.22471653626E+01  0.32641414518E+01  0.46461319842E+01  0.51100000000E-03 0.  1.
        -12    1    3    3    0    0  0.24442434666E+02 -0.46838187882E+01  0.31652927649E+02  0.40265103994E+02  0.00000000000E+00 0.  1.
</event>
<event>
 7    1  0.2353206E-008  0.4614232E+02  0.7816164E-02  0.1320468E+00
        -11   -1    0    0    0    0  0.00000000000E+00  0.00000000000E+00  0.45593999997E+02  0.45594000000E+02  0.51100000000E-03 0. -1.
         11   -1    0    0    0    0 -0.00000000000E+00 -0.00000000000E+00 -0.45593999997E+02  0.45594000000E+02  0.51100000000E-03 0.  1.
    9900012    2    1    2    0    0  0.34234013160E+01  0.22941210621E+01 -0.44856779878E+02  0.46142319085E+02  0.10000012075E+02 0.  0.
         12    1    1    2    0    0 -0.34234013160E+01 -0.22941210621E+01  0.44856779878E+02  0.45045680915E+02  0.00000000000E+00 0. -1.
         11    1    3    3    0    0 -0.25451165223E+00  0.27615647799E+01 -0.66687346280E+01  0.72223983562E+01  0.51100000000E-03 0. -1.
        -11    1    3    3    0    0  0.52890078885E+00  0.25958055275E+01 -0.83489393490E+01  0.87591512657E+01  0.51100000000E-03 0.  1.
         12    1    3    3    0    0  0.31490121794E+01 -0.30632492453E+01 -0.29839105901E+02  0.30160769463E+02  0.00000000000E+00 0. -1.
</event>
<event>
 7    1  0.2353206E-008  0.4614232E+02  0.7816164E-02  0.1320468E+00
        -11   -1    0    0    0    0  0.00000000000E+00  0.00000000000E+00  0.45593999997E+02  0.45594000000E+02  0.51100000000E-03 0.  1.
         11   -1    0    0    0    0 -0.00000000000E+00 -0.00000000000E+00 -0.45593999997E+02  0.45594000000E+02  0.51100000000E-03 0. -1.
    9900012    2    1    2    0    0 -0.42117032483E+02  0.15961083933E+02  0.71593719409E+00  0.46142321056E+02  0.10000030046E+02 0.  0.
         12    1    1    2    0    0  0.42117032483E+02 -0.15961083933E+02 -0.71593719409E+00  0.45045678944E+02  0.00000000000E+00 0. -1.
         11    1    3    3    0    0 -0.43565641887E+01 -0.23681999737E+00  0.11395106748E+01  0.45093480771E+01  0.51100000000E-03 0. -1.
        -11    1    3    3    0    0 -0.26703863899E+02  0.84603788726E+01  0.12173151750E+01  0.28038477390E+02  0.51100000000E-03 0.  1.
        -12    1    3    3    0    0 -0.11056604394E+02  0.77375250575E+01 -0.16408886557E+01  0.13594495589E+02  0.00000000000E+00 0.  1.
</event>
<event>
 7    1  0.2353206E-008  0.4614232E+02  0.7816164E-02  0.1320468E+00
        -11   -1    0    0    0    0  0.00000000000E+00  0.00000000000E+00  0.45593999997E+02  0.45594000000E+02  0.51100000000E-03 0. -1.
         11   -1    0    0    0    0 -0.00000000000E+00 -0.00000000000E+00 -0.45593999997E+02  0.45594000000E+02  0.51100000000E-03 0.  1.
    9900012    2    1    2    0    0  0.27128575391E+02 -0.20694137966E+02 -0.29409293503E+02  0.46142317706E+02  0.99999995020E+01 0.  0.
         12    1    1    2    0    0 -0.27128575391E+02  0.20694137966E+02  0.29409293503E+02  0.45045682294E+02  0.00000000000E+00 0. -1.
         11    1    3    3    0    0  0.12599987852E+00 -0.22975165835E+00 -0.79314321350E+00  0.83530725613E+00  0.51100000000E-03 0. -1.
        -11    1    3    3    0    0  0.65912454501E+01 -0.29537639372E+01 -0.10994445729E+02  0.13154735844E+02  0.51100000000E-03 0.  1.
         12    1    3    3    0    0  0.20411330063E+02 -0.17510622371E+02 -0.17621704561E+02  0.32152274607E+02  0.00000000000E+00 0. -1.
</event>
<event>
 7    1  0.2353206E-008  0.4614232E+02  0.7816164E-02  0.1320468E+00
        -11   -1    0    0    0    0  0.00000000000E+00  0.00000000000E+00  0.45593999997E+02  0.45594000000E+02  0.51100000000E-03 0.  1.
         11   -1    0    0    0    0 -0.00000000000E+00 -0.00000000000E+00 -0.45593999997E+02  0.45594000000E+02  0.51100000000E-03 0. -1.
    9900012    2    1    2    0    0  0.29600626170E+02 -0.18026434366E+01  0.33906739221E+02  0.46142316993E+02  0.99999929940E+01 0.  0.
         12    1    1    2    0    0 -0.29600626170E+02  0.18026434366E+01 -0.33906739221E+02  0.45045683007E+02  0.00000000000E+00 0. -1.
         11    1    3    3    0    0 -0.13577801676E+00  0.89600927294E-01 -0.13177637313E+00  0.20935441157E+00  0.51100000000E-03 0. -1.
        -11    1    3    3    0    0  0.40027764562E+01  0.25238165499E+01  0.52162711262E+01  0.70428228758E+01  0.51100000000E-03 0.  1.
        -12    1    3    3    0    0  0.25733627730E+02 -0.44160609138E+01  0.28822244468E+02  0.38890139705E+02  0.00000000000E+00 0.  1.
</event>
<event>
 7    1  0.2353206E-008  0.4614232E+02  0.7816164E-02  0.1320468E+00
        -11   -1    0    0    0    0  0.00000000000E+00  0.00000000000E+00  0.45593999997E+02  0.45594000000E+02  0.51100000000E-03 0.  1.
         11   -1    0    0    0    0 -0.00000000000E+00 -0.00000000000E+00 -0.45593999997E+02  0.45594000000E+02  0.51100000000E-03 0. -1.
    9900012    2    1    2    0    0 -0.65050581594E+01  0.42868746512E+02  0.12209347607E+02  0.46142318985E+02  0.10000011159E+02 0.  0.
         12    1    1    2    0    0  0.65050581594E+01 -0.42868746512E+02 -0.12209347607E+02  0.45045681015E+02  0.00000000000E+00 0. -1.
         11    1    3    3    0    0 -0.22628737497E+01  0.30167402855E+02  0.53613557941E+01  0.30723556578E+02  0.51100000000E-03 0. -1.
        -11    1    3    3    0    0  0.57085266309E+00  0.19686576636E+01  0.11186751535E+01  0.23351488431E+01  0.51100000000E-03 0.  1.
        -12    1    3    3    0    0 -0.48130370728E+01  0.10732685993E+02  0.57293166595E+01  0.13083613564E+02  0.00000000000E+00 0.  1.
</event>
<event>
 7    1  0.2353206E-008  0.4614232E+02  0.7816164E-02  0.1320468E+00
        -11   -1    0    0    0    0  0.00000000000E+00  0.00000000000E+00  0.45593999997E+02  0.45594000000E+02  0.51100000000E-03 0.  1.
         11   -1    0    0    0    0 -0.00000000000E+00 -0.00000000000E+00 -0.45593999997E+02  0.45594000000E+02  0.51100000000E-03 0. -1.
    9900012    2    1    2    0    0  0.23285002373E+02  0.33876481221E+02  0.18420262695E+02  0.46142318818E+02  0.10000009635E+02 0.  0.
         12    1    1    2    0    0 -0.23285002373E+02 -0.33876481221E+02 -0.18420262695E+02  0.45045681182E+02  0.00000000000E+00 0. -1.
         11    1    3    3    0    0  0.30686464302E+01  0.14435590797E+01  0.25178737349E+01  0.42237592423E+01  0.51100000000E-03 0.  1.
        -11    1    3    3    0    0  0.16399777131E+02  0.22542988924E+02  0.91084769014E+01  0.29327519352E+02  0.51100000000E-03 0. -1.
         12    1    3    3    0    0  0.38165788116E+01  0.98899332170E+01  0.67939120583E+01  0.12591040224E+02  0.00000000000E+00 0. -1.
</event>
<event>
 7    1  0.2353206E-008  0.4614233E+02  0.7816164E-02  0.1320468E+00
        -11   -1    0    0    0    0  0.00000000000E+00  0.00000000000E+00  0.45593999997E+02  0.45594000000E+02  0.51100000000E-03 0. -1.
         11   -1    0    0    0    0 -0.00000000000E+00 -0.00000000000E+00 -0.45593999997E+02  0.45594000000E+02  0.51100000000E-03 0.  1.
    9900012    2    1    2    0    0  0.40381735599E+02  0.54774606608E+01  0.19194416548E+02  0.46142325714E+02  0.10000072516E+02 0.  0.
         12    1    1    2    0    0 -0.40381735599E+02 -0.54774606608E+01 -0.19194416548E+02  0.45045674286E+02  0.00000000000E+00 0. -1.
         11    1    3    3    0    0  0.76511214619E+01 -0.11506124091E+01  0.28205027526E+01  0.82352173365E+01  0.51100000000E-03 0. -1.
        -11    1    3    3    0    0  0.29528562795E+02  0.37652948805E+01  0.15346624805E+02  0.33490780215E+02  0.51100000000E-03 0.  1.
         12    1    3    3    0    0  0.32020513430E+01  0.28627781895E+01  0.10272889903E+01  0.44163281620E+01  0.00000000000E+00 0. -1.
</event>
<event>
 7    1  0.2353206E-008  0.4614232E+02  0.7816164E-02  0.1320468E+00
        -11   -1    0    0    0    0  0.00000000000E+00  0.00000000000E+00  0.45593999997E+02  0.45594000000E+02  0.51100000000E-03 0.  1.
         11   -1    0    0    0    0 -0.00000000000E+00 -0.00000000000E+00 -0.45593999997E+02  0.45594000000E+02  0.51100000000E-03 0. -1.
    9900012    2    1    2    0    0  0.17607451890E+02  0.21452558622E+02  0.35480682678E+02  0.46142317890E+02  0.10000001174E+02 0.  0.
         12    1    1    2    0    0 -0.17607451890E+02 -0.21452558622E+02 -0.35480682678E+02  0.45045682110E+02  0.00000000000E+00 0. -1.
         11    1    3    3    0    0  0.16935534634E+01 -0.34638421780E+00  0.15119670495E+01  0.22965517585E+01  0.51100000000E-03 0. -1.
        -11    1    3    3    0    0  0.50572603226E+01  0.54409022904E+01  0.54098396688E+01  0.91894322571E+01  0.51100000000E-03 0.  1.
        -12    1    3    3    0    0  0.10856638104E+02  0.16358040549E+02  0.28558875960E+02  0.34656333874E+02  0.00000000000E+00 0.  1.
</event>
<event>
 7    1  0.2353206E-008  0.4614232E+02  0.7816164E-02  0.1320468E+00
        -11   -1    0    0    0    0  0.00000000000E+00  0.00000000000E+00  0.45593999997E+02  0.45594000000E+02  0.51100000000E-03 0.  1.
         11   -1    0    0    0    0 -0.00000000000E+00 -0.00000000000E+00 -0.45593999997E+02  0.45594000000E+02  0.51100000000E-03 0. -1.
    9900012    2    1    2    0    0 -0.10151915311E+02 -0.38223673466E+02  0.21563926718E+02  0.46142317263E+02  0.99999954600E+01 0.  0.
         12    1    1    2    0    0  0.10151915311E+02  0.38223673466E+02 -0.21563926718E+02  0.45045682737E+02  0.00000000000E+00 0. -1.
         11    1    3    3    0    0 -0.78833203553E+01 -0.14228577564E+02  0.10110380449E+02  0.19152518174E+02  0.51100000000E-03 0. -1.
        -11    1    3    3    0    0 -0.81577674424E+00 -0.69917421293E+01  0.13801770391E+01  0.71732028146E+01  0.51100000000E-03 0.  1.
        -12    1    3    3    0    0 -0.14528182119E+01 -0.17003353772E+02  0.10073369230E+02  0.19816596274E+02  0.00000000000E+00 0.  1.
</event>
<event>
 7    1  0.2353206E-008  0.4614232E+02  0.7816164E-02  0.1320468E+00
        -11   -1    0    0    0    0  0.00000000000E+00  0.00000000000E+00  0.45593999997E+02  0.45594000000E+02  0.51100000000E-03 0.  1.
         11   -1    0    0    0    0 -0.00000000000E+00 -0.00000000000E+00 -0.45593999997E+02  0.45594000000E+02  0.51100000000E-03 0. -1.
    9900012    2    1    2    0    0 -0.10471284758E+02  0.87686027696E+00  0.43802931914E+02  0.46142317269E+02  0.99999955097E+01 0.  0.
         12    1    1    2    0    0  0.10471284758E+02 -0.87686027696E+00 -0.43802931914E+02  0.45045682731E+02  0.00000000000E+00 0. -1.
         11    1    3    3    0    0 -0.23469975982E+01  0.13830954341E+01  0.67100282684E+01  0.72419493459E+01  0.51100000000E-03 0. -1.
        -11    1    3    3    0    0 -0.72969499645E+01 -0.31299553028E+01  0.18891252763E+02  0.20491986976E+02  0.51100000000E-03 0.  1.
        -12    1    3    3    0    0 -0.82733719563E+00  0.26237201456E+01  0.18201650883E+02  0.18408380947E+02  0.00000000000E+00 0.  1.
</event>
<event>
 7    1  0.2353206E-008  0.4614233E+02  0.7816164E-02  0.1320468E+00
        -11   -1    0    0    0    0  0.00000000000E+00  0.00000000000E+00  0.45593999997E+02  0.45594000000E+02  0.51100000000E-03 0. -1.
         11   -1    0    0    0    0 -0.00000000000E+00 -0.00000000000E+00 -0.45593999997E+02  0.45594000000E+02  0.51100000000E-03 0.  1.
    9900012    2    1    2    0    0  0.41393815473E+02 -0.98233317157E+01 -0.14804287739E+02  0.46142326058E+02  0.10000075658E+02 0.  0.
         12    1    1    2    0    0 -0.41393815473E+02  0.98233317157E+01  0.14804287739E+02  0.45045673942E+02  0.00000000000E+00 0. -1.
         11    1    3    3    0    0  0.14761946762E+02 -0.11886489361E+01 -0.81000739754E+01  0.16880140911E+02  0.51100000000E-03 0. -1.
        -11    1    3    3    0    0  0.24669400208E+02 -0.69411456741E+01 -0.48680237584E+01  0.26085560479E+02  0.51100000000E-03 0.  1.
         12    1    3    3    0    0  0.19624685028E+01 -0.16935371054E+01 -0.18361900047E+01  0.31766246686E+01  0.00000000000E+00 0. -1.
</event>
<event>
 7    1  0.2353206E-008  0.4614232E+02  0.7816164E-02  0.1320468E+00
        -11   -1    0    0    0    0  0.00000000000E+00  0.00000000000E+00  0.45593999997E+02  0.45594000000E+02  0.51100000000E-03 0.  1.
         11   -1    0    0    0    0 -0.00000000000E+00 -0.00000000000E+00 -0.45593999997E+02  0.45594000000E+02  0.51100000000E-03 0. -1.
    9900012    2    1    2    0    0 -0.59697688140E+01  0.65581971498E+01  0.44164073165E+02  0.46142318208E+02  0.10000004078E+02 0.  0.
         12    1    1    2    0    0  0.59697688140E+01 -0.65581971498E+01 -0.44164073165E+02  0.45045681792E+02  0.00000000000E+00 0. -1.
         11    1    3    3    0    0 -0.30442055272E+01  0.23620190972E+01  0.75920270739E+01  0.85138238683E+01  0.51100000000E-03 0. -1.
        -11    1    3    3    0    0 -0.24912008852E+01 -0.11081445870E+01  0.59181564377E+01  0.65160296315E+01  0.51100000000E-03 0.  1.
         12    1    3    3    0    0 -0.43436240162E+00  0.53043226396E+01  0.30653889653E+02  0.31112464709E+02  0.00000000000E+00 0. -1.
</event>
<event>
 7    1  0.2353206E-008  0.4614232E+02  0.7816164E-02  0.1320468E+00
        -11   -1    0    0    0    0  0.00000000000E+00  0.00000000000E+00  0.45593999997E+02  0.45594000000E+02  0.51100000000E-03 0.  1.
         11   -1    0    0    0    0 -0.00000000000E+00 -0.00000000000E+00 -0.45593999997E+02  0.45594000000E+02  0.51100000000E-03 0. -1.
    9900012    2    1    2    0    0 -0.39989202012E+02 -0.19603746806E+02  0.67579751760E+01  0.46142318799E+02  0.10000009463E+02 0.  0.
         12    1    1    2    0    0  0.39989202012E+02  0.19603746806E+02 -0.67579751760E+01  0.45045681201E+02  0.00000000000E+00 0. -1.
         11    1    3    3    0    0 -0.19380571653E+02 -0.68979899934E+01  0.56421376529E+01  0.21331257373E+02  0.51100000000E-03 0. -1.
        -11    1    3    3    0    0 -0.10360877835E+02 -0.43076307830E+01  0.24806646628E+01  0.11491613024E+02  0.51100000000E-03 0.  1.
         12    1    3    3    0    0 -0.10247752524E+02 -0.83981260292E+01 -0.13648271398E+01  0.13319448402E+02  0.00000000000E+00 0. -1.
</event>
<event>
 7    1  0.2353206E-008  0.4614232E+02  0.7816164E-02  0.1320468E+00
        -11   -1    0    0    0    0  0.00000000000E+00  0.00000000000E+00  0.45593999997E+02  0.45594000000E+02  0.51100000000E-03 0.  1.
         11   -1    0    0    0    0 -0.00000000000E+00 -0.00000000000E+00 -0.45593999997E+02  0.45594000000E+02  0.51100000000E-03 0. -1.
    9900012    2    1    2    0    0 -0.21117113253E+02  0.23834058655E+02  0.31860927917E+02  0.46142317057E+02  0.99999935756E+01 0.  0.
         12    1    1    2    0    0  0.21117113253E+02 -0.23834058655E+02 -0.31860927917E+02  0.45045682943E+02  0.00000000000E+00 0. -1.
         11    1    3    3    0    0 -0.89307047696E+01  0.65091854350E+01  0.12425797989E+02  0.16629114186E+02  0.51100000000E-03 0. -1.
        -11    1    3    3    0    0 -0.14287777430E+00  0.12113783939E+01  0.39283560560E+01  0.41133724893E+01  0.51100000000E-03 0.  1.
        -12    1    3    3    0    0 -0.12043530709E+02  0.16113494826E+02  0.15506773872E+02  0.25399830381E+02  0.00000000000E+00 0.  1.
</event>
<event>
 7    1  0.2353206E-008  0.4614232E+02  0.7816164E-02  0.1320468E+00
        -11   -1    0    0    0    0  0.00000000000E+00  0.00000000000E+00  0.45593999997E+02  0.45594000000E+02  0.51100000000E-03 0.  1.
         11   -1    0    0    0    0 -0.00000000000E+00 -0.00000000000E+00 -0.45593999997E+02  0.45594000000E+02  0.51100000000E-03 0. -1.
    9900012    2    1    2    0    0 -0.86656072958E+01  0.68400301093E+01  0.43671900336E+02  0.46142316071E+02  0.99999845846E+01 0.  0.
         12    1    1    2    0    0  0.86656072958E+01 -0.68400301093E+01 -0.43671900336E+02  0.45045683929E+02  0.00000000000E+00 0. -1.
         11    1    3    3    0    0  0.53295665703E-01 -0.15716950323E+01  0.12850942724E+02  0.12946806357E+02  0.51100000000E-03 0. -1.
        -11    1    3    3    0    0 -0.24640382723E+01  0.24271806074E+01  0.11817250629E+02  0.12313005441E+02  0.51100000000E-03 0.  1.
         12    1    3    3    0    0 -0.62548646892E+01  0.59845445342E+01  0.19003706984E+02  0.20882504272E+02  0.00000000000E+00 0. -1.
</event>
<event>
 7    1  0.2353206E-008  0.4614231E+02  0.7816164E-02  0.1320468E+00
        -11   -1    0    0    0    0  0.00000000000E+00  0.00000000000E+00  0.45593999997E+02  0.45594000000E+02  0.51100000000E-03 0.  1.
         11   -1    0    0    0    0 -0.00000000000E+00 -0.00000000000E+00 -0.45593999997E+02  0.45594000000E+02  0.51100000000E-03 0. -1.
    9900012    2    1    2    0    0 -0.43756710208E+02  0.90245708261E+01  0.57464458371E+01  0.46142309789E+02  0.99999273037E+01 0.  0.
         12    1    1    2    0    0  0.43756710208E+02 -0.90245708261E+01 -0.57464458371E+01  0.45045690211E+02  0.00000000000E+00 0. -1.
         11    1    3    3    0    0 -0.12246919713E+02  0.10981749227E+01  0.38669499366E+01  0.12889776285E+02  0.51100000000E-03 0. -1.
        -11    1    3    3    0    0 -0.24296987978E+02  0.40542741547E+01  0.35789369681E+01  0.24891555873E+02  0.51100000000E-03 0.  1.
         12    1    3    3    0    0 -0.72128025177E+01  0.38721217487E+01 -0.16994410676E+01  0.83609776306E+01  0.00000000000E+00 0. -1.
</event>
<event>
 7    1  0.2353206E-008  0.4614232E+02  0.7816164E-02  0.1320468E+00
        -11   -1    0    0    0    0  0.00000000000E+00  0.00000000000E+00  0.45593999997E+02  0.45594000000E+02  0.51100000000E-03 0.  1.
         11   -1    0    0    0    0 -0.00000000000E+00 -0.00000000000E+00 -0.45593999997E+02  0.45594000000E+02  0.51100000000E-03 0. -1.
    9900012    2    1    2    0    0 -0.44936708079E+02  0.25234483116E+01  0.18541868343E+01  0.46142317264E+02  0.99999954648E+01 0.  0.
         12    1    1    2    0    0  0.44936708079E+02 -0.25234483116E+01 -0.18541868343E+01  0.45045682736E+02  0.00000000000E+00 0. -1.
         11    1    3    3    0    0 -0.12113400764E+02  0.14294669059E+01 -0.29178873202E+01  0.12541607568E+02  0.51100000000E-03 0. -1.
        -11    1    3    3    0    0 -0.12361590072E+01  0.50231862170E+00  0.12217321869E+01  0.18091552964E+01  0.51100000000E-03 0.  1.
         12    1    3    3    0    0 -0.31587148307E+02  0.59166278406E+00  0.35503419675E+01  0.31791554399E+02  0.00000000000E+00 0. -1.
</event>
<event>
 7    1  0.2353206E-008  0.4614232E+02  0.7816164E-02  0.1320468E+00
        -11   -1    0    0    0    0  0.00000000000E+00  0.00000000000E+00  0.45593999997E+02  0.45594000000E+02  0.51100000000E-03 0.  1.
         11   -1    0    0    0    0 -0.00000000000E+00 -0.00000000000E+00 -0.45593999997E+02  0.45594000000E+02  0.51100000000E-03 0. -1.
    9900012    2    1    2    0    0 -0.44543764710E+01  0.10077737020E+02  0.43677354224E+02  0.46142317353E+02  0.99999962763E+01 0.  0.
         12    1    1    2    0    0  0.44543764710E+01 -0.10077737020E+02 -0.43677354224E+02  0.45045682647E+02  0.00000000000E+00 0. -1.
         11    1    3    3    0    0 -0.44180168540E+01  0.49106265190E+01  0.12230889101E+02  0.13900639345E+02  0.51100000000E-03 0. -1.
        -11    1    3    3    0    0 -0.18160451473E+01  0.21181728079E+01  0.69019020081E+01  0.74445233300E+01  0.51100000000E-03 0.  1.
         12    1    3    3    0    0  0.17796855303E+01  0.30489376930E+01  0.24544563114E+02  0.24797154678E+02  0.00000000000E+00 0. -1.
</event>
<event>
 7    1  0.2353206E-008  0.4614232E+02  0.7816164E-02  0.1320468E+00
        -11   -1    0    0    0    0  0.00000000000E+00  0.00000000000E+00  0.45593999997E+02  0.45594000000E+02  0.51100000000E-03 0.  1.
         11   -1    0    0    0    0 -0.00000000000E+00 -0.00000000000E+00 -0.45593999997E+02  0.45594000000E+02  0.51100000000E-03 0. -1.
    9900012    2    1    2    0    0  0.68568325977E+01  0.33185042763E+00  0.44519515955E+02  0.46142316757E+02  0.99999908461E+01 0.  0.
         12    1    1    2    0    0 -0.68568325977E+01 -0.33185042763E+00 -0.44519515955E+02  0.45045683243E+02  0.00000000000E+00 0. -1.
         11    1    3    3    0    0  0.17073746541E+01 -0.32085281449E+01  0.23493800939E+02  0.23773272049E+02  0.51100000000E-03 0. -1.
        -11    1    3    3    0    0  0.27388053060E+01  0.81154116371E+00  0.15435506086E+02  0.15697595420E+02  0.51100000000E-03 0.  1.
         12    1    3    3    0    0  0.24106526375E+01  0.27288374089E+01  0.55902089294E+01  0.66714492891E+01  0.00000000000E+00 0. -1.
</event>
<event>
 7    1  0.2353206E-008  0.4614232E+02  0.7816164E-02  0.1320468E+00
        -11   -1    0    0    0    0  0.00000000000E+00  0.00000000000E+00  0.45593999997E+02  0.45594000000E+02  0.51100000000E-03 0.  1.
         11   -1    0    0    0    0 -0.00000000000E+00 -0.00000000000E+00 -0.45593999997E+02  0.45594000000E+02  0.51100000000E-03 0. -1.
    9900012    2    1    2    0    0  0.57804968523E+01  0.29072912220E+02  0.33918506794E+02  0.46142317943E+02  0.10000001657E+02 0.  0.
         12    1    1    2    0    0 -0.57804968523E+01 -0.29072912220E+02 -0.33918506794E+02  0.45045682057E+02  0.00000000000E+00 0. -1.
         11    1    3    3    0    0 -0.33697056395E+00  0.10695316845E+02  0.13853259259E+02  0.17504746326E+02  0.51100000000E-03 0. -1.
        -11    1    3    3    0    0  0.41170162074E+01  0.15445760785E+02  0.12538286686E+02  0.20315756987E+02  0.51100000000E-03 0.  1.
         12    1    3    3    0    0  0.20004512088E+01  0.29318345906E+01  0.75269608494E+01  0.83218146299E+01  0.00000000000E+00 0. -1.
</event>
<event>
 7    1  0.2353206E-008  0.4614232E+02  0.7816164E-02  0.1320468E+00
        -11   -1    0    0    0    0  0.00000000000E+00  0.00000000000E+00  0.45593999997E+02  0.45594000000E+02  0.51100000000E-03 0. -1.
         11   -1    0    0    0    0 -0.00000000000E+00 -0.00000000000E+00 -0.45593999997E+02  0.45594000000E+02  0.51100000000E-03 0.  1.
    9900012    2    1    2    0    0 -0.20340187685E+02 -0.98888888681E+01 -0.38956383689E+02  0.46142321093E+02  0.10000030384E+02 0.  0.
         12    1    1    2    0    0  0.20340187685E+02  0.98888888681E+01  0.38956383689E+02  0.45045678907E+02  0.00000000000E+00 0. -1.
         11    1    3    3    0    0 -0.86978874748E+00  0.19349834936E+00  0.36252748565E+00  0.96197739861E+00  0.51100000000E-03 0. -1.
        -11    1    3    3    0    0 -0.13050219113E+02 -0.85764990181E+01 -0.28917638889E+02  0.32864789570E+02  0.51100000000E-03 0.  1.
        -12    1    3    3    0    0 -0.64201798243E+01 -0.15058881994E+01 -0.10401272285E+02  0.12315554125E+02  0.00000000000E+00 0.  1.
</event>
<event>
 7    1  0.2353206E-008  0.4614232E+02  0.7816164E-02  0.1320468E+00
        -11   -1    0    0    0    0  0.00000000000E+00  0.00000000000E+00  0.45593999997E+02  0.45594000000E+02  0.51100000000E-03 0. -1.
         11   -1    0    0    0    0 -0.00000000000E+00 -0.00000000000E+00 -0.45593999997E+02  0.45594000000E+02  0.51100000000E-03 0.  1.
    9900012    2    1    2    0    0 -0.26869330138E+02 -0.38812739355E+01 -0.35945630861E+02  0.46142316884E+02  0.99999919996E+01 0.  0.
         12    1    1    2    0    0  0.26869330138E+02  0.38812739355E+01  0.35945630861E+02  0.45045683116E+02  0.00000000000E+00 0. -1.
         11    1    3    3    0    0 -0.20999778008E+02 -0.54458656058E+00 -0.20901767413E+02  0.29633952355E+02  0.51100000000E-03 0. -1.
        -11    1    3    3    0    0 -0.42115954694E+01 -0.19971897250E+01 -0.10023244178E+02  0.11054036697E+02  0.51100000000E-03 0.  1.
         12    1    3    3    0    0 -0.16579566605E+01 -0.13394976499E+01 -0.50206192701E+01  0.54543278319E+01  0.00000000000E+00 0. -1.
</event>
<event>
 7    1  0.2353206E-008  0.4614232E+02  0.7816164E-02  0.1320468E+00
        -11   -1    0    0    0    0  0.00000000000E+00  0.00000000000E+00  0.45593999997E+02  0.45594000000E+02  0.51100000000E-03 0.  1.
         11   -1    0    0    0    0 -0.00000000000E+00 -0.00000000000E+00 -0.45593999997E+02  0.45594000000E+02  0.51100000000E-03 0. -1.
    9900012    2    1    2    0    0 -0.34640672846E+02 -0.28702071495E+02 -0.23083559501E+01  0.46142316183E+02  0.99999856126E+01 0.  0.
         12    1    1    2    0    0  0.34640672846E+02  0.28702071495E+02  0.23083559501E+01  0.45045683817E+02  0.00000000000E+00 0. -1.
         11    1    3    3    0    0 -0.29321920487E+01 -0.34922624007E+00  0.15895106017E+01  0.33535434083E+01  0.51100000000E-03 0. -1.
        -11    1    3    3    0    0 -0.14375476992E+02 -0.11607442597E+02 -0.85055007436E+00  0.18496229294E+02  0.51100000000E-03 0.  1.
         12    1    3    3    0    0 -0.17333003805E+02 -0.16745402658E+02 -0.30473164775E+01  0.24292543482E+02  0.00000000000E+00 0. -1.
</event>
<event>
 7    1  0.2353206E-008  0.4614232E+02  0.7816164E-02  0.1320468E+00
        -11   -1    0    0    0    0  0.00000000000E+00  0.00000000000E+00  0.45593999997E+02  0.45594000000E+02  0.51100000000E-03 0. -1.
         11   -1    0    0    0    0 -0.00000000000E+00 -0.00000000000E+00 -0.45593999997E+02  0.45594000000E+02  0.51100000000E-03 0.  1.
    9900012    2    1    2    0    0 -0.26134899360E+02  0.32571386495E+02  0.16887426179E+02  0.46142319345E+02  0.10000014443E+02 0.  0.
         12    1    1    2    0    0  0.26134899360E+02 -0.32571386495E+02 -0.16887426179E+02  0.45045680655E+02  0.00000000000E+00 0. -1.
         11    1    3    3    0    0 -0.86911910436E+01  0.82314792992E+01  0.83420416586E+01  0.14590535031E+02  0.51100000000E-03 0. -1.
        -11    1    3    3    0    0 -0.18406867154E+00  0.80744533204E-01 -0.41417628256E+00  0.46037290281E+00  0.51100000000E-03 0.  1.
        -12    1    3    3    0    0 -0.17259639644E+02  0.24259162662E+02  0.89595608032E+01  0.31091411411E+02  0.00000000000E+00 0.  1.
</event>
<event>
 7    1  0.2353206E-008  0.4614232E+02  0.7816164E-02  0.1320468E+00
        -11   -1    0    0    0    0  0.00000000000E+00  0.00000000000E+00  0.45593999997E+02  0.45594000000E+02  0.51100000000E-03 0.  1.
         11   -1    0    0    0    0 -0.00000000000E+00 -0.00000000000E+00 -0.45593999997E+02  0.45594000000E+02  0.51100000000E-03 0. -1.
    9900012    2    1    2    0    0 -0.20330573480E+02 -0.26641235760E+02  0.30100261740E+02  0.46142318545E+02  0.10000007149E+02 0.  0.
         12    1    1    2    0    0  0.20330573480E+02  0.26641235760E+02 -0.30100261740E+02  0.45045681455E+02  0.00000000000E+00 0. -1.
         11    1    3    3    0    0 -0.37733633530E+01 -0.64150607013E+01  0.95127313038E+01  0.12078217249E+02  0.51100000000E-03 0. -1.
        -11    1    3    3    0    0 -0.58121012654E+01 -0.10545824318E+02  0.13044728848E+02  0.17752742961E+02  0.51100000000E-03 0.  1.
         12    1    3    3    0    0 -0.10745108862E+02 -0.96803507410E+01  0.75428015891E+01  0.16311358335E+02  0.00000000000E+00 0. -1.
</event>
<event>
 7    1  0.2353206E-008  0.4614232E+02  0.7816164E-02  0.1320468E+00
        -11   -1    0    0    0    0  0.00000000000E+00  0.00000000000E+00  0.45593999997E+02  0.45594000000E+02  0.51100000000E-03 0.  1.
         11   -1    0    0    0    0 -0.00000000000E+00 -0.00000000000E+00 -0.45593999997E+02  0.45594000000E+02  0.51100000000E-03 0. -1.
    9900012    2    1    2    0    0  0.21435031872E+02  0.78495920062E+01  0.38833449394E+02  0.46142317878E+02  0.10000001062E+02 0.  0.
         12    1    1    2    0    0 -0.21435031872E+02 -0.78495920062E+01 -0.38833449394E+02  0.45045682122E+02  0.00000000000E+00 0. -1.
         11    1    3    3    0    0  0.71722254340E+01  0.11148270754E+01  0.93907039675E+01  0.11868823798E+02  0.51100000000E-03 0. -1.
        -11    1    3    3    0    0  0.75978459110E+01  0.15089345160E+01  0.20696426273E+02  0.22098556663E+02  0.51100000000E-03 0.  1.
         12    1    3    3    0    0  0.66649605270E+01  0.52258304147E+01  0.87463191536E+01  0.12174937416E+02  0.00000000000E+00 0. -1.
</event>
<event>
 7    1  0.2353206E-008  0.4614232E+02  0.7816164E-02  0.1320468E+00
        -11   -1    0    0    0    0  0.00000000000E+00  0.00000000000E+00  0.45593999997E+02  0.45594000000E+02  0.51100000000E-03 0.  1.
         11   -1    0    0    0    0 -0.00000000000E+00 -0.00000000000E+00 -0.45593999997E+02  0.45594000000E+02  0.51100000000E-03 0. -1.
    9900012    2    1    2    0    0 -0.18484281330E+02  0.11079851014E+02  0.39556057873E+02  0.46142317973E+02  0.10000001934E+02 0.  0.
         12    1    1    2    0    0  0.18484281330E+02 -0.11079851014E+02 -0.39556057873E+02  0.45045682027E+02  0.00000000000E+00 0. -1.
         11    1    3    3    0    0 -0.63671458627E+01  0.28060851852E+01  0.86538618858E+01  0.11104232810E+02  0.51100000000E-03 0. -1.
        -11    1    3    3    0    0 -0.36476792865E+01 -0.88538119466E+00  0.10188564456E+02  0.10858006722E+02  0.51100000000E-03 0.  1.
         12    1    3    3    0    0 -0.84694561809E+01  0.91591470230E+01  0.20713631531E+02  0.24180078441E+02  0.00000000000E+00 0. -1.
</event>
<event>
 7    1  0.2353206E-008  0.4614232E+02  0.7816164E-02  0.1320468E+00
        -11   -1    0    0    0    0  0.00000000000E+00  0.00000000000E+00  0.45593999997E+02  0.45594000000E+02  0.51100000000E-03 0. -1.
         11   -1    0    0    0    0 -0.00000000000E+00 -0.00000000000E+00 -0.45593999997E+02  0.45594000000E+02  0.51100000000E-03 0.  1.
    9900012    2    1    2    0    0  0.19847062581E+01  0.37287821576E+02 -0.25195094154E+02  0.46142318007E+02  0.10000002239E+02 0.  0.
         12    1    1    2    0    0 -0.19847062581E+01 -0.37287821576E+02  0.25195094154E+02  0.45045681993E+02  0.00000000000E+00 0. -1.
         11    1    3    3    0    0  0.32524671189E+01  0.19272062150E+02 -0.13854495398E+02  0.23957002418E+02  0.51100000000E-03 0.  1.
        -11    1    3    3    0    0  0.84639247818E+00 -0.47206373076E-01 -0.79794931861E+00  0.11641872895E+01  0.51100000000E-03 0. -1.
        -12    1    3    3    0    0 -0.21141533390E+01  0.18062965799E+02 -0.10542649437E+02  0.21021128299E+02  0.00000000000E+00 0.  1.
</event>
<event>
 7    1  0.2353206E-008  0.4614232E+02  0.7816164E-02  0.1320468E+00
        -11   -1    0    0    0    0  0.00000000000E+00  0.00000000000E+00  0.45593999997E+02  0.45594000000E+02  0.51100000000E-03 0.  1.
         11   -1    0    0    0    0 -0.00000000000E+00 -0.00000000000E+00 -0.45593999997E+02  0.45594000000E+02  0.51100000000E-03 0. -1.
    9900012    2    1    2    0    0 -0.12201740009E+02  0.39435513803E+02 -0.18029732212E+02  0.46142318167E+02  0.10000003699E+02 0.  0.
         12    1    1    2    0    0  0.12201740009E+02 -0.39435513803E+02  0.18029732212E+02  0.45045681833E+02  0.00000000000E+00 0. -1.
         11    1    3    3    0    0 -0.99038010126E+00  0.14092976966E+01 -0.14059833078E+01  0.22234572327E+01  0.51100000000E-03 0. -1.
        -11    1    3    3    0    0 -0.12217509766E+02  0.34080411176E+02 -0.12998597469E+02  0.38466940445E+02  0.51100000000E-03 0.  1.
        -12    1    3    3    0    0  0.10061498577E+01  0.39458049312E+01 -0.36251514352E+01  0.54519204891E+01  0.00000000000E+00 0.  1.
</event>
<event>
 7    1  0.2353206E-008  0.4614232E+02  0.7816164E-02  0.1320468E+00
        -11   -1    0    0    0    0  0.00000000000E+00  0.00000000000E+00  0.45593999997E+02  0.45594000000E+02  0.51100000000E-03 0. -1.
         11   -1    0    0    0    0 -0.00000000000E+00 -0.00000000000E+00 -0.45593999997E+02  0.45594000000E+02  0.51100000000E-03 0.  1.
    9900012    2    1    2    0    0 -0.20471806063E+02  0.65243880775E+01 -0.39591046435E+02  0.46142318286E+02  0.10000004786E+02 0.  0.
         12    1    1    2    0    0  0.20471806063E+02 -0.65243880775E+01  0.39591046435E+02  0.45045681714E+02  0.00000000000E+00 0. -1.
         11    1    3    3    0    0 -0.52443196484E+01  0.28397223619E+01 -0.19599782093E+02  0.20487029312E+02  0.51100000000E-03 0.  1.
        -11    1    3    3    0    0 -0.76344487958E+01  0.26599177877E+01 -0.76573050023E+01  0.11135272391E+02  0.51100000000E-03 0. -1.
         12    1    3    3    0    0 -0.75930376193E+01  0.10247479279E+01 -0.12333959339E+02  0.14520016583E+02  0.00000000000E+00 0. -1.
</event>
<event>
 7    1  0.2353206E-008  0.4614232E+02  0.7816164E-02  0.1320468E+00
        -11   -1    0    0    0    0  0.00000000000E+00  0.00000000000E+00  0.45593999997E+02  0.45594000000E+02  0.51100000000E-03 0. -1.
         11   -1    0    0    0    0 -0.00000000000E+00 -0.00000000000E+00 -0.45593999997E+02  0.45594000000E+02  0.51100000000E-03 0.  1.
    9900012    2    1    2    0    0  0.11105239197E+02  0.39711492864E+02 -0.18132416797E+02  0.46142317165E+02  0.99999945650E+01 0.  0.
         12    1    1    2    0    0 -0.11105239197E+02 -0.39711492864E+02  0.18132416797E+02  0.45045682835E+02  0.00000000000E+00 0. -1.
         11    1    3    3    0    0  0.13101884796E+01  0.15430996714E+02 -0.32645927896E+01  0.15826870182E+02  0.51100000000E-03 0. -1.
        -11    1    3    3    0    0  0.69091673441E+01  0.17261866557E+02 -0.86602100741E+01  0.20511164501E+02  0.51100000000E-03 0.  1.
         12    1    3    3    0    0  0.28858833736E+01  0.70186295939E+01 -0.62076139336E+01  0.98042824812E+01  0.00000000000E+00 0. -1.
</event>
<event>
 7    1  0.2353206E-008  0.4614232E+02  0.7816164E-02  0.1320468E+00
        -11   -1    0    0    0    0  0.00000000000E+00  0.00000000000E+00  0.45593999997E+02  0.45594000000E+02  0.51100000000E-03 0.  1.
         11   -1    0    0    0    0 -0.00000000000E+00 -0.00000000000E+00 -0.45593999997E+02  0.45594000000E+02  0.51100000000E-03 0. -1.
    9900012    2    1    2    0    0  0.35955438866E+02 -0.13181558153E+02  0.23718475864E+02  0.46142321443E+02  0.10000033571E+02 0.  0.
         12    1    1    2    0    0 -0.35955438866E+02  0.13181558153E+02 -0.23718475864E+02  0.45045678557E+02  0.00000000000E+00 0. -1.
         11    1    3    3    0    0  0.24991929416E+02 -0.10413048575E+02  0.11889418839E+02  0.29570025316E+02  0.51100000000E-03 0. -1.
        -11    1    3    3    0    0  0.66419641540E+01 -0.29264136471E+01  0.79232950812E+01  0.10745147270E+02  0.51100000000E-03 0.  1.
        -12    1    3    3    0    0  0.43215452955E+01  0.15790406897E+00  0.39057619436E+01  0.58271488565E+01  0.00000000000E+00 0.  1.
</event>
<event>
 7    1  0.2353206E-008  0.4614232E+02  0.7816164E-02  0.1320468E+00
        -11   -1    0    0    0    0  0.00000000000E+00  0.00000000000E+00  0.45593999997E+02  0.45594000000E+02  0.51100000000E-03 0.  1.
         11   -1    0    0    0    0 -0.00000000000E+00 -0.00000000000E+00 -0.45593999997E+02  0.45594000000E+02  0.51100000000E-03 0. -1.
    9900012    2    1    2    0    0 -0.95129835225E+01  0.62851784753E+01  0.43578815239E+02  0.46142318059E+02  0.10000002713E+02 0.  0.
         12    1    1    2    0    0  0.95129835225E+01 -0.62851784753E+01 -0.43578815239E+02  0.45045681941E+02  0.00000000000E+00 0. -1.
         11    1    3    3    0    0  0.12480439669E+01  0.10853149610E+01  0.72963347121E+01  0.74814452347E+01  0.51100000000E-03 0. -1.
        -11    1    3    3    0    0 -0.31257018851E+01  0.39723021221E+01  0.20095334186E+02  0.20721285017E+02  0.51100000000E-03 0.  1.
         12    1    3    3    0    0 -0.76353256043E+01  0.12275613922E+01  0.16187146340E+02  0.17939587807E+02  0.00000000000E+00 0. -1.
</event>
<event>
 7    1  0.2353206E-008  0.4614232E+02  0.7816164E-02  0.1320468E+00
        -11   -1    0    0    0    0  0.00000000000E+00  0.00000000000E+00  0.45593999997E+02  0.45594000000E+02  0.51100000000E-03 0.  1.
         11   -1    0    0    0    0 -0.00000000000E+00 -0.00000000000E+00 -0.45593999997E+02  0.45594000000E+02  0.51100000000E-03 0. -1.
    9900012    2    1    2    0    0 -0.14884062173E+02  0.50765840685E+01  0.42211450559E+02  0.46142316845E+02  0.99999916504E+01 0.  0.
         12    1    1    2    0    0  0.14884062173E+02 -0.50765840685E+01 -0.42211450559E+02  0.45045683155E+02  0.00000000000E+00 0. -1.
         11    1    3    3    0    0 -0.32957921433E+01  0.51052941955E+01  0.15173641366E+02  0.16345203187E+02  0.51100000000E-03 0. -1.
        -11    1    3    3    0    0 -0.10393358242E+02  0.14769002154E+01  0.24090323826E+02  0.26278257782E+02  0.51100000000E-03 0.  1.
        -12    1    3    3    0    0 -0.11949117874E+01 -0.15056103424E+01  0.29474853678E+01  0.35188558760E+01  0.00000000000E+00 0.  1.
</event>
<event>
 7    1  0.2353206E-008  0.4614232E+02  0.7816164E-02  0.1320468E+00
        -11   -1    0    0    0    0  0.00000000000E+00  0.00000000000E+00  0.45593999997E+02  0.45594000000E+02  0.51100000000E-03 0. -1.
         11   -1    0    0    0    0 -0.00000000000E+00 -0.00000000000E+00 -0.45593999997E+02  0.45594000000E+02  0.51100000000E-03 0.  1.
    9900012    2    1    2    0    0 -0.30405771751E+02 -0.30990326861E+02 -0.12008411326E+02  0.46142320326E+02  0.10000023390E+02 0.  0.
         12    1    1    2    0    0  0.30405771751E+02  0.30990326861E+02  0.12008411326E+02  0.45045679674E+02  0.00000000000E+00 0. -1.
         11    1    3    3    0    0 -0.12412179483E+02 -0.13208366050E+02 -0.21712199461E+01  0.18254789222E+02  0.51100000000E-03 0. -1.
        -11    1    3    3    0    0 -0.16160597148E+02 -0.16461492475E+02 -0.66999493921E+01  0.24021551923E+02  0.51100000000E-03 0.  1.
        -12    1    3    3    0    0 -0.18329951192E+01 -0.13204683363E+01 -0.31372419880E+01  0.38659791807E+01  0.00000000000E+00 0.  1.
</event>
<event>
 7    1  0.2353206E-008  0.4614232E+02  0.7816164E-02  0.1320468E+00
        -11   -1    0    0    0    0  0.00000000000E+00  0.00000000000E+00  0.45593999997E+02  0.45594000000E+02  0.51100000000E-03 0.  1.
         11   -1    0    0    0    0 -0.00000000000E+00 -0.00000000000E+00 -0.45593999997E+02  0.45594000000E+02  0.51100000000E-03 0. -1.
    9900012    2    1    2    0    0  0.21038431614E+02 -0.36363739838E+02  0.16253504779E+02  0.46142316551E+02  0.99999889669E+01 0.  0.
         12    1    1    2    0    0 -0.21038431614E+02  0.36363739838E+02 -0.16253504779E+02  0.45045683449E+02  0.00000000000E+00 0. -1.
         11    1    3    3    0    0  0.24805702013E+01 -0.35075727056E+01 -0.88229397018E+00  0.43857425506E+01  0.51100000000E-03 0.  1.
        -11    1    3    3    0    0  0.24892513416E+01 -0.83761105663E+01  0.29846438022E+01  0.92338344877E+01  0.51100000000E-03 0. -1.
         12    1    3    3    0    0  0.16068610071E+02 -0.24480056566E+02  0.14151154947E+02  0.32522739513E+02  0.00000000000E+00 0. -1.
</event>
<event>
 7    1  0.2353206E-008  0.4614231E+02  0.7816164E-02  0.1320468E+00
        -11   -1    0    0    0    0  0.00000000000E+00  0.00000000000E+00  0.45593999997E+02  0.45594000000E+02  0.51100000000E-03 0.  1.
         11   -1    0    0    0    0 -0.00000000000E+00 -0.00000000000E+00 -0.45593999997E+02  0.45594000000E+02  0.51100000000E-03 0. -1.
    9900012    2    1    2    0    0  0.18924230993E+02  0.36714401781E+02 -0.17973318390E+02  0.46142312185E+02  0.99999491523E+01 0.  0.
         12    1    1    2    0    0 -0.18924230993E+02 -0.36714401781E+02  0.17973318390E+02  0.45045687815E+02  0.00000000000E+00 0. -1.
         11    1    3    3    0    0  0.59791578025E+01  0.89279845015E+01 -0.84026763773E+01  0.13640535395E+02  0.51100000000E-03 0. -1.
        -11    1    3    3    0    0  0.12667869896E+02  0.27832447437E+02 -0.98285060090E+01  0.32120392100E+02  0.51100000000E-03 0.  1.
         12    1    3    3    0    0  0.27720329381E+00 -0.46030157394E-01  0.25786399642E+00  0.38138469049E+00  0.00000000000E+00 0. -1.
</event>
<event>
 7    1  0.2353206E-008  0.4614232E+02  0.7816164E-02  0.1320468E+00
        -11   -1    0    0    0    0  0.00000000000E+00  0.00000000000E+00  0.45593999997E+02  0.45594000000E+02  0.51100000000E-03 0.  1.
         11   -1    0    0    0    0 -0.00000000000E+00 -0.00000000000E+00 -0.45593999997E+02  0.45594000000E+02  0.51100000000E-03 0. -1.
    9900012    2    1    2    0    0  0.37323313005E+02 -0.10940691189E+02  0.22724107798E+02  0.46142317714E+02  0.99999995685E+01 0.  0.
         12    1    1    2    0    0 -0.37323313005E+02  0.10940691189E+02 -0.22724107798E+02  0.45045682286E+02  0.00000000000E+00 0. -1.
         11    1    3    3    0    0  0.87093266743E+01 -0.33576774470E+01  0.57741439537E+01  0.10975750891E+02  0.51100000000E-03 0. -1.
        -11    1    3    3    0    0  0.21903563648E+02 -0.24218095518E+01  0.14401751063E+02  0.26325685099E+02  0.51100000000E-03 0.  1.
         12    1    3    3    0    0  0.67104226832E+01 -0.51612041901E+01  0.25482127821E+01  0.88408817242E+01  0.00000000000E+00 0. -1.
</event>
<event>
 7    1  0.2353206E-008  0.4614232E+02  0.7816164E-02  0.1320468E+00
        -11   -1    0    0    0    0  0.00000000000E+00  0.00000000000E+00  0.45593999997E+02  0.45594000000E+02  0.51100000000E-03 0.  1.
         11   -1    0    0    0    0 -0.00000000000E+00 -0.00000000000E+00 -0.45593999997E+02  0.45594000000E+02  0.51100000000E-03 0. -1.
    9900012    2    1    2    0    0  0.13902122095E+02 -0.39067270678E+02 -0.17595250726E+02  0.46142317797E+02  0.10000000329E+02 0.  0.
         12    1    1    2    0    0 -0.13902122095E+02  0.39067270678E+02  0.17595250726E+02  0.45045682203E+02  0.00000000000E+00 0. -1.
         11    1    3    3    0    0  0.32549340149E+01 -0.29017391355E+01 -0.51172141723E+00  0.43905061806E+01  0.51100000000E-03 0. -1.
        -11    1    3    3    0    0  0.17285879925E+01 -0.75976378536E+01 -0.12424196829E+01  0.78902296754E+01  0.51100000000E-03 0.  1.
        -12    1    3    3    0    0  0.89186000875E+01 -0.28567893689E+02 -0.15841109626E+02  0.33861581941E+02  0.00000000000E+00 0.  1.
</event>
<event>
 7    1  0.2353206E-008  0.4614232E+02  0.7816164E-02  0.1320468E+00
        -11   -1    0    0    0    0  0.00000000000E+00  0.00000000000E+00  0.45593999997E+02  0.45594000000E+02  0.51100000000E-03 0.  1.
         11   -1    0    0    0    0 -0.00000000000E+00 -0.00000000000E+00 -0.45593999997E+02  0.45594000000E+02  0.51100000000E-03 0. -1.
    9900012    2    1    2    0    0 -0.12698006381E+01  0.74920310916E+00  0.45021547734E+02  0.46142318084E+02  0.10000002940E+02 0.  0.
         12    1    1    2    0    0  0.12698006381E+01 -0.74920310916E+00 -0.45021547734E+02  0.45045681916E+02  0.00000000000E+00 0. -1.
         11    1    3    3    0    0 -0.23787360285E+01  0.77280767990E+00  0.90460292605E+01  0.93854281973E+01  0.51100000000E-03 0.  1.
        -11    1    3    3    0    0 -0.30696036807E+01  0.96147774408E+00  0.13838202811E+02  0.14207137767E+02  0.51100000000E-03 0. -1.
         12    1    3    3    0    0  0.41785390711E+01 -0.98508231482E+00  0.22137315662E+02  0.22549752120E+02  0.00000000000E+00 0. -1.
</event>
<event>
 7    1  0.2353206E-008  0.4614232E+02  0.7816164E-02  0.1320468E+00
        -11   -1    0    0    0    0  0.00000000000E+00  0.00000000000E+00  0.45593999997E+02  0.45594000000E+02  0.51100000000E-03 0.  1.
         11   -1    0    0    0    0 -0.00000000000E+00 -0.00000000000E+00 -0.45593999997E+02  0.45594000000E+02  0.51100000000E-03 0. -1.
    9900012    2    1    2    0    0 -0.84088480040E+01 -0.12550615021E+02  0.42436856867E+02  0.46142317822E+02  0.10000000551E+02 0.  0.
         12    1    1    2    0    0  0.84088480040E+01  0.12550615021E+02 -0.42436856867E+02  0.45045682178E+02  0.00000000000E+00 0. -1.
         11    1    3    3    0    0 -0.62894323352E+00 -0.14599622228E+01  0.57216479827E+01  0.59383764769E+01  0.51100000000E-03 0. -1.
        -11    1    3    3    0    0 -0.53012148209E+01 -0.79028884130E+01  0.34076221891E+02  0.35380042715E+02  0.51100000000E-03 0.  1.
         12    1    3    3    0    0 -0.24786899496E+01 -0.31877643851E+01  0.26389869932E+01  0.48238986299E+01  0.00000000000E+00 0. -1.
</event>
<event>
 7    1  0.2353206E-008  0.4614231E+02  0.7816164E-02  0.1320468E+00
        -11   -1    0    0    0    0  0.00000000000E+00  0.00000000000E+00  0.45593999997E+02  0.45594000000E+02  0.51100000000E-03 0.  1.
         11   -1    0    0    0    0 -0.00000000000E+00 -0.00000000000E+00 -0.45593999997E+02  0.45594000000E+02  0.51100000000E-03 0. -1.
    9900012    2    1    2    0    0 -0.67036071771E+01  0.36955010289E+02  0.24869718030E+02  0.46142311977E+02  0.99999472520E+01 0.  0.
         12    1    1    2    0    0  0.67036071771E+01 -0.36955010289E+02 -0.24869718030E+02  0.45045688023E+02  0.00000000000E+00 0. -1.
         11    1    3    3    0    0 -0.85416556711E+00  0.13907197765E+02  0.56355725573E+01  0.15029950992E+02  0.51100000000E-03 0. -1.
        -11    1    3    3    0    0 -0.39101815633E+01  0.75022542476E+01  0.43931660717E+01  0.95327460392E+01  0.51100000000E-03 0.  1.
        -12    1    3    3    0    0 -0.19392600467E+01  0.15545558276E+02  0.14840979401E+02  0.21579614946E+02  0.00000000000E+00 0.  1.
</event>
<event>
 7    1  0.2353206E-008  0.4614232E+02  0.7816164E-02  0.1320468E+00
        -11   -1    0    0    0    0  0.00000000000E+00  0.00000000000E+00  0.45593999997E+02  0.45594000000E+02  0.51100000000E-03 0.  1.
         11   -1    0    0    0    0 -0.00000000000E+00 -0.00000000000E+00 -0.45593999997E+02  0.45594000000E+02  0.51100000000E-03 0. -1.
    9900012    2    1    2    0    0  0.43697854994E+02  0.90038853192E+01 -0.62081206181E+01  0.46142320479E+02  0.10000024785E+02 0.  0.
         12    1    1    2    0    0 -0.43697854994E+02 -0.90038853192E+01  0.62081206181E+01  0.45045679521E+02  0.00000000000E+00 0. -1.
         11    1    3    3    0    0  0.15074339473E+02  0.36880304218E+01 -0.38075888922E+01  0.15979205624E+02  0.51100000000E-03 0.  1.
        -11    1    3    3    0    0  0.12992606135E+02 -0.12305394179E+01 -0.23187919598E-01  0.13050769302E+02  0.51100000000E-03 0. -1.
         12    1    3    3    0    0  0.15630909385E+02  0.65463943152E+01 -0.23773438063E+01  0.17112345553E+02  0.00000000000E+00 0. -1.
</event>
<event>
 7    1  0.2353206E-008  0.4614232E+02  0.7816164E-02  0.1320468E+00
        -11   -1    0    0    0    0  0.00000000000E+00  0.00000000000E+00  0.45593999997E+02  0.45594000000E+02  0.51100000000E-03 0.  1.
         11   -1    0    0    0    0 -0.00000000000E+00 -0.00000000000E+00 -0.45593999997E+02  0.45594000000E+02  0.51100000000E-03 0. -1.
    9900012    2    1    2    0    0  0.17009154294E+02  0.14931231618E+02  0.38946892741E+02  0.46142318058E+02  0.10000002705E+02 0.  0.
         12    1    1    2    0    0 -0.17009154294E+02 -0.14931231618E+02 -0.38946892741E+02  0.45045681942E+02  0.00000000000E+00 0. -1.
         11    1    3    3    0    0  0.17467222521E+01  0.12286165004E+01  0.12275463270E+01  0.24632107862E+01  0.51100000000E-03 0. -1.
        -11    1    3    3    0    0  0.28805399363E+00  0.14194258242E+01  0.20845393385E+00  0.14632833209E+01  0.51100000000E-03 0.  1.
        -12    1    3    3    0    0  0.14974378048E+02  0.12283189294E+02  0.37510892480E+02  0.42215823951E+02  0.00000000000E+00 0.  1.
</event>
<event>
 7    1  0.2353206E-008  0.4614232E+02  0.7816164E-02  0.1320468E+00
        -11   -1    0    0    0    0  0.00000000000E+00  0.00000000000E+00  0.45593999997E+02  0.45594000000E+02  0.51100000000E-03 0.  1.
         11   -1    0    0    0    0 -0.00000000000E+00 -0.00000000000E+00 -0.45593999997E+02  0.45594000000E+02  0.51100000000E-03 0. -1.
    9900012    2    1    2    0    0 -0.62404655511E+01 -0.43564953371E+02  0.96054621891E+01  0.46142317894E+02  0.10000001215E+02 0.  0.
         12    1    1    2    0    0  0.62404655511E+01  0.43564953371E+02 -0.96054621891E+01  0.45045682106E+02  0.00000000000E+00 0. -1.
         11    1    3    3    0    0 -0.11682202515E+01 -0.50229632000E+01  0.32997338535E+01  0.61223477221E+01  0.51100000000E-03 0. -1.
        -11    1    3    3    0    0 -0.43461435034E+01 -0.12154679661E+02  0.12593156277E+00  0.12908952709E+02  0.51100000000E-03 0.  1.
         12    1    3    3    0    0 -0.72610179626E+00 -0.26387310510E+02  0.61797967729E+01  0.27111017464E+02  0.00000000000E+00 0. -1.
</event>
<event>
 7    1  0.2353206E-008  0.4614232E+02  0.7816164E-02  0.1320468E+00
        -11   -1    0    0    0    0  0.00000000000E+00  0.00000000000E+00  0.45593999997E+02  0.45594000000E+02  0.51100000000E-03 0.  1.
         11   -1    0    0    0    0 -0.00000000000E+00 -0.00000000000E+00 -0.45593999997E+02  0.45594000000E+02  0.51100000000E-03 0. -1.
    9900012    2    1    2    0    0 -0.36801330352E-01 -0.44927540181E+02 -0.32600713225E+01  0.46142320007E+02  0.10000020476E+02 0.  0.
         12    1    1    2    0    0  0.36801330352E-01  0.44927540181E+02  0.32600713225E+01  0.45045679993E+02  0.00000000000E+00 0. -1.
         11    1    3    3    0    0  0.13954153218E+01 -0.25897860357E+01  0.13220574049E+01  0.32252149810E+01  0.51100000000E-03 0. -1.
        -11    1    3    3    0    0 -0.56478308594E+00 -0.14584523925E+02  0.86503075656E+00  0.14621066874E+02  0.51100000000E-03 0.  1.
         12    1    3    3    0    0 -0.86743356622E+00 -0.27753230220E+02 -0.54471594839E+01  0.28296038151E+02  0.00000000000E+00 0. -1.
</event>
<event>
 7    1  0.2353206E-008  0.4614232E+02  0.7816164E-02  0.1320468E+00
        -11   -1    0    0    0    0  0.00000000000E+00  0.00000000000E+00  0.45593999997E+02  0.45594000000E+02  0.51100000000E-03 0.  1.
         11   -1    0    0    0    0 -0.00000000000E+00 -0.00000000000E+00 -0.45593999997E+02  0.45594000000E+02  0.51100000000E-03 0. -1.
    9900012    2    1    2    0    0 -0.72069049908E+01  0.15508310984E+02  0.41673328355E+02  0.46142317795E+02  0.10000000311E+02 0.  0.
         12    1    1    2    0    0  0.72069049908E+01 -0.15508310984E+02 -0.41673328355E+02  0.45045682205E+02  0.00000000000E+00 0. -1.
         11    1    3    3    0    0 -0.28315903565E+01  0.13166780259E+01  0.78462953173E+01  0.84448739149E+01  0.51100000000E-03 0. -1.
        -11    1    3    3    0    0  0.12909992649E+01  0.94921365861E-01  0.43050447250E+01  0.44954532044E+01  0.51100000000E-03 0.  1.
        -12    1    3    3    0    0 -0.56663138992E+01  0.14096711593E+02  0.29521988312E+02  0.33201990676E+02  0.00000000000E+00 0.  1.
</event>
<event>
 7    1  0.2353206E-008  0.4614232E+02  0.7816164E-02  0.1320468E+00
        -11   -1    0    0    0    0  0.00000000000E+00  0.00000000000E+00  0.45593999997E+02  0.45594000000E+02  0.51100000000E-03 0. -1.
         11   -1    0    0    0    0 -0.00000000000E+00 -0.00000000000E+00 -0.45593999997E+02  0.45594000000E+02  0.51100000000E-03 0.  1.
    9900012    2    1    2    0    0 -0.22697937426E+02 -0.38897022239E+02 -0.96893235989E+00  0.46142317272E+02  0.99999955445E+01 0.  0.
         12    1    1    2    0    0  0.22697937426E+02  0.38897022239E+02  0.96893235989E+00  0.45045682728E+02  0.00000000000E+00 0. -1.
         11    1    3    3    0    0 -0.16250347035E+02 -0.21277822322E+02  0.30536131335E+01  0.26947060228E+02  0.51100000000E-03 0. -1.
        -11    1    3    3    0    0 -0.44495898187E+01 -0.11461313127E+02 -0.25760003812E+01  0.12561700776E+02  0.51100000000E-03 0.  1.
         12    1    3    3    0    0 -0.19980005729E+01 -0.61578867901E+01 -0.14465451122E+01  0.66335562687E+01  0.00000000000E+00 0. -1.
</event>
<event>
 7    1  0.2353206E-008  0.4614232E+02  0.7816164E-02  0.1320468E+00
        -11   -1    0    0    0    0  0.00000000000E+00  0.00000000000E+00  0.45593999997E+02  0.45594000000E+02  0.51100000000E-03 0. -1.
         11   -1    0    0    0    0 -0.00000000000E+00 -0.00000000000E+00 -0.45593999997E+02  0.45594000000E+02  0.51100000000E-03 0.  1.
    9900012    2    1    2    0    0  0.43424067474E+02 -0.59050230554E+01  0.10420861506E+02  0.46142319987E+02  0.10000020300E+02 0.  0.
         12    1    1    2    0    0 -0.43424067474E+02  0.59050230554E+01 -0.10420861506E+02  0.45045680013E+02  0.00000000000E+00 0. -1.
         11    1    3    3    0    0  0.20133706307E+02 -0.35436089255E+01  0.67710282486E+01  0.21535322558E+02  0.51100000000E-03 0. -1.
        -11    1    3    3    0    0  0.13044111140E+02 -0.46225627318E+01  0.18823348731E+01  0.13966392035E+02  0.51100000000E-03 0.  1.
        -12    1    3    3    0    0  0.10246250027E+02  0.22611486019E+01  0.17674983848E+01  0.10640605394E+02  0.00000000000E+00 0.  1.
</event>
<event>
 7    1  0.2353206E-008  0.4614232E+02  0.7816164E-02  0.1320468E+00
        -11   -1    0    0    0    0  0.00000000000E+00  0.00000000000E+00  0.45593999997E+02  0.45594000000E+02  0.51100000000E-03 0.  1.
         11   -1    0    0    0    0 -0.00000000000E+00 -0.00000000000E+00 -0.45593999997E+02  0.45594000000E+02  0.51100000000E-03 0. -1.
    9900012    2    1    2    0    0 -0.95796611161E+01  0.38587238412E+02  0.21174712674E+02  0.46142319494E+02  0.10000015804E+02 0.  0.
         12    1    1    2    0    0  0.95796611161E+01 -0.38587238412E+02 -0.21174712674E+02  0.45045680506E+02  0.00000000000E+00 0. -1.
         11    1    3    3    0    0 -0.22175806542E+01  0.49797741755E+01  0.22300881091E+01  0.58897460074E+01  0.51100000000E-03 0. -1.
        -11    1    3    3    0    0 -0.55911894319E+01  0.19154453480E+02  0.61807145764E+01  0.20889129238E+02  0.51100000000E-03 0.  1.
         12    1    3    3    0    0 -0.17708910300E+01  0.14453010756E+02  0.12763909989E+02  0.19363444249E+02  0.00000000000E+00 0. -1.
</event>
<event>
 7    1  0.2353206E-008  0.4614232E+02  0.7816164E-02  0.1320468E+00
        -11   -1    0    0    0    0  0.00000000000E+00  0.00000000000E+00  0.45593999997E+02  0.45594000000E+02  0.51100000000E-03 0. -1.
         11   -1    0    0    0    0 -0.00000000000E+00 -0.00000000000E+00 -0.45593999997E+02  0.45594000000E+02  0.51100000000E-03 0.  1.
    9900012    2    1    2    0    0  0.31184863081E+02 -0.29700205212E+02 -0.13210437354E+02  0.46142317298E+02  0.99999957763E+01 0.  0.
         12    1    1    2    0    0 -0.31184863081E+02  0.29700205212E+02  0.13210437354E+02  0.45045682702E+02  0.00000000000E+00 0. -1.
         11    1    3    3    0    0  0.14947969435E+02 -0.16677664675E+02 -0.38432758859E+01  0.22723491348E+02  0.51100000000E-03 0. -1.
        -11    1    3    3    0    0  0.49623160497E+01 -0.72818526983E+01 -0.38553799026E+01  0.96184153451E+01  0.51100000000E-03 0.  1.
        -12    1    3    3    0    0  0.11274577596E+02 -0.57406878382E+01 -0.55117815654E+01  0.13800410604E+02  0.00000000000E+00 0.  1.
</event>
<event>
 7    1  0.2353206E-008  0.4614232E+02  0.7816164E-02  0.1320468E+00
        -11   -1    0    0    0    0  0.00000000000E+00  0.00000000000E+00  0.45593999997E+02  0.45594000000E+02  0.51100000000E-03 0.  1.
         11   -1    0    0    0    0 -0.00000000000E+00 -0.00000000000E+00 -0.45593999997E+02  0.45594000000E+02  0.51100000000E-03 0. -1.
    9900012    2    1    2    0    0 -0.52154964137E+01 -0.29626595505E+02  0.33528747143E+02  0.46142318197E+02  0.10000003977E+02 0.  0.
         12    1    1    2    0    0  0.52154964137E+01  0.29626595505E+02 -0.33528747143E+02  0.45045681803E+02  0.00000000000E+00 0. -1.
         11    1    3    3    0    0 -0.23353989556E+01 -0.20505414469E+01  0.10933441476E+01  0.32945728393E+01  0.51100000000E-03 0. -1.
        -11    1    3    3    0    0 -0.15234778173E+01 -0.73445273305E+01  0.64906237641E+01  0.99192370410E+01  0.51100000000E-03 0.  1.
        -12    1    3    3    0    0 -0.13566196409E+01 -0.20231526728E+02  0.25944779232E+02  0.32928508317E+02  0.00000000000E+00 0.  1.
</event>
<event>
 7    1  0.2353206E-008  0.4614232E+02  0.7816164E-02  0.1320468E+00
        -11   -1    0    0    0    0  0.00000000000E+00  0.00000000000E+00  0.45593999997E+02  0.45594000000E+02  0.51100000000E-03 0.  1.
         11   -1    0    0    0    0 -0.00000000000E+00 -0.00000000000E+00 -0.45593999997E+02  0.45594000000E+02  0.51100000000E-03 0. -1.
    9900012    2    1    2    0    0  0.78500242635E+01 -0.35930713549E+02  0.26009125259E+02  0.46142315925E+02  0.99999832551E+01 0.  0.
         12    1    1    2    0    0 -0.78500242635E+01  0.35930713549E+02 -0.26009125259E+02  0.45045684075E+02  0.00000000000E+00 0. -1.
         11    1    3    3    0    0 -0.10682869967E+01 -0.10142274076E+02  0.80156991591E+01  0.12971445325E+02  0.51100000000E-03 0. -1.
        -11    1    3    3    0    0  0.46522018464E+01 -0.20661580668E+02  0.14186995875E+02  0.25491464256E+02  0.51100000000E-03 0.  1.
         12    1    3    3    0    0  0.42661094137E+01 -0.51268588046E+01  0.38064302250E+01  0.76794063436E+01  0.00000000000E+00 0. -1.
</event>
<event>
 7    1  0.2353206E-008  0.4614232E+02  0.7816164E-02  0.1320468E+00
        -11   -1    0    0    0    0  0.00000000000E+00  0.00000000000E+00  0.45593999997E+02  0.45594000000E+02  0.51100000000E-03 0.  1.
         11   -1    0    0    0    0 -0.00000000000E+00 -0.00000000000E+00 -0.45593999997E+02  0.45594000000E+02  0.51100000000E-03 0. -1.
    9900012    2    1    2    0    0  0.31259334915E+02 -0.10943842865E+02  0.30531947492E+02  0.46142317258E+02  0.99999954165E+01 0.  0.
         12    1    1    2    0    0 -0.31259334915E+02  0.10943842865E+02 -0.30531947492E+02  0.45045682742E+02  0.00000000000E+00 0. -1.
         11    1    3    3    0    0  0.10329656024E+02 -0.13984818259E+01  0.11115919319E+02  0.15238805976E+02  0.51100000000E-03 0. -1.
        -11    1    3    3    0    0  0.18287201098E+02 -0.10444299185E+02  0.18292007359E+02  0.27894491265E+02  0.51100000000E-03 0.  1.
        -12    1    3    3    0    0  0.26424777933E+01  0.89893814515E+00  0.11240208132E+01  0.30090200174E+01  0.00000000000E+00 0.  1.
</event>
<event>
 7    1  0.2353206E-008  0.4614232E+02  0.7816164E-02  0.1320468E+00
        -11   -1    0    0    0    0  0.00000000000E+00  0.00000000000E+00  0.45593999997E+02  0.45594000000E+02  0.51100000000E-03 0. -1.
         11   -1    0    0    0    0 -0.00000000000E+00 -0.00000000000E+00 -0.45593999997E+02  0.45594000000E+02  0.51100000000E-03 0.  1.
    9900012    2    1    2    0    0  0.28998341550E+02 -0.34276281117E+02 -0.36532378226E+01  0.46142318670E+02  0.10000008287E+02 0.  0.
         12    1    1    2    0    0 -0.28998341550E+02  0.34276281117E+02  0.36532378226E+01  0.45045681330E+02  0.00000000000E+00 0. -1.
         11    1    3    3    0    0  0.14130890891E+02 -0.12420951706E+02 -0.42498820539E+01  0.19287913738E+02  0.51100000000E-03 0. -1.
        -11    1    3    3    0    0  0.41154356057E+01 -0.43083177058E+01 -0.15700743858E+01  0.61614564445E+01  0.51100000000E-03 0.  1.
         12    1    3    3    0    0  0.10752015054E+02 -0.17547011706E+02  0.21667186172E+01  0.20692948487E+02  0.00000000000E+00 0. -1.
</event>
<event>
 7    1  0.2353206E-008  0.4614232E+02  0.7816164E-02  0.1320468E+00
        -11   -1    0    0    0    0  0.00000000000E+00  0.00000000000E+00  0.45593999997E+02  0.45594000000E+02  0.51100000000E-03 0.  1.
         11   -1    0    0    0    0 -0.00000000000E+00 -0.00000000000E+00 -0.45593999997E+02  0.45594000000E+02  0.51100000000E-03 0. -1.
    9900012    2    1    2    0    0  0.23339467556E+02 -0.27684200183E+02  0.26794920872E+02  0.46142317964E+02  0.10000001849E+02 0.  0.
         12    1    1    2    0    0 -0.23339467556E+02  0.27684200183E+02 -0.26794920872E+02  0.45045682036E+02  0.00000000000E+00 0. -1.
         11    1    3    3    0    0  0.24848330069E+01 -0.78704117432E+01  0.69404204324E+01  0.10783654859E+02  0.51100000000E-03 0. -1.
        -11    1    3    3    0    0  0.12629603673E+02 -0.13968334784E+02  0.15408759454E+02  0.24332100890E+02  0.51100000000E-03 0.  1.
        -12    1    3    3    0    0  0.82250308763E+01 -0.58454536553E+01  0.44457409860E+01  0.11026562214E+02  0.00000000000E+00 0.  1.
</event>
<event>
 7    1  0.2353206E-008  0.4614232E+02  0.7816164E-02  0.1320468E+00
        -11   -1    0    0    0    0  0.00000000000E+00  0.00000000000E+00  0.45593999997E+02  0.45594000000E+02  0.51100000000E-03 0.  1.
         11   -1    0    0    0    0 -0.00000000000E+00 -0.00000000000E+00 -0.45593999997E+02  0.45594000000E+02  0.51100000000E-03 0. -1.
    9900012    2    1    2    0    0 -0.21062827012E+02  0.37897482159E+01  0.39637211240E+02  0.46142318874E+02  0.10000010147E+02 0.  0.
         12    1    1    2    0    0  0.21062827012E+02 -0.37897482159E+01 -0.39637211240E+02  0.45045681126E+02  0.00000000000E+00 0. -1.
         11    1    3    3    0    0  0.29746823049E+00 -0.50411287784E+00  0.16886045345E+01  0.17871772931E+01  0.51100000000E-03 0. -1.
        -11    1    3    3    0    0 -0.22777861145E+01  0.76711804569E+00  0.10295897797E+02  0.10572714476E+02  0.51100000000E-03 0.  1.
         12    1    3    3    0    0 -0.19082509128E+02  0.35267430481E+01  0.27652708908E+02  0.33782427105E+02  0.00000000000E+00 0. -1.
</event>
<event>
 7    1  0.2353206E-008  0.4614232E+02  0.7816164E-02  0.1320468E+00
        -11   -1    0    0    0    0  0.00000000000E+00  0.00000000000E+00  0.45593999997E+02  0.45594000000E+02  0.51100000000E-03 0. -1.
         11   -1    0    0    0    0 -0.00000000000E+00 -0.00000000000E+00 -0.45593999997E+02  0.45594000000E+02  0.51100000000E-03 0.  1.
    9900012    2    1    2    0    0  0.42684188163E+01  0.26585291927E+02 -0.36112550964E+02  0.46142317819E+02  0.10000000529E+02 0.  0.
         12    1    1    2    0    0 -0.42684188163E+01 -0.26585291927E+02  0.36112550964E+02  0.45045682181E+02  0.00000000000E+00 0. -1.
         11    1    3    3    0    0  0.24423734405E+01  0.17265774214E+02 -0.18753939339E+02  0.25608248441E+02  0.51100000000E-03 0. -1.
        -11    1    3    3    0    0 -0.91924395487E+00  0.63310260544E+01 -0.74093270427E+01  0.97890258881E+01  0.51100000000E-03 0.  1.
        -12    1    3    3    0    0  0.27452893306E+01  0.29884916581E+01 -0.99492845824E+01  0.10745043490E+02  0.00000000000E+00 0.  1.
</event>
<event>
 7    1  0.2353206E-008  0.4614232E+02  0.7816164E-02  0.1320468E+00
        -11   -1    0    0    0    0  0.00000000000E+00  0.00000000000E+00  0.45593999997E+02  0.45594000000E+02  0.51100000000E-03 0. -1.
         11   -1    0    0    0    0 -0.00000000000E+00 -0.00000000000E+00 -0.45593999997E+02  0.45594000000E+02  0.51100000000E-03 0.  1.
    9900012    2    1    2    0    0  0.38616256359E+02  0.18716027988E+02 -0.13697028059E+02  0.46142317227E+02  0.99999951340E+01 0.  0.
         12    1    1    2    0    0 -0.38616256359E+02 -0.18716027988E+02  0.13697028059E+02  0.45045682773E+02  0.00000000000E+00 0. -1.
         11    1    3    3    0    0  0.33738381894E+01  0.19138779910E+01 -0.37278064008E+01  0.53798005461E+01  0.51100000000E-03 0. -1.
        -11    1    3    3    0    0  0.16520053105E+02  0.45386395522E+01 -0.38416952786E+01  0.17557620182E+02  0.51100000000E-03 0.  1.
        -12    1    3    3    0    0  0.18722365064E+02  0.12263510444E+02 -0.61275263795E+01  0.23204896500E+02  0.00000000000E+00 0.  1.
</event>
<event>
 7    1  0.2353206E-008  0.4614232E+02  0.7816164E-02  0.1320468E+00
        -11   -1    0    0    0    0  0.00000000000E+00  0.00000000000E+00  0.45593999997E+02  0.45594000000E+02  0.51100000000E-03 0.  1.
         11   -1    0    0    0    0 -0.00000000000E+00 -0.00000000000E+00 -0.45593999997E+02  0.45594000000E+02  0.51100000000E-03 0. -1.
    9900012    2    1    2    0    0  0.39982441153E+01  0.32116407230E+02  0.31331517520E+02  0.46142316972E+02  0.99999928060E+01 0.  0.
         12    1    1    2    0    0 -0.39982441153E+01 -0.32116407230E+02 -0.31331517520E+02  0.45045683028E+02  0.00000000000E+00 0. -1.
         11    1    3    3    0    0  0.29627314039E+00  0.81550201881E+01  0.12892415609E+02  0.15257998313E+02  0.51100000000E-03 0. -1.
        -11    1    3    3    0    0 -0.11764236475E+00  0.18318692546E+01  0.33784580602E+01  0.38449400279E+01  0.51100000000E-03 0.  1.
         12    1    3    3    0    0  0.38196133396E+01  0.22129517787E+02  0.15060643851E+02  0.27039378631E+02  0.00000000000E+00 0. -1.
</event>
<event>
 7    1  0.2353206E-008  0.4614232E+02  0.7816164E-02  0.1320468E+00
        -11   -1    0    0    0    0  0.00000000000E+00  0.00000000000E+00  0.45593999997E+02  0.45594000000E+02  0.51100000000E-03 0.  1.
         11   -1    0    0    0    0 -0.00000000000E+00 -0.00000000000E+00 -0.45593999997E+02  0.45594000000E+02  0.51100000000E-03 0. -1.
    9900012    2    1    2    0    0  0.36889006351E+02 -0.60393576764E+01  0.25136445567E+02  0.46142317339E+02  0.99999961473E+01 0.  0.
         12    1    1    2    0    0 -0.36889006351E+02  0.60393576764E+01 -0.25136445567E+02  0.45045682661E+02  0.00000000000E+00 0. -1.
         11    1    3    3    0    0  0.83264277906E+01 -0.35097688713E+01  0.83765813233E+01  0.12321322665E+02  0.51100000000E-03 0.  1.
        -11    1    3    3    0    0  0.94396800171E+01 -0.29855353488E+01  0.33169759578E+01  0.10441422791E+02  0.51100000000E-03 0. -1.
        -12    1    3    3    0    0  0.19122898543E+02  0.45594654361E+00  0.13442888286E+02  0.23379571882E+02  0.00000000000E+00 0.  1.
</event>
<event>
 7    1  0.2353206E-008  0.4614231E+02  0.7816164E-02  0.1320468E+00
        -11   -1    0    0    0    0  0.00000000000E+00  0.00000000000E+00  0.45593999997E+02  0.45594000000E+02  0.51100000000E-03 0.  1.
         11   -1    0    0    0    0 -0.00000000000E+00 -0.00000000000E+00 -0.45593999997E+02  0.45594000000E+02  0.51100000000E-03 0. -1.
    9900012    2    1    2    0    0  0.26572562824E+02 -0.13090879742E+02  0.33935845480E+02  0.46142313904E+02  0.99999648235E+01 0.  0.
         12    1    1    2    0    0 -0.26572562824E+02  0.13090879742E+02 -0.33935845480E+02  0.45045686096E+02  0.00000000000E+00 0. -1.
         11    1    3    3    0    0  0.95865991108E+00 -0.24267646155E+01  0.37054101925E+01  0.45319179472E+01  0.51100000000E-03 0.  1.
        -11    1    3    3    0    0  0.12854753023E+02 -0.54312140300E+01  0.10172694917E+02  0.17269235167E+02  0.51100000000E-03 0. -1.
        -12    1    3    3    0    0  0.12759149890E+02 -0.52329010967E+01  0.20057740370E+02  0.24341160789E+02  0.00000000000E+00 0.  1.
</event>
<event>
 7    1  0.2353206E-008  0.4614232E+02  0.7816164E-02  0.1320468E+00
        -11   -1    0    0    0    0  0.00000000000E+00  0.00000000000E+00  0.45593999997E+02  0.45594000000E+02  0.51100000000E-03 0.  1.
         11   -1    0    0    0    0 -0.00000000000E+00 -0.00000000000E+00 -0.45593999997E+02  0.45594000000E+02  0.51100000000E-03 0. -1.
    9900012    2    1    2    0    0 -0.60084485472E+00  0.20694463859E+02  0.40006145456E+02  0.46142317375E+02  0.99999964761E+01 0.  0.
         12    1    1    2    0    0  0.60084485472E+00 -0.20694463859E+02 -0.40006145456E+02  0.45045682625E+02  0.00000000000E+00 0. -1.
         11    1    3    3    0    0 -0.23464741507E+01  0.47993333527E+01  0.13986724859E+02  0.14972241453E+02  0.51100000000E-03 0. -1.
        -11    1    3    3    0    0  0.82336650530E+00  0.12523875526E+02  0.24125128208E+02  0.27194617150E+02  0.51100000000E-03 0.  1.
        -12    1    3    3    0    0  0.92226279069E+00  0.33712549800E+01  0.18942923881E+01  0.39754587719E+01  0.00000000000E+00 0.  1.
</event>
<event>
 7    1  0.2353206E-008  0.4614232E+02  0.7816164E-02  0.1320468E+00
        -11   -1    0    0    0    0  0.00000000000E+00  0.00000000000E+00  0.45593999997E+02  0.45594000000E+02  0.51100000000E-03 0.  1.
         11   -1    0    0    0    0 -0.00000000000E+00 -0.00000000000E+00 -0.45593999997E+02  0.45594000000E+02  0.51100000000E-03 0. -1.
    9900012    2    1    2    0    0 -0.29159180640E+01 -0.34158721786E+02  0.29219730123E+02  0.46142317847E+02  0.10000000779E+02 0.  0.
         12    1    1    2    0    0  0.29159180640E+01  0.34158721786E+02 -0.29219730123E+02  0.45045682153E+02  0.00000000000E+00 0. -1.
         11    1    3    3    0    0 -0.14426638958E+01 -0.74495975646E+01  0.11560767198E+02  0.13828561800E+02  0.51100000000E-03 0. -1.
        -11    1    3    3    0    0  0.14628816663E+00 -0.16651343032E+02  0.89138490578E+01  0.18887703150E+02  0.51100000000E-03 0.  1.
         12    1    3    3    0    0 -0.16195423348E+01 -0.10057781189E+02  0.87451138673E+01  0.13426052896E+02  0.00000000000E+00 0. -1.
</event>
<event>
 7    1  0.2353206E-008  0.4614232E+02  0.7816164E-02  0.1320468E+00
        -11   -1    0    0    0    0  0.00000000000E+00  0.00000000000E+00  0.45593999997E+02  0.45594000000E+02  0.51100000000E-03 0.  1.
         11   -1    0    0    0    0 -0.00000000000E+00 -0.00000000000E+00 -0.45593999997E+02  0.45594000000E+02  0.51100000000E-03 0. -1.
    9900012    2    1    2    0    0 -0.31961150079E+02 -0.24393672464E+02  0.20311254387E+02  0.46142318459E+02  0.10000006368E+02 0.  0.
         12    1    1    2    0    0  0.31961150079E+02  0.24393672464E+02 -0.20311254387E+02  0.45045681541E+02  0.00000000000E+00 0. -1.
         11    1    3    3    0    0 -0.92937694061E+01 -0.43895962294E+01  0.30609343732E+01  0.10724365917E+02  0.51100000000E-03 0. -1.
        -11    1    3    3    0    0 -0.47637804691E+01 -0.23559327916E+01  0.55661189340E+01  0.76958237977E+01  0.51100000000E-03 0.  1.
        -12    1    3    3    0    0 -0.17903600204E+02 -0.17648143443E+02  0.11684201080E+02  0.27722128745E+02  0.00000000000E+00 0.  1.
</event>
<event>
 7    1  0.2353206E-008  0.4614232E+02  0.7816164E-02  0.1320468E+00
        -11   -1    0    0    0    0  0.00000000000E+00  0.00000000000E+00  0.45593999997E+02  0.45594000000E+02  0.51100000000E-03 0.  1.
         11   -1    0    0    0    0 -0.00000000000E+00 -0.00000000000E+00 -0.45593999997E+02  0.45594000000E+02  0.51100000000E-03 0. -1.
    9900012    2    1    2    0    0 -0.21825542808E+02 -0.13054945456E+02  0.37179665388E+02  0.46142318319E+02  0.10000005089E+02 0.  0.
         12    1    1    2    0    0  0.21825542808E+02  0.13054945456E+02 -0.37179665388E+02  0.45045681681E+02  0.00000000000E+00 0. -1.
         11    1    3    3    0    0 -0.37897033640E+01 -0.24131064315E+01  0.66125795381E+01  0.79944444864E+01  0.51100000000E-03 0. -1.
        -11    1    3    3    0    0 -0.13696184736E+02 -0.79707392185E+01  0.15200712945E+02  0.21958593632E+02  0.51100000000E-03 0.  1.
         12    1    3    3    0    0 -0.43396547081E+01 -0.26710998060E+01  0.15366372905E+02  0.16189280201E+02  0.00000000000E+00 0. -1.
</event>
<event>
 7    1  0.2353206E-008  0.4614232E+02  0.7816164E-02  0.1320468E+00
        -11   -1    0    0    0    0  0.00000000000E+00  0.00000000000E+00  0.45593999997E+02  0.45594000000E+02  0.51100000000E-03 0. -1.
         11   -1    0    0    0    0 -0.00000000000E+00 -0.00000000000E+00 -0.45593999997E+02  0.45594000000E+02  0.51100000000E-03 0.  1.
    9900012    2    1    2    0    0 -0.43723540621E+02 -0.32851978359E+01 -0.10323423239E+02  0.46142316559E+02  0.99999890373E+01 0.  0.
         12    1    1    2    0    0  0.43723540621E+02  0.32851978359E+01  0.10323423239E+02  0.45045683441E+02  0.00000000000E+00 0. -1.
         11    1    3    3    0    0 -0.11797879637E+02 -0.16343396333E+01 -0.36593738760E+01  0.12460017953E+02  0.51100000000E-03 0. -1.
        -11    1    3    3    0    0 -0.22563220781E+02 -0.38403086869E+00 -0.83947295033E+01  0.24077331568E+02  0.51100000000E-03 0.  1.
         12    1    3    3    0    0 -0.93624402033E+01 -0.12668273340E+01  0.17306801401E+01  0.96049670381E+01  0.00000000000E+00 0. -1.
</event>
<event>
 7    1  0.2353206E-008  0.4614232E+02  0.7816164E-02  0.1320468E+00
        -11   -1    0    0    0    0  0.00000000000E+00  0.00000000000E+00  0.45593999997E+02  0.45594000000E+02  0.51100000000E-03 0.  1.
         11   -1    0    0    0    0 -0.00000000000E+00 -0.00000000000E+00 -0.45593999997E+02  0.45594000000E+02  0.51100000000E-03 0. -1.
    9900012    2    1    2    0    0 -0.26938216382E+02 -0.34500517248E+02  0.10637683697E+02  0.46142317558E+02  0.99999981453E+01 0.  0.
         12    1    1    2    0    0  0.26938216382E+02  0.34500517248E+02 -0.10637683697E+02  0.45045682442E+02  0.00000000000E+00 0. -1.
         11    1    3    3    0    0 -0.13986566590E+02 -0.14360463908E+02  0.77086450614E+01  0.21477201344E+02  0.51100000000E-03 0. -1.
        -11    1    3    3    0    0 -0.98452740825E+01 -0.17247920423E+02  0.40642895454E+01  0.20271621308E+02  0.51100000000E-03 0.  1.
         12    1    3    3    0    0 -0.31063757092E+01 -0.28921329175E+01 -0.11352509095E+01  0.43934949057E+01  0.00000000000E+00 0. -1.
</event>
<event>
 7    1  0.2353206E-008  0.4614232E+02  0.7816164E-02  0.1320468E+00
        -11   -1    0    0    0    0  0.00000000000E+00  0.00000000000E+00  0.45593999997E+02  0.45594000000E+02  0.51100000000E-03 0. -1.
         11   -1    0    0    0    0 -0.00000000000E+00 -0.00000000000E+00 -0.45593999997E+02  0.45594000000E+02  0.51100000000E-03 0.  1.
    9900012    2    1    2    0    0 -0.12682699392E+02  0.42543091376E+02  0.76385868384E+01  0.46142317670E+02  0.99999991713E+01 0.  0.
         12    1    1    2    0    0  0.12682699392E+02 -0.42543091376E+02 -0.76385868384E+01  0.45045682330E+02  0.00000000000E+00 0. -1.
         11    1    3    3    0    0 -0.36040395639E+01  0.11286974724E+02  0.27613995229E+01  0.12165945388E+02  0.51100000000E-03 0. -1.
        -11    1    3    3    0    0 -0.48386039472E+01  0.27595586040E+02  0.43101319077E+01  0.28346176009E+02  0.51100000000E-03 0.  1.
         12    1    3    3    0    0 -0.42400558810E+01  0.36605306120E+01  0.56705540793E+00  0.56301962729E+01  0.00000000000E+00 0. -1.
</event>
<event>
 7    1  0.2353206E-008  0.4614232E+02  0.7816164E-02  0.1320468E+00
        -11   -1    0    0    0    0  0.00000000000E+00  0.00000000000E+00  0.45593999997E+02  0.45594000000E+02  0.51100000000E-03 0.  1.
         11   -1    0    0    0    0 -0.00000000000E+00 -0.00000000000E+00 -0.45593999997E+02  0.45594000000E+02  0.51100000000E-03 0. -1.
    9900012    2    1    2    0    0 -0.39481676323E+02 -0.21087040451E+02  0.50643348734E+01  0.46142317322E+02  0.99999959934E+01 0.  0.
         12    1    1    2    0    0  0.39481676323E+02  0.21087040451E+02 -0.50643348734E+01  0.45045682678E+02  0.00000000000E+00 0. -1.
         11    1    3    3    0    0 -0.14854435765E+02 -0.45778509193E+01  0.36102072625E+01  0.15957586838E+02  0.51100000000E-03 0. -1.
        -11    1    3    3    0    0 -0.17200744004E+02 -0.14221875549E+02  0.19118679573E+01  0.22400503963E+02  0.51100000000E-03 0.  1.
        -12    1    3    3    0    0 -0.74264965534E+01 -0.22873139827E+01 -0.45774034641E+00  0.77842265215E+01  0.00000000000E+00 0.  1.
</event>
<event>
 7    1  0.2353206E-008  0.4614232E+02  0.7816164E-02  0.1320468E+00
        -11   -1    0    0    0    0  0.00000000000E+00  0.00000000000E+00  0.45593999997E+02  0.45594000000E+02  0.51100000000E-03 0.  1.
         11   -1    0    0    0    0 -0.00000000000E+00 -0.00000000000E+00 -0.45593999997E+02  0.45594000000E+02  0.51100000000E-03 0. -1.
    9900012    2    1    2    0    0 -0.31111362700E+02  0.16097546701E+02  0.28320766896E+02  0.46142315008E+02  0.99999748972E+01 0.  0.
         12    1    1    2    0    0  0.31111362700E+02 -0.16097546701E+02 -0.28320766896E+02  0.45045684992E+02  0.00000000000E+00 0. -1.
         11    1    3    3    0    0 -0.16772862220E+02  0.84380432820E+01  0.14612428277E+02  0.23791858731E+02  0.51100000000E-03 0.  1.
        -11    1    3    3    0    0 -0.61752694578E+01  0.13065636355E+01  0.17726063860E+01  0.65561570352E+01  0.51100000000E-03 0. -1.
        -12    1    3    3    0    0 -0.81632310222E+01  0.63529397837E+01  0.11935732233E+02  0.15794299242E+02  0.00000000000E+00 0.  1.
</event>
<event>
 7    1  0.2353206E-008  0.4614232E+02  0.7816164E-02  0.1320468E+00
        -11   -1    0    0    0    0  0.00000000000E+00  0.00000000000E+00  0.45593999997E+02  0.45594000000E+02  0.51100000000E-03 0.  1.
         11   -1    0    0    0    0 -0.00000000000E+00 -0.00000000000E+00 -0.45593999997E+02  0.45594000000E+02  0.51100000000E-03 0. -1.
    9900012    2    1    2    0    0 -0.19632170962E+02 -0.25524635007E+02 -0.31498956993E+02  0.46142318514E+02  0.10000006867E+02 0.  0.
         12    1    1    2    0    0  0.19632170962E+02  0.25524635007E+02  0.31498956993E+02  0.45045681486E+02  0.00000000000E+00 0. -1.
         11    1    3    3    0    0 -0.41831273539E+00 -0.35456306483E+00  0.25974760789E+00  0.60676980187E+00  0.51100000000E-03 0. -1.
        -11    1    3    3    0    0 -0.38391501130E+01 -0.26236699584E+01 -0.84571805875E+01  0.96512497322E+01  0.51100000000E-03 0.  1.
        -12    1    3    3    0    0 -0.15374708113E+02 -0.22546401983E+02 -0.23301524013E+02  0.35884298980E+02  0.00000000000E+00 0.  1.
</event>
<event>
 7    1  0.2353206E-008  0.4614232E+02  0.7816164E-02  0.1320468E+00
        -11   -1    0    0    0    0  0.00000000000E+00  0.00000000000E+00  0.45593999997E+02  0.45594000000E+02  0.51100000000E-03 0.  1.
         11   -1    0    0    0    0 -0.00000000000E+00 -0.00000000000E+00 -0.45593999997E+02  0.45594000000E+02  0.51100000000E-03 0. -1.
    9900012    2    1    2    0    0 -0.15417686789E+02 -0.41093664244E+02  0.10135041643E+02  0.46142319008E+02  0.10000011374E+02 0.  0.
         12    1    1    2    0    0  0.15417686789E+02  0.41093664244E+02 -0.10135041643E+02  0.45045680992E+02  0.00000000000E+00 0. -1.
         11    1    3    3    0    0 -0.15216377332E+01 -0.24112823707E+01 -0.15246525817E+01  0.32333001436E+01  0.51100000000E-03 0. -1.
        -11    1    3    3    0    0 -0.28131774808E+01 -0.68404080365E+01  0.36836163777E+01  0.82628191026E+01  0.51100000000E-03 0.  1.
        -12    1    3    3    0    0 -0.11082871575E+02 -0.31841973836E+02  0.79760778472E+01  0.34646199762E+02  0.00000000000E+00 0.  1.
</event>
<event>
 7    1  0.2353206E-008  0.4614232E+02  0.7816164E-02  0.1320468E+00
        -11   -1    0    0    0    0  0.00000000000E+00  0.00000000000E+00  0.45593999997E+02  0.45594000000E+02  0.51100000000E-03 0.  1.
         11   -1    0    0    0    0 -0.00000000000E+00 -0.00000000000E+00 -0.45593999997E+02  0.45594000000E+02  0.51100000000E-03 0. -1.
    9900012    2    1    2    0    0  0.19791297712E+02  0.13796098641E+02  0.38040578688E+02  0.46142318411E+02  0.10000005930E+02 0.  0.
         12    1    1    2    0    0 -0.19791297712E+02 -0.13796098641E+02 -0.38040578688E+02  0.45045681589E+02  0.00000000000E+00 0. -1.
         11    1    3    3    0    0  0.90627586371E+00  0.37573741918E+01  0.42036436928E+01  0.57105006186E+01  0.51100000000E-03 0. -1.
        -11    1    3    3    0    0  0.29217249108E+01  0.24356258019E+01  0.10396385495E+02  0.11070392094E+02  0.51100000000E-03 0.  1.
         12    1    3    3    0    0  0.15963296938E+02  0.76030986471E+01  0.23440549500E+02  0.29361425698E+02  0.00000000000E+00 0. -1.
</event>
<event>
 7    1  0.2353206E-008  0.4614232E+02  0.7816164E-02  0.1320468E+00
        -11   -1    0    0    0    0  0.00000000000E+00  0.00000000000E+00  0.45593999997E+02  0.45594000000E+02  0.51100000000E-03 0. -1.
         11   -1    0    0    0    0 -0.00000000000E+00 -0.00000000000E+00 -0.45593999997E+02  0.45594000000E+02  0.51100000000E-03 0.  1.
    9900012    2    1    2    0    0 -0.37028442466E+02  0.20549912488E+02  0.15352819357E+02  0.46142317444E+02  0.99999971083E+01 0.  0.
         12    1    1    2    0    0  0.37028442466E+02 -0.20549912488E+02 -0.15352819357E+02  0.45045682556E+02  0.00000000000E+00 0. -1.
         11    1    3    3    0    0 -0.25812998050E+01 -0.38997713955E+00  0.13945137351E+01  0.29597060110E+01  0.51100000000E-03 0. -1.
        -11    1    3    3    0    0 -0.18870335869E+01  0.15685507543E+00  0.19815903406E+01  0.27408392532E+01  0.51100000000E-03 0.  1.
        -12    1    3    3    0    0 -0.32560109074E+02  0.20783034552E+02  0.11976715281E+02  0.40441772180E+02  0.00000000000E+00 0.  1.
</event>
<event>
 7    1  0.2353206E-008  0.4614231E+02  0.7816164E-02  0.1320468E+00
        -11   -1    0    0    0    0  0.00000000000E+00  0.00000000000E+00  0.45593999997E+02  0.45594000000E+02  0.51100000000E-03 0.  1.
         11   -1    0    0    0    0 -0.00000000000E+00 -0.00000000000E+00 -0.45593999997E+02  0.45594000000E+02  0.51100000000E-03 0. -1.
    9900012    2    1    2    0    0  0.10450927860E+01 -0.40593043385E+02  0.19499401491E+02  0.46142311542E+02  0.99999432862E+01 0.  0.
         12    1    1    2    0    0 -0.10450927860E+01  0.40593043385E+02 -0.19499401491E+02  0.45045688458E+02  0.00000000000E+00 0. -1.
         11    1    3    3    0    0 -0.96742893976E+00 -0.10530350653E+02  0.44951939585E+01  0.11490473124E+02  0.51100000000E-03 0. -1.
        -11    1    3    3    0    0  0.20690198000E+01 -0.16960847509E+02  0.40163067482E+01  0.17552262285E+02  0.51100000000E-03 0.  1.
         12    1    3    3    0    0 -0.56498074221E-01 -0.13101845222E+02  0.10987900784E+02  0.17099576133E+02  0.00000000000E+00 0. -1.
</event>
<event>
 7    1  0.2353206E-008  0.4614232E+02  0.7816164E-02  0.1320468E+00
        -11   -1    0    0    0    0  0.00000000000E+00  0.00000000000E+00  0.45593999997E+02  0.45594000000E+02  0.51100000000E-03 0.  1.
         11   -1    0    0    0    0 -0.00000000000E+00 -0.00000000000E+00 -0.45593999997E+02  0.45594000000E+02  0.51100000000E-03 0. -1.
    9900012    2    1    2    0    0  0.20304964694E+01  0.93771320812E+01  0.44012044104E+02  0.46142317097E+02  0.99999939426E+01 0.  0.
         12    1    1    2    0    0 -0.20304964694E+01 -0.93771320812E+01 -0.44012044104E+02  0.45045682903E+02  0.00000000000E+00 0. -1.
         11    1    3    3    0    0 -0.32947300594E+00  0.67454689192E+01  0.11783844901E+02  0.13581933011E+02  0.51100000000E-03 0. -1.
        -11    1    3    3    0    0  0.23101655811E+01  0.27561870117E+01  0.19342462146E+02  0.19673949120E+02  0.51100000000E-03 0.  1.
        -12    1    3    3    0    0  0.49803894284E-01 -0.12452384978E+00  0.12885737057E+02  0.12886434966E+02  0.00000000000E+00 0.  1.
</event>
<event>
 7    1  0.2353206E-008  0.4614231E+02  0.7816164E-02  0.1320468E+00
        -11   -1    0    0    0    0  0.00000000000E+00  0.00000000000E+00  0.45593999997E+02  0.45594000000E+02  0.51100000000E-03 0. -1.
         11   -1    0    0    0    0 -0.00000000000E+00 -0.00000000000E+00 -0.45593999997E+02  0.45594000000E+02  0.51100000000E-03 0.  1.
    9900012    2    1    2    0    0 -0.43146089416E+02 -0.12333705035E+01 -0.12884390373E+02  0.46142314858E+02  0.99999735255E+01 0.  0.
         12    1    1    2    0    0  0.43146089416E+02  0.12333705035E+01  0.12884390373E+02  0.45045685142E+02  0.00000000000E+00 0. -1.
         11    1    3    3    0    0 -0.12359723113E+02 -0.53681789169E+00 -0.19474719434E+01  0.12523720538E+02  0.51100000000E-03 0. -1.
        -11    1    3    3    0    0 -0.58078015589E+01 -0.14360075756E+01  0.75321168161E+00  0.60299257710E+01  0.51100000000E-03 0.  1.
        -12    1    3    3    0    0 -0.24978564743E+02  0.73945496382E+00 -0.11690130111E+02  0.27588668549E+02  0.00000000000E+00 0.  1.
</event>
<event>
 7    1  0.2353206E-008  0.4614232E+02  0.7816164E-02  0.1320468E+00
        -11   -1    0    0    0    0  0.00000000000E+00  0.00000000000E+00  0.45593999997E+02  0.45594000000E+02  0.51100000000E-03 0.  1.
         11   -1    0    0    0    0 -0.00000000000E+00 -0.00000000000E+00 -0.45593999997E+02  0.45594000000E+02  0.51100000000E-03 0. -1.
    9900012    2    1    2    0    0 -0.35096918130E+02  0.10818463379E+02  0.26082191278E+02  0.46142317477E+02  0.99999974075E+01 0.  0.
         12    1    1    2    0    0  0.35096918130E+02 -0.10818463379E+02 -0.26082191278E+02  0.45045682523E+02  0.00000000000E+00 0. -1.
         11    1    3    3    0    0 -0.80255527570E-01  0.70324160646E+00  0.53102084353E+00  0.88485767451E+00  0.51100000000E-03 0. -1.
        -11    1    3    3    0    0 -0.18499589406E+02  0.55871523306E+01  0.85714766308E+01  0.21140513032E+02  0.51100000000E-03 0.  1.
        -12    1    3    3    0    0 -0.16517073196E+02  0.45280694415E+01  0.16979693804E+02  0.24116946770E+02  0.00000000000E+00 0.  1.
</event>
<event>
 7    1  0.2353206E-008  0.4614232E+02  0.7816164E-02  0.1320468E+00
        -11   -1    0    0    0    0  0.00000000000E+00  0.00000000000E+00  0.45593999997E+02  0.45594000000E+02  0.51100000000E-03 0.  1.
         11   -1    0    0    0    0 -0.00000000000E+00 -0.00000000000E+00 -0.45593999997E+02  0.45594000000E+02  0.51100000000E-03 0. -1.
    9900012    2    1    2    0    0 -0.13946166093E+02 -0.57797530249E+00  0.42828540815E+02  0.46142317493E+02  0.99999975586E+01 0.  0.
         12    1    1    2    0    0  0.13946166093E+02  0.57797530249E+00 -0.42828540815E+02  0.45045682507E+02  0.00000000000E+00 0. -1.
         11    1    3    3    0    0 -0.99428545486E+01 -0.34256666387E+01  0.35791246490E+02  0.37304274206E+02  0.51100000000E-03 0. -1.
        -11    1    3    3    0    0 -0.45618680006E+00 -0.24298540313E-01  0.19530623337E+01  0.20057790397E+01  0.51100000000E-03 0.  1.
         12    1    3    3    0    0 -0.35471247447E+01  0.28719898765E+01  0.50842319912E+01  0.68322642474E+01  0.00000000000E+00 0. -1.
</event>
<event>
 7    1  0.2353206E-008  0.4614232E+02  0.7816164E-02  0.1320468E+00
        -11   -1    0    0    0    0  0.00000000000E+00  0.00000000000E+00  0.45593999997E+02  0.45594000000E+02  0.51100000000E-03 0.  1.
         11   -1    0    0    0    0 -0.00000000000E+00 -0.00000000000E+00 -0.45593999997E+02  0.45594000000E+02  0.51100000000E-03 0. -1.
    9900012    2    1    2    0    0  0.36751077672E+02 -0.19703442584E+02  0.17036612114E+02  0.46142317498E+02  0.99999976045E+01 0.  0.
         12    1    1    2    0    0 -0.36751077672E+02  0.19703442584E+02 -0.17036612114E+02  0.45045682502E+02  0.00000000000E+00 0. -1.
         11    1    3    3    0    0  0.70416903808E+01 -0.35906373974E+01  0.33263429209E+01  0.85757004278E+01  0.51100000000E-03 0. -1.
        -11    1    3    3    0    0  0.17048938840E+02 -0.11046943167E+02  0.36969837664E+01  0.20648703547E+02  0.51100000000E-03 0.  1.
         12    1    3    3    0    0  0.12660448451E+02 -0.50658620198E+01  0.10013285427E+02  0.16917913524E+02  0.00000000000E+00 0. -1.
</event>
<event>
 7    1  0.2353206E-008  0.4614231E+02  0.7816164E-02  0.1320468E+00
        -11   -1    0    0    0    0  0.00000000000E+00  0.00000000000E+00  0.45593999997E+02  0.45594000000E+02  0.51100000000E-03 0.  1.
         11   -1    0    0    0    0 -0.00000000000E+00 -0.00000000000E+00 -0.45593999997E+02  0.45594000000E+02  0.51100000000E-03 0. -1.
    9900012    2    1    2    0    0  0.67490574510E+01 -0.11182962603E+02  0.43110386118E+02  0.46142314077E+02  0.99999664048E+01 0.  0.
         12    1    1    2    0    0 -0.67490574510E+01  0.11182962603E+02 -0.43110386118E+02  0.45045685923E+02  0.00000000000E+00 0. -1.
         11    1    3    3    0    0  0.55805177865E+01 -0.88385199191E+01  0.38838942426E+02  0.40220953024E+02  0.51100000000E-03 0.  1.
        -11    1    3    3    0    0  0.68896125775E+00 -0.15313751249E+01  0.46195260779E+01  0.49152618276E+01  0.51100000000E-03 0. -1.
         12    1    3    3    0    0  0.47957840672E+00 -0.81306755885E+00 -0.34808238627E+00  0.10060992253E+01  0.00000000000E+00 0. -1.
</event>
<event>
 7    1  0.2353206E-008  0.4614232E+02  0.7816164E-02  0.1320468E+00
        -11   -1    0    0    0    0  0.00000000000E+00  0.00000000000E+00  0.45593999997E+02  0.45594000000E+02  0.51100000000E-03 0.  1.
         11   -1    0    0    0    0 -0.00000000000E+00 -0.00000000000E+00 -0.45593999997E+02  0.45594000000E+02  0.51100000000E-03 0. -1.
    9900012    2    1    2    0    0 -0.92818579854E+01 -0.42116719643E+02  0.13005482209E+02  0.46142317314E+02  0.99999959272E+01 0.  0.
         12    1    1    2    0    0  0.92818579854E+01  0.42116719643E+02 -0.13005482209E+02  0.45045682686E+02  0.00000000000E+00 0. -1.
         11    1    3    3    0    0 -0.41338180039E+01 -0.70595307111E+01  0.11501764593E+01  0.82612548259E+01  0.51100000000E-03 0. -1.
        -11    1    3    3    0    0 -0.36035652068E+01 -0.70984216207E+01  0.21580123424E+01  0.82480476015E+01  0.51100000000E-03 0.  1.
        -12    1    3    3    0    0 -0.15444747747E+01 -0.27958767311E+02  0.96972934074E+01  0.29633014887E+02  0.00000000000E+00 0.  1.
</event>
<event>
 7    1  0.2353206E-008  0.4614231E+02  0.7816164E-02  0.1320468E+00
        -11   -1    0    0    0    0  0.00000000000E+00  0.00000000000E+00  0.45593999997E+02  0.45594000000E+02  0.51100000000E-03 0.  1.
         11   -1    0    0    0    0 -0.00000000000E+00 -0.00000000000E+00 -0.45593999997E+02  0.45594000000E+02  0.51100000000E-03 0. -1.
    9900012    2    1    2    0    0 -0.42469364895E+02 -0.11364632342E+02  0.98138945027E+01  0.46142308217E+02  0.99999129724E+01 0.  0.
         12    1    1    2    0    0  0.42469364895E+02  0.11364632342E+02 -0.98138945027E+01  0.45045691783E+02  0.00000000000E+00 0. -1.
         11    1    3    3    0    0 -0.69712867317E+01  0.16324820820E+01  0.13763875901E+01  0.72909724662E+01  0.51100000000E-03 0. -1.
        -11    1    3    3    0    0 -0.21938625454E+02 -0.70233911130E+01  0.62960979837E+01  0.23880371848E+02  0.51100000000E-03 0.  1.
        -12    1    3    3    0    0 -0.13559452710E+02 -0.59737233115E+01  0.21414089290E+01  0.14970963903E+02  0.00000000000E+00 0.  1.
</event>
<event>
 7    1  0.2353206E-008  0.4614232E+02  0.7816164E-02  0.1320468E+00
        -11   -1    0    0    0    0  0.00000000000E+00  0.00000000000E+00  0.45593999997E+02  0.45594000000E+02  0.51100000000E-03 0.  1.
         11   -1    0    0    0    0 -0.00000000000E+00 -0.00000000000E+00 -0.45593999997E+02  0.45594000000E+02  0.51100000000E-03 0. -1.
    9900012    2    1    2    0    0  0.21480541331E+02 -0.28160725923E+02  0.27832953115E+02  0.46142318525E+02  0.10000006968E+02 0.  0.
         12    1    1    2    0    0 -0.21480541331E+02  0.28160725923E+02 -0.27832953115E+02  0.45045681475E+02  0.00000000000E+00 0. -1.
         11    1    3    3    0    0  0.77649105498E+01 -0.91189497312E+01  0.71612093706E+01  0.13954640804E+02  0.51100000000E-03 0. -1.
        -11    1    3    3    0    0  0.30799323870E+01 -0.76880933164E+01  0.11353730623E+02  0.14053467959E+02  0.51100000000E-03 0.  1.
        -12    1    3    3    0    0  0.10635698395E+02 -0.11353682876E+02  0.93180131215E+01  0.18134209763E+02  0.00000000000E+00 0.  1.
</event>
<event>
 7    1  0.2353206E-008  0.4614232E+02  0.7816164E-02  0.1320468E+00
        -11   -1    0    0    0    0  0.00000000000E+00  0.00000000000E+00  0.45593999997E+02  0.45594000000E+02  0.51100000000E-03 0.  1.
         11   -1    0    0    0    0 -0.00000000000E+00 -0.00000000000E+00 -0.45593999997E+02  0.45594000000E+02  0.51100000000E-03 0. -1.
    9900012    2    1    2    0    0 -0.12146448361E+02 -0.42828448686E+02  0.68775900066E+01  0.46142317977E+02  0.10000001971E+02 0.  0.
         12    1    1    2    0    0  0.12146448361E+02  0.42828448686E+02 -0.68775900066E+01  0.45045682023E+02  0.00000000000E+00 0. -1.
         11    1    3    3    0    0 -0.95861683618E+00 -0.10784435855E+02  0.53965729374E+01  0.12097355194E+02  0.51100000000E-03 0. -1.
        -11    1    3    3    0    0 -0.65382967717E+01 -0.16383133157E+02  0.15578135641E+01  0.17708279421E+02  0.51100000000E-03 0.  1.
        -12    1    3    3    0    0 -0.46495347528E+01 -0.15660879674E+02 -0.76796495001E-01  0.16336683362E+02  0.00000000000E+00 0.  1.
</event>
<event>
 7    1  0.2353206E-008  0.4614232E+02  0.7816164E-02  0.1320468E+00
        -11   -1    0    0    0    0  0.00000000000E+00  0.00000000000E+00  0.45593999997E+02  0.45594000000E+02  0.51100000000E-03 0. -1.
         11   -1    0    0    0    0 -0.00000000000E+00 -0.00000000000E+00 -0.45593999997E+02  0.45594000000E+02  0.51100000000E-03 0.  1.
    9900012    2    1    2    0    0 -0.38763303378E+02  0.22769988121E+02  0.28367227006E+01  0.46142322699E+02  0.10000045030E+02 0.  0.
         12    1    1    2    0    0  0.38763303378E+02 -0.22769988121E+02 -0.28367227006E+01  0.45045677301E+02  0.00000000000E+00 0. -1.
         11    1    3    3    0    0 -0.42078526650E+01  0.56677219989E+01 -0.13324999819E+00  0.70602303454E+01  0.51100000000E-03 0. -1.
        -11    1    3    3    0    0 -0.16086812582E+02  0.10588546421E+02  0.30464382095E+01  0.19498298397E+02  0.51100000000E-03 0.  1.
         12    1    3    3    0    0 -0.18468638132E+02  0.65137197003E+01 -0.76465510708E-01  0.19583793957E+02  0.00000000000E+00 0. -1.
</event>
<event>
 7    1  0.2353206E-008  0.4614232E+02  0.7816164E-02  0.1320468E+00
        -11   -1    0    0    0    0  0.00000000000E+00  0.00000000000E+00  0.45593999997E+02  0.45594000000E+02  0.51100000000E-03 0. -1.
         11   -1    0    0    0    0 -0.00000000000E+00 -0.00000000000E+00 -0.45593999997E+02  0.45594000000E+02  0.51100000000E-03 0.  1.
    9900012    2    1    2    0    0  0.26490276783E+01  0.40678467809E+02 -0.19166593245E+02  0.46142318880E+02  0.10000010202E+02 0.  0.
         12    1    1    2    0    0 -0.26490276783E+01 -0.40678467809E+02  0.19166593245E+02  0.45045681120E+02  0.00000000000E+00 0. -1.
         11    1    3    3    0    0  0.26636437430E+00  0.18814355562E+02 -0.68618297986E+01  0.20028370719E+02  0.51100000000E-03 0.  1.
        -11    1    3    3    0    0 -0.64230018408E-01  0.40667537613E+01 -0.56381720168E+01  0.69520928936E+01  0.51100000000E-03 0. -1.
         12    1    3    3    0    0  0.24468933224E+01  0.17797358486E+02 -0.66665914301E+01  0.19161855268E+02  0.00000000000E+00 0. -1.
</event>
<event>
 7    1  0.2353206E-008  0.4614232E+02  0.7816164E-02  0.1320468E+00
        -11   -1    0    0    0    0  0.00000000000E+00  0.00000000000E+00  0.45593999997E+02  0.45594000000E+02  0.51100000000E-03 0.  1.
         11   -1    0    0    0    0 -0.00000000000E+00 -0.00000000000E+00 -0.45593999997E+02  0.45594000000E+02  0.51100000000E-03 0. -1.
    9900012    2    1    2    0    0  0.58763671410E+01 -0.25146439617E+02  0.36908513523E+02  0.46142317780E+02  0.10000000170E+02 0.  0.
         12    1    1    2    0    0 -0.58763671410E+01  0.25146439617E+02 -0.36908513523E+02  0.45045682220E+02  0.00000000000E+00 0. -1.
         11    1    3    3    0    0 -0.11187829319E+01 -0.12908755152E+02  0.20905047344E+02  0.24594890517E+02  0.51100000000E-03 0. -1.
        -11    1    3    3    0    0  0.42394734174E+01 -0.45505489192E+01  0.61021919427E+01  0.87130578496E+01  0.51100000000E-03 0.  1.
         12    1    3    3    0    0  0.27556766554E+01 -0.76871355454E+01  0.99012742366E+01  0.12834369413E+02  0.00000000000E+00 0. -1.
</event>
<event>
 7    1  0.2353206E-008  0.4614232E+02  0.7816164E-02  0.1320468E+00
        -11   -1    0    0    0    0  0.00000000000E+00  0.00000000000E+00  0.45593999997E+02  0.45594000000E+02  0.51100000000E-03 0.  1.
         11   -1    0    0    0    0 -0.00000000000E+00 -0.00000000000E+00 -0.45593999997E+02  0.45594000000E+02  0.51100000000E-03 0. -1.
    9900012    2    1    2    0    0  0.99091385098E+01  0.41788180912E+02  0.13589348977E+02  0.46142317682E+02  0.99999992747E+01 0.  0.
         12    1    1    2    0    0 -0.99091385098E+01 -0.41788180912E+02 -0.13589348977E+02  0.45045682318E+02  0.00000000000E+00 0. -1.
         11    1    3    3    0    0 -0.34916854468E+00  0.24186962202E+01  0.23428267142E+01  0.33853873267E+01  0.51100000000E-03 0. -1.
        -11    1    3    3    0    0  0.46939713647E+00  0.14487283322E+02  0.33529517622E+01  0.14877634136E+02  0.51100000000E-03 0.  1.
         12    1    3    3    0    0  0.97889099180E+01  0.24882201370E+02  0.78935705003E+01  0.27879296219E+02  0.00000000000E+00 0. -1.
</event>
<event>
 7    1  0.2353206E-008  0.4614232E+02  0.7816164E-02  0.1320468E+00
        -11   -1    0    0    0    0  0.00000000000E+00  0.00000000000E+00  0.45593999997E+02  0.45594000000E+02  0.51100000000E-03 0.  1.
         11   -1    0    0    0    0 -0.00000000000E+00 -0.00000000000E+00 -0.45593999997E+02  0.45594000000E+02  0.51100000000E-03 0. -1.
    9900012    2    1    2    0    0  0.38835928398E+02 -0.47388917173E+01  0.22325484271E+02  0.46142315665E+02  0.99999808846E+01 0.  0.
         12    1    1    2    0    0 -0.38835928398E+02  0.47388917173E+01 -0.22325484271E+02  0.45045684335E+02  0.00000000000E+00 0. -1.
         11    1    3    3    0    0  0.34711525663E+00 -0.41753493998E+00  0.12798508870E+01  0.13902672339E+01  0.51100000000E-03 0. -1.
        -11    1    3    3    0    0  0.33919112283E+02 -0.59518240814E+01  0.19874424485E+02  0.39760824147E+02  0.51100000000E-03 0.  1.
        -12    1    3    3    0    0  0.45697008588E+01  0.16304673040E+01  0.11712088990E+01  0.49912242840E+01  0.00000000000E+00 0.  1.
</event>
<event>
 7    1  0.2353206E-008  0.4614232E+02  0.7816164E-02  0.1320468E+00
        -11   -1    0    0    0    0  0.00000000000E+00  0.00000000000E+00  0.45593999997E+02  0.45594000000E+02  0.51100000000E-03 0. -1.
         11   -1    0    0    0    0 -0.00000000000E+00 -0.00000000000E+00 -0.45593999997E+02  0.45594000000E+02  0.51100000000E-03 0.  1.
    9900012    2    1    2    0    0 -0.44015463904E+01  0.30080800482E+02 -0.33239815671E+02  0.46142317476E+02  0.99999973972E+01 0.  0.
         12    1    1    2    0    0  0.44015463904E+01 -0.30080800482E+02  0.33239815671E+02  0.45045682524E+02  0.00000000000E+00 0. -1.
         11    1    3    3    0    0 -0.13313142815E+01  0.38762769539E+01 -0.44772031573E+01  0.60698656585E+01  0.51100000000E-03 0. -1.
        -11    1    3    3    0    0  0.22302888795E+01  0.54322196039E+01 -0.31221489910E+01  0.66506400364E+01  0.51100000000E-03 0.  1.
        -12    1    3    3    0    0 -0.53005209884E+01  0.20772303924E+02 -0.25640463523E+02  0.33421811781E+02  0.00000000000E+00 0.  1.
</event>
<event>
 7    1  0.2353206E-008  0.4614232E+02  0.7816164E-02  0.1320468E+00
        -11   -1    0    0    0    0  0.00000000000E+00  0.00000000000E+00  0.45593999997E+02  0.45594000000E+02  0.51100000000E-03 0.  1.
         11   -1    0    0    0    0 -0.00000000000E+00 -0.00000000000E+00 -0.45593999997E+02  0.45594000000E+02  0.51100000000E-03 0. -1.
    9900012    2    1    2    0    0  0.18608951908E+01 -0.18175232300E+02  0.41174159964E+02  0.46142318200E+02  0.10000004002E+02 0.  0.
         12    1    1    2    0    0 -0.18608951908E+01  0.18175232300E+02 -0.41174159964E+02  0.45045681800E+02  0.00000000000E+00 0. -1.
         11    1    3    3    0    0  0.88238474885E+00 -0.12231320325E+01  0.42387194154E+01  0.44990440494E+01  0.51100000000E-03 0. -1.
        -11    1    3    3    0    0 -0.16088831209E+01 -0.14240693751E+02  0.33952701115E+02  0.36853382161E+02  0.51100000000E-03 0.  1.
         12    1    3    3    0    0  0.25873935628E+01 -0.27114065164E+01  0.29827394335E+01  0.47898919899E+01  0.00000000000E+00 0. -1.
</event>
<event>
 7    1  0.2353206E-008  0.4614232E+02  0.7816164E-02  0.1320468E+00
        -11   -1    0    0    0    0  0.00000000000E+00  0.00000000000E+00  0.45593999997E+02  0.45594000000E+02  0.51100000000E-03 0.  1.
         11   -1    0    0    0    0 -0.00000000000E+00 -0.00000000000E+00 -0.45593999997E+02  0.45594000000E+02  0.51100000000E-03 0. -1.
    9900012    2    1    2    0    0  0.24522022781E+02  0.22924232982E+02  0.30037700199E+02  0.46142317717E+02  0.99999996010E+01 0.  0.
         12    1    1    2    0    0 -0.24522022781E+02 -0.22924232982E+02 -0.30037700199E+02  0.45045682283E+02  0.00000000000E+00 0. -1.
         11    1    3    3    0    0  0.30565893781E+00  0.36197339554E+01  0.26929106526E+01  0.45219099215E+01  0.51100000000E-03 0. -1.
        -11    1    3    3    0    0  0.27724871422E+00  0.48320112025E+00 -0.16654230821E+00  0.58145229701E+00  0.51100000000E-03 0.  1.
        -12    1    3    3    0    0  0.23939115129E+02  0.18821297906E+02  0.27511331854E+02  0.41038955499E+02  0.00000000000E+00 0.  1.
</event>
<event>
 7    1  0.2353206E-008  0.4614232E+02  0.7816164E-02  0.1320468E+00
        -11   -1    0    0    0    0  0.00000000000E+00  0.00000000000E+00  0.45593999997E+02  0.45594000000E+02  0.51100000000E-03 0.  1.
         11   -1    0    0    0    0 -0.00000000000E+00 -0.00000000000E+00 -0.45593999997E+02  0.45594000000E+02  0.51100000000E-03 0. -1.
    9900012    2    1    2    0    0 -0.21979748613E+02 -0.32397588213E+02  0.22280046227E+02  0.46142317288E+02  0.99999956814E+01 0.  0.
         12    1    1    2    0    0  0.21979748613E+02  0.32397588213E+02 -0.22280046227E+02  0.45045682712E+02  0.00000000000E+00 0. -1.
         11    1    3    3    0    0 -0.11070306843E+02 -0.22143041154E+02  0.15496760268E+02  0.29206429843E+02  0.51100000000E-03 0. -1.
        -11    1    3    3    0    0 -0.44876681809E+01 -0.65054244949E+01  0.47740158426E+01  0.92331436189E+01  0.51100000000E-03 0.  1.
         12    1    3    3    0    0 -0.64217735890E+01 -0.37491225647E+01  0.20092701170E+01  0.77027438251E+01  0.00000000000E+00 0. -1.
</event>
<event>
 7    1  0.2353206E-008  0.4614232E+02  0.7816164E-02  0.1320468E+00
        -11   -1    0    0    0    0  0.00000000000E+00  0.00000000000E+00  0.45593999997E+02  0.45594000000E+02  0.51100000000E-03 0.  1.
         11   -1    0    0    0    0 -0.00000000000E+00 -0.00000000000E+00 -0.45593999997E+02  0.45594000000E+02  0.51100000000E-03 0. -1.
    9900012    2    1    2    0    0 -0.91624712143E+01 -0.41914647443E+02  0.13723154057E+02  0.46142317562E+02  0.99999981841E+01 0.  0.
         12    1    1    2    0    0  0.91624712143E+01  0.41914647443E+02 -0.13723154057E+02  0.45045682438E+02  0.00000000000E+00 0. -1.
         11    1    3    3    0    0  0.18555364988E+01 -0.46448388062E+01  0.10481765984E+01  0.51104028879E+01  0.51100000000E-03 0. -1.
        -11    1    3    3    0    0 -0.68848755789E+01 -0.22738782352E+02  0.59295834709E+01  0.24487010740E+02  0.51100000000E-03 0.  1.
         12    1    3    3    0    0 -0.41331321342E+01 -0.14531026285E+02  0.67453939876E+01  0.16544903934E+02  0.00000000000E+00 0. -1.
</event>
<event>
 7    1  0.2353206E-008  0.4614232E+02  0.7816164E-02  0.1320468E+00
        -11   -1    0    0    0    0  0.00000000000E+00  0.00000000000E+00  0.45593999997E+02  0.45594000000E+02  0.51100000000E-03 0. -1.
         11   -1    0    0    0    0 -0.00000000000E+00 -0.00000000000E+00 -0.45593999997E+02  0.45594000000E+02  0.51100000000E-03 0.  1.
    9900012    2    1    2    0    0  0.31202818027E+02 -0.10286933930E+02 -0.30816821677E+02  0.46142319177E+02  0.10000012914E+02 0.  0.
         12    1    1    2    0    0 -0.31202818027E+02  0.10286933930E+02  0.30816821677E+02  0.45045680823E+02  0.00000000000E+00 0. -1.
         11    1    3    3    0    0  0.20463759729E+01  0.74372424104E+00 -0.99688902541E+00  0.23946958804E+01  0.51100000000E-03 0. -1.
        -11    1    3    3    0    0  0.80726814788E+01  0.14337222384E+00 -0.62794720562E+01  0.10228416858E+02  0.51100000000E-03 0.  1.
         12    1    3    3    0    0  0.21083760576E+02 -0.11174030395E+02 -0.23540460595E+02  0.33519206439E+02  0.00000000000E+00 0. -1.
</event>
<event>
 7    1  0.2353206E-008  0.4614232E+02  0.7816164E-02  0.1320468E+00
        -11   -1    0    0    0    0  0.00000000000E+00  0.00000000000E+00  0.45593999997E+02  0.45594000000E+02  0.51100000000E-03 0. -1.
         11   -1    0    0    0    0 -0.00000000000E+00 -0.00000000000E+00 -0.45593999997E+02  0.45594000000E+02  0.51100000000E-03 0.  1.
    9900012    2    1    2    0    0 -0.21350840480E+02  0.12657377618E+02 -0.37590503423E+02  0.46142317133E+02  0.99999942691E+01 0.  0.
         12    1    1    2    0    0  0.21350840480E+02 -0.12657377618E+02  0.37590503423E+02  0.45045682867E+02  0.00000000000E+00 0. -1.
         11    1    3    3    0    0 -0.96838431236E+01  0.89215086037E+01 -0.19150027420E+02  0.23239915745E+02  0.51100000000E-03 0. -1.
        -11    1    3    3    0    0 -0.32047264324E+01  0.37230861084E+01 -0.87707032615E+01  0.10052704991E+02  0.51100000000E-03 0.  1.
         12    1    3    3    0    0 -0.84622709240E+01  0.12782906271E-01 -0.96697727420E+01  0.12849696396E+02  0.00000000000E+00 0. -1.
</event>
<event>
 7    1  0.2353206E-008  0.4614232E+02  0.7816164E-02  0.1320468E+00
        -11   -1    0    0    0    0  0.00000000000E+00  0.00000000000E+00  0.45593999997E+02  0.45594000000E+02  0.51100000000E-03 0.  1.
         11   -1    0    0    0    0 -0.00000000000E+00 -0.00000000000E+00 -0.45593999997E+02  0.45594000000E+02  0.51100000000E-03 0. -1.
    9900012    2    1    2    0    0 -0.36159806068E+01  0.72482564292E+00  0.44894461702E+02  0.46142318969E+02  0.10000011018E+02 0.  0.
         12    1    1    2    0    0  0.36159806068E+01 -0.72482564292E+00 -0.44894461702E+02  0.45045681031E+02  0.00000000000E+00 0. -1.
         11    1    3    3    0    0  0.13379062502E+01  0.11115346982E+00  0.16911173262E+02  0.16964378255E+02  0.51100000000E-03 0. -1.
        -11    1    3    3    0    0 -0.21747485053E+01 -0.14377834670E+01  0.22803246593E+02  0.22951793128E+02  0.51100000000E-03 0.  1.
        -12    1    3    3    0    0 -0.27791383516E+01  0.20514556401E+01  0.51800418482E+01  0.62261475866E+01  0.00000000000E+00 0.  1.
</event>
<event>
 7    1  0.2353206E-008  0.4614232E+02  0.7816164E-02  0.1320468E+00
        -11   -1    0    0    0    0  0.00000000000E+00  0.00000000000E+00  0.45593999997E+02  0.45594000000E+02  0.51100000000E-03 0. -1.
         11   -1    0    0    0    0 -0.00000000000E+00 -0.00000000000E+00 -0.45593999997E+02  0.45594000000E+02  0.51100000000E-03 0.  1.
    9900012    2    1    2    0    0  0.34898593437E+02  0.92234461427E+01 -0.26946798021E+02  0.46142315343E+02  0.99999779519E+01 0.  0.
         12    1    1    2    0    0 -0.34898593437E+02 -0.92234461427E+01  0.26946798021E+02  0.45045684657E+02  0.00000000000E+00 0. -1.
         11    1    3    3    0    0  0.88174904984E+01  0.49581626508E+01 -0.75759150228E+01  0.12638275367E+02  0.51100000000E-03 0. -1.
        -11    1    3    3    0    0  0.12869814305E+02  0.41538984040E+01 -0.62995561071E+01  0.14918827018E+02  0.51100000000E-03 0.  1.
        -12    1    3    3    0    0  0.13211288634E+02  0.11138508787E+00 -0.13071326891E+02  0.18585212958E+02  0.00000000000E+00 0.  1.
</event>
<event>
 7    1  0.2353206E-008  0.4614233E+02  0.7816164E-02  0.1320468E+00
        -11   -1    0    0    0    0  0.00000000000E+00  0.00000000000E+00  0.45593999997E+02  0.45594000000E+02  0.51100000000E-03 0. -1.
         11   -1    0    0    0    0 -0.00000000000E+00 -0.00000000000E+00 -0.45593999997E+02  0.45594000000E+02  0.51100000000E-03 0.  1.
    9900012    2    1    2    0    0 -0.41937403575E+02 -0.14890793012E+02  0.69736135786E+01  0.46142325164E+02  0.10000067501E+02 0.  0.
         12    1    1    2    0    0  0.41937403575E+02  0.14890793012E+02 -0.69736135786E+01  0.45045674836E+02  0.00000000000E+00 0. -1.
         11    1    3    3    0    0 -0.14270223319E+02 -0.15755544397E+01  0.18588637661E+01  0.14476775197E+02  0.51100000000E-03 0. -1.
        -11    1    3    3    0    0 -0.19859514803E+02 -0.79028368165E+01  0.12542717347E+01  0.21410940096E+02  0.51100000000E-03 0.  1.
        -12    1    3    3    0    0 -0.78076654532E+01 -0.54124017553E+01  0.38604780779E+01  0.10254609870E+02  0.00000000000E+00 0.  1.
</event>
<event>
 7    1  0.2353206E-008  0.4614232E+02  0.7816164E-02  0.1320468E+00
        -11   -1    0    0    0    0  0.00000000000E+00  0.00000000000E+00  0.45593999997E+02  0.45594000000E+02  0.51100000000E-03 0.  1.
         11   -1    0    0    0    0 -0.00000000000E+00 -0.00000000000E+00 -0.45593999997E+02  0.45594000000E+02  0.51100000000E-03 0. -1.
    9900012    2    1    2    0    0  0.14404527839E+02 -0.38325625143E+02  0.18782149685E+02  0.46142321942E+02  0.10000038127E+02 0.  0.
         12    1    1    2    0    0 -0.14404527839E+02  0.38325625143E+02 -0.18782149685E+02  0.45045678058E+02  0.00000000000E+00 0. -1.
         11    1    3    3    0    0  0.11026320350E+02 -0.16224501702E+02  0.81640135358E+01  0.21247713129E+02  0.51100000000E-03 0. -1.
        -11    1    3    3    0    0  0.26927939644E+00 -0.10285330586E+00  0.23143083684E+00  0.36966294003E+00  0.51100000000E-03 0.  1.
        -12    1    3    3    0    0  0.31089280929E+01 -0.21998270135E+02  0.10386705313E+02  0.24524945873E+02  0.00000000000E+00 0.  1.
</event>
<event>
 7    1  0.2353206E-008  0.4614232E+02  0.7816164E-02  0.1320468E+00
        -11   -1    0    0    0    0  0.00000000000E+00  0.00000000000E+00  0.45593999997E+02  0.45594000000E+02  0.51100000000E-03 0.  1.
         11   -1    0    0    0    0 -0.00000000000E+00 -0.00000000000E+00 -0.45593999997E+02  0.45594000000E+02  0.51100000000E-03 0. -1.
    9900012    2    1    2    0    0 -0.25537607343E+02  0.28643561945E+02  0.23590050623E+02  0.46142317432E+02  0.99999969948E+01 0.  0.
         12    1    1    2    0    0  0.25537607343E+02 -0.28643561945E+02 -0.23590050623E+02  0.45045682568E+02  0.00000000000E+00 0. -1.
         11    1    3    3    0    0 -0.41974518018E-01  0.56181286682E+00 -0.75747214343E+00  0.94401264117E+00  0.51100000000E-03 0. -1.
        -11    1    3    3    0    0 -0.16050904967E+02  0.18181996847E+02  0.13651327243E+02  0.27831192848E+02  0.51100000000E-03 0.  1.
        -12    1    3    3    0    0 -0.94447278578E+01  0.98997522315E+01  0.10696195523E+02  0.17367111942E+02  0.00000000000E+00 0.  1.
</event>
<event>
 7    1  0.2353206E-008  0.4614232E+02  0.7816164E-02  0.1320468E+00
        -11   -1    0    0    0    0  0.00000000000E+00  0.00000000000E+00  0.45593999997E+02  0.45594000000E+02  0.51100000000E-03 0.  1.
         11   -1    0    0    0    0 -0.00000000000E+00 -0.00000000000E+00 -0.45593999997E+02  0.45594000000E+02  0.51100000000E-03 0. -1.
    9900012    2    1    2    0    0  0.28485309241E+02  0.33937801284E+02  0.81195030618E+01  0.46142317316E+02  0.99999959392E+01 0.  0.
         12    1    1    2    0    0 -0.28485309241E+02 -0.33937801284E+02 -0.81195030618E+01  0.45045682684E+02  0.00000000000E+00 0. -1.
         11    1    3    3    0    0  0.76312852282E+01  0.12185354037E+02  0.22788092404E+01  0.14557209178E+02  0.51100000000E-03 0. -1.
        -11    1    3    3    0    0  0.18281184171E+02  0.21767722279E+02  0.58014001139E+01  0.29011922919E+02  0.51100000000E-03 0.  1.
        -12    1    3    3    0    0  0.25728398418E+01 -0.15275031560E-01  0.39293707590E-01  0.25731852194E+01  0.00000000000E+00 0.  1.
</event>
<event>
 7    1  0.2353206E-008  0.4614232E+02  0.7816164E-02  0.1320468E+00
        -11   -1    0    0    0    0  0.00000000000E+00  0.00000000000E+00  0.45593999997E+02  0.45594000000E+02  0.51100000000E-03 0.  1.
         11   -1    0    0    0    0 -0.00000000000E+00 -0.00000000000E+00 -0.45593999997E+02  0.45594000000E+02  0.51100000000E-03 0. -1.
    9900012    2    1    2    0    0  0.84312282515E+01  0.24096861716E+01  0.44183948893E+02  0.46142317221E+02  0.99999950724E+01 0.  0.
         12    1    1    2    0    0 -0.84312282515E+01 -0.24096861716E+01 -0.44183948893E+02  0.45045682779E+02  0.00000000000E+00 0. -1.
         11    1    3    3    0    0  0.43542945763E+01 -0.15877639017E+01  0.10847290196E+02  0.11795956100E+02  0.51100000000E-03 0. -1.
        -11    1    3    3    0    0  0.42661858576E+01  0.48772858651E+01  0.21001768644E+02  0.21978683891E+02  0.51100000000E-03 0.  1.
         12    1    3    3    0    0 -0.18925218239E+00 -0.87983579177E+00  0.12334890053E+02  0.12367677229E+02  0.00000000000E+00 0. -1.
</event>
<event>
 7    1  0.2353206E-008  0.4614232E+02  0.7816164E-02  0.1320468E+00
        -11   -1    0    0    0    0  0.00000000000E+00  0.00000000000E+00  0.45593999997E+02  0.45594000000E+02  0.51100000000E-03 0. -1.
         11   -1    0    0    0    0 -0.00000000000E+00 -0.00000000000E+00 -0.45593999997E+02  0.45594000000E+02  0.51100000000E-03 0.  1.
    9900012    2    1    2    0    0 -0.11784695305E+02 -0.40854422737E+02 -0.14871130839E+02  0.46142318375E+02  0.10000005601E+02 0.  0.
         12    1    1    2    0    0  0.11784695305E+02  0.40854422737E+02  0.14871130839E+02  0.45045681625E+02  0.00000000000E+00 0. -1.
         11    1    3    3    0    0  0.87651189852E+00 -0.91249513622E+01 -0.23512867861E+01  0.94636969670E+01  0.51100000000E-03 0. -1.
        -11    1    3    3    0    0 -0.39233921901E+01 -0.16059782681E+02 -0.62194317208E+01  0.17663265758E+02  0.51100000000E-03 0.  1.
        -12    1    3    3    0    0 -0.87378150132E+01 -0.15669688694E+02 -0.63004123317E+01  0.19015355650E+02  0.00000000000E+00 0.  1.
</event>
<event>
 7    1  0.2353206E-008  0.4614232E+02  0.7816164E-02  0.1320468E+00
        -11   -1    0    0    0    0  0.00000000000E+00  0.00000000000E+00  0.45593999997E+02  0.45594000000E+02  0.51100000000E-03 0.  1.
         11   -1    0    0    0    0 -0.00000000000E+00 -0.00000000000E+00 -0.45593999997E+02  0.45594000000E+02  0.51100000000E-03 0. -1.
    9900012    2    1    2    0    0 -0.11566824420E+02 -0.70833356871E+01  0.42955190176E+02  0.46142318357E+02  0.10000005436E+02 0.  0.
         12    1    1    2    0    0  0.11566824420E+02  0.70833356871E+01 -0.42955190176E+02  0.45045681643E+02  0.00000000000E+00 0. -1.
         11    1    3    3    0    0 -0.41958710849E+00 -0.93810463338E-01  0.61403772017E-01  0.43430913988E+00  0.51100000000E-03 0. -1.
        -11    1    3    3    0    0 -0.44172260394E+01 -0.63892428912E+01  0.13760370095E+02  0.15801332096E+02  0.51100000000E-03 0.  1.
        -12    1    3    3    0    0 -0.67300112718E+01 -0.60028233258E+00  0.29133416309E+02  0.29906677121E+02  0.00000000000E+00 0.  1.
</event>
<event>
 7    1  0.2353206E-008  0.4614232E+02  0.7816164E-02  0.1320468E+00
        -11   -1    0    0    0    0  0.00000000000E+00  0.00000000000E+00  0.45593999997E+02  0.45594000000E+02  0.51100000000E-03 0.  1.
         11   -1    0    0    0    0 -0.00000000000E+00 -0.00000000000E+00 -0.45593999997E+02  0.45594000000E+02  0.51100000000E-03 0. -1.
    9900012    2    1    2    0    0 -0.16757174337E+02  0.74827807727E+01  0.41137799709E+02  0.46142318023E+02  0.10000002391E+02 0.  0.
         12    1    1    2    0    0  0.16757174337E+02 -0.74827807727E+01 -0.41137799709E+02  0.45045681977E+02  0.00000000000E+00 0. -1.
         11    1    3    3    0    0 -0.26588076143E+01  0.52948668567E+01  0.14367635968E+02  0.15541358902E+02  0.51100000000E-03 0. -1.
        -11    1    3    3    0    0 -0.89199581585E+01  0.27657573092E+01  0.14223718396E+02  0.17015558537E+02  0.51100000000E-03 0.  1.
         12    1    3    3    0    0 -0.51784085638E+01 -0.57784339313E+00  0.12546445345E+02  0.13585400585E+02  0.00000000000E+00 0. -1.
</event>
<event>
 7    1  0.2353206E-008  0.4614232E+02  0.7816164E-02  0.1320468E+00
        -11   -1    0    0    0    0  0.00000000000E+00  0.00000000000E+00  0.45593999997E+02  0.45594000000E+02  0.51100000000E-03 0. -1.
         11   -1    0    0    0    0 -0.00000000000E+00 -0.00000000000E+00 -0.45593999997E+02  0.45594000000E+02  0.51100000000E-03 0.  1.
    9900012    2    1    2    0    0 -0.61639883637E+01  0.35560245440E+02 -0.26955289928E+02  0.46142318038E+02  0.10000002529E+02 0.  0.
         12    1    1    2    0    0  0.61639883637E+01 -0.35560245440E+02  0.26955289928E+02  0.45045681962E+02  0.00000000000E+00 0. -1.
         11    1    3    3    0    0 -0.55484685446E+01  0.16745197702E+02 -0.90720948297E+01  0.19836583731E+02  0.51100000000E-03 0. -1.
        -11    1    3    3    0    0 -0.89478827563E+00  0.17836648620E+02 -0.15255066732E+02  0.23487523099E+02  0.51100000000E-03 0.  1.
         12    1    3    3    0    0  0.27926845655E+00  0.97839911734E+00 -0.26281283665E+01  0.28182112083E+01  0.00000000000E+00 0. -1.
</event>
<event>
 7    1  0.2353206E-008  0.4614232E+02  0.7816164E-02  0.1320468E+00
        -11   -1    0    0    0    0  0.00000000000E+00  0.00000000000E+00  0.45593999997E+02  0.45594000000E+02  0.51100000000E-03 0.  1.
         11   -1    0    0    0    0 -0.00000000000E+00 -0.00000000000E+00 -0.45593999997E+02  0.45594000000E+02  0.51100000000E-03 0. -1.
    9900012    2    1    2    0    0 -0.34980962644E+01  0.43909669202E+02 -0.94243179359E+01  0.46142317683E+02  0.99999992843E+01 0.  0.
         12    1    1    2    0    0  0.34980962644E+01 -0.43909669202E+02  0.94243179359E+01  0.45045682317E+02  0.00000000000E+00 0. -1.
         11    1    3    3    0    0 -0.13402932029E+01  0.21221441299E+02 -0.40231306037E+01  0.21640968943E+02  0.51100000000E-03 0. -1.
        -11    1    3    3    0    0 -0.33945587443E+01  0.14779089223E+02 -0.63505281086E+01  0.16440003493E+02  0.51100000000E-03 0.  1.
         12    1    3    3    0    0  0.12367556828E+01  0.79091386807E+01  0.94934077650E+00  0.80613452475E+01  0.00000000000E+00 0. -1.
</event>
<event>
 7    1  0.2353206E-008  0.4614232E+02  0.7816164E-02  0.1320468E+00
        -11   -1    0    0    0    0  0.00000000000E+00  0.00000000000E+00  0.45593999997E+02  0.45594000000E+02  0.51100000000E-03 0.  1.
         11   -1    0    0    0    0 -0.00000000000E+00 -0.00000000000E+00 -0.45593999997E+02  0.45594000000E+02  0.51100000000E-03 0. -1.
    9900012    2    1    2    0    0 -0.13915504950E+02 -0.16311341089E+01  0.42811349042E+02  0.46142317817E+02  0.10000000513E+02 0.  0.
         12    1    1    2    0    0  0.13915504950E+02  0.16311341089E+01 -0.42811349042E+02  0.45045682183E+02  0.00000000000E+00 0. -1.
         11    1    3    3    0    0 -0.62313610609E+01  0.86913763607E+00  0.84819573123E+01  0.10560722561E+02  0.51100000000E-03 0. -1.
        -11    1    3    3    0    0 -0.47664754015E+01 -0.35858963548E+01  0.26344502150E+02  0.27011307525E+02  0.51100000000E-03 0.  1.
        -12    1    3    3    0    0 -0.29176684877E+01  0.10856246098E+01  0.79848895793E+01  0.85702877309E+01  0.00000000000E+00 0.  1.
</event>
<event>
 7    1  0.2353206E-008  0.4614232E+02  0.7816164E-02  0.1320468E+00
        -11   -1    0    0    0    0  0.00000000000E+00  0.00000000000E+00  0.45593999997E+02  0.45594000000E+02  0.51100000000E-03 0. -1.
         11   -1    0    0    0    0 -0.00000000000E+00 -0.00000000000E+00 -0.45593999997E+02  0.45594000000E+02  0.51100000000E-03 0.  1.
    9900012    2    1    2    0    0 -0.25474574108E+02  0.36633612805E+02 -0.61755912606E+01  0.46142318292E+02  0.10000004840E+02 0.  0.
         12    1    1    2    0    0  0.25474574108E+02 -0.36633612805E+02  0.61755912606E+01  0.45045681708E+02  0.00000000000E+00 0. -1.
         11    1    3    3    0    0 -0.23667524292E+01  0.54835130646E+01 -0.88907122552E+00  0.60382845657E+01  0.51100000000E-03 0.  1.
        -11    1    3    3    0    0 -0.14663724154E+01  0.52380983297E+01 -0.31272540000E+01  0.62743637139E+01  0.51100000000E-03 0. -1.
        -12    1    3    3    0    0 -0.21641449264E+02  0.25912001411E+02 -0.21592660351E+01  0.33829670012E+02  0.00000000000E+00 0.  1.
</event>
<event>
 7    1  0.2353206E-008  0.4614232E+02  0.7816164E-02  0.1320468E+00
        -11   -1    0    0    0    0  0.00000000000E+00  0.00000000000E+00  0.45593999997E+02  0.45594000000E+02  0.51100000000E-03 0.  1.
         11   -1    0    0    0    0 -0.00000000000E+00 -0.00000000000E+00 -0.45593999997E+02  0.45594000000E+02  0.51100000000E-03 0. -1.
    9900012    2    1    2    0    0  0.10453965392E+02 -0.36355830270E+02  0.24455709115E+02  0.46142317684E+02  0.99999992963E+01 0.  0.
         12    1    1    2    0    0 -0.10453965392E+02  0.36355830270E+02 -0.24455709115E+02  0.45045682316E+02  0.00000000000E+00 0. -1.
         11    1    3    3    0    0  0.10628556477E+01 -0.90842528829E+00 -0.16020160273E+00  0.14073249259E+01  0.51100000000E-03 0. -1.
        -11    1    3    3    0    0 -0.19046050269E+00 -0.11703097596E+02  0.67248470307E+01  0.13498975383E+02  0.51100000000E-03 0.  1.
         12    1    3    3    0    0  0.95815702465E+01 -0.23744307385E+02  0.17891063687E+02  0.31236017375E+02  0.00000000000E+00 0. -1.
</event>
<event>
 7    1  0.2353206E-008  0.4614232E+02  0.7816164E-02  0.1320468E+00
        -11   -1    0    0    0    0  0.00000000000E+00  0.00000000000E+00  0.45593999997E+02  0.45594000000E+02  0.51100000000E-03 0. -1.
         11   -1    0    0    0    0 -0.00000000000E+00 -0.00000000000E+00 -0.45593999997E+02  0.45594000000E+02  0.51100000000E-03 0.  1.
    9900012    2    1    2    0    0  0.39697284327E+02  0.20900173616E+02 -0.40524073667E+01  0.46142316016E+02  0.99999840902E+01 0.  0.
         12    1    1    2    0    0 -0.39697284327E+02 -0.20900173616E+02  0.40524073667E+01  0.45045683984E+02  0.00000000000E+00 0. -1.
         11    1    3    3    0    0  0.12687190605E+02  0.45811735139E+01  0.12461970641E+00  0.13489532480E+02  0.51100000000E-03 0. -1.
        -11    1    3    3    0    0  0.76029961752E+01  0.73290921154E+01  0.11166878326E+01  0.10619234156E+02  0.51100000000E-03 0.  1.
        -12    1    3    3    0    0  0.19407097547E+02  0.89899079862E+01 -0.52937149056E+01  0.22033549380E+02  0.00000000000E+00 0.  1.
</event>
<event>
 7    1  0.2353206E-008  0.4614232E+02  0.7816164E-02  0.1320468E+00
        -11   -1    0    0    0    0  0.00000000000E+00  0.00000000000E+00  0.45593999997E+02  0.45594000000E+02  0.51100000000E-03 0.  1.
         11   -1    0    0    0    0 -0.00000000000E+00 -0.00000000000E+00 -0.45593999997E+02  0.45594000000E+02  0.51100000000E-03 0. -1.
    9900012    2    1    2    0    0 -0.19093230759E+02  0.26526011412E+02  0.30998915151E+02  0.46142317823E+02  0.10000000565E+02 0.  0.
         12    1    1    2    0    0  0.19093230759E+02 -0.26526011412E+02 -0.30998915151E+02  0.45045682177E+02  0.00000000000E+00 0. -1.
         11    1    3    3    0    0 -0.10500172668E+02  0.10454531511E+02  0.11428646009E+02  0.18712691015E+02  0.51100000000E-03 0. -1.
        -11    1    3    3    0    0 -0.77161271567E+01  0.15469935115E+02  0.19857330296E+02  0.26328142310E+02  0.51100000000E-03 0.  1.
         12    1    3    3    0    0 -0.87693093451E+00  0.60154478598E+00 -0.28706115345E+00  0.11014844980E+01  0.00000000000E+00 0. -1.
</event>
<event>
 7    1  0.2353206E-008  0.4614232E+02  0.7816164E-02  0.1320468E+00
        -11   -1    0    0    0    0  0.00000000000E+00  0.00000000000E+00  0.45593999997E+02  0.45594000000E+02  0.51100000000E-03 0.  1.
         11   -1    0    0    0    0 -0.00000000000E+00 -0.00000000000E+00 -0.45593999997E+02  0.45594000000E+02  0.51100000000E-03 0. -1.
    9900012    2    1    2    0    0 -0.31333096602E+02 -0.27101443337E+02  0.17687917874E+02  0.46142316385E+02  0.99999874536E+01 0.  0.
         12    1    1    2    0    0  0.31333096602E+02  0.27101443337E+02 -0.17687917874E+02  0.45045683615E+02  0.00000000000E+00 0. -1.
         11    1    3    3    0    0 -0.18829250593E+02 -0.11630016842E+02  0.10309608137E+02  0.24414872308E+02  0.51100000000E-03 0. -1.
        -11    1    3    3    0    0 -0.71700808042E+01 -0.61746527874E+01  0.51754344964E+01  0.10785245397E+02  0.51100000000E-03 0.  1.
        -12    1    3    3    0    0 -0.53337652051E+01 -0.92967737072E+01  0.22028752402E+01  0.10942198680E+02  0.00000000000E+00 0.  1.
</event>
<event>
 7    1  0.2353206E-008  0.4614232E+02  0.7816164E-02  0.1320468E+00
        -11   -1    0    0    0    0  0.00000000000E+00  0.00000000000E+00  0.45593999997E+02  0.45594000000E+02  0.51100000000E-03 0.  1.
         11   -1    0    0    0    0 -0.00000000000E+00 -0.00000000000E+00 -0.45593999997E+02  0.45594000000E+02  0.51100000000E-03 0. -1.
    9900012    2    1    2    0    0 -0.21494732357E+02  0.23170574161E+02  0.32096953057E+02  0.46142318502E+02  0.10000006755E+02 0.  0.
         12    1    1    2    0    0  0.21494732357E+02 -0.23170574161E+02 -0.32096953057E+02  0.45045681498E+02  0.00000000000E+00 0. -1.
         11    1    3    3    0    0 -0.10120212826E+02  0.11198886213E+02  0.10332815503E+02  0.18292097652E+02  0.51100000000E-03 0. -1.
        -11    1    3    3    0    0 -0.17116397539E+01  0.48847606776E+01  0.46504118106E+01  0.69582273457E+01  0.51100000000E-03 0.  1.
        -12    1    3    3    0    0 -0.96628797774E+01  0.70869272710E+01  0.17113725744E+02  0.20891993504E+02  0.00000000000E+00 0.  1.
</event>
<event>
 7    1  0.2353206E-008  0.4614232E+02  0.7816164E-02  0.1320468E+00
        -11   -1    0    0    0    0  0.00000000000E+00  0.00000000000E+00  0.45593999997E+02  0.45594000000E+02  0.51100000000E-03 0. -1.
         11   -1    0    0    0    0 -0.00000000000E+00 -0.00000000000E+00 -0.45593999997E+02  0.45594000000E+02  0.51100000000E-03 0.  1.
    9900012    2    1    2    0    0 -0.20648751528E+02 -0.25631132313E+02 -0.30753660108E+02  0.46142317706E+02  0.99999994940E+01 0.  0.
         12    1    1    2    0    0  0.20648751528E+02  0.25631132313E+02  0.30753660108E+02  0.45045682294E+02  0.00000000000E+00 0. -1.
         11    1    3    3    0    0 -0.60424158050E+01 -0.66889821825E+01 -0.43514200730E+01  0.10009401996E+02  0.51100000000E-03 0. -1.
        -11    1    3    3    0    0 -0.35285132299E+01 -0.70524353278E+01 -0.53122125308E+01  0.95082517793E+01  0.51100000000E-03 0.  1.
         12    1    3    3    0    0 -0.11077822493E+02 -0.11889714803E+02 -0.21090027504E+02  0.26624663931E+02  0.00000000000E+00 0. -1.
</event>
<event>
 7    1  0.2353206E-008  0.4614232E+02  0.7816164E-02  0.1320468E+00
        -11   -1    0    0    0    0  0.00000000000E+00  0.00000000000E+00  0.45593999997E+02  0.45594000000E+02  0.51100000000E-03 0.  1.
         11   -1    0    0    0    0 -0.00000000000E+00 -0.00000000000E+00 -0.45593999997E+02  0.45594000000E+02  0.51100000000E-03 0. -1.
    9900012    2    1    2    0    0  0.26230191803E+02  0.35190802939E+02  0.10133996746E+02  0.46142318036E+02  0.10000002511E+02 0.  0.
         12    1    1    2    0    0 -0.26230191803E+02 -0.35190802939E+02 -0.10133996746E+02  0.45045681964E+02  0.00000000000E+00 0. -1.
         11    1    3    3    0    0  0.13765195383E+02  0.22556550363E+02  0.36694592008E+01  0.26678521310E+02  0.51100000000E-03 0.  1.
        -11    1    3    3    0    0  0.88389031060E+01  0.10908410906E+02  0.34925257575E+01  0.14467804707E+02  0.51100000000E-03 0. -1.
         12    1    3    3    0    0  0.36260933141E+01  0.17258416706E+01  0.29720117880E+01  0.49959920198E+01  0.00000000000E+00 0. -1.
</event>
<event>
 7    1  0.2353206E-008  0.4614232E+02  0.7816164E-02  0.1320468E+00
        -11   -1    0    0    0    0  0.00000000000E+00  0.00000000000E+00  0.45593999997E+02  0.45594000000E+02  0.51100000000E-03 0.  1.
         11   -1    0    0    0    0 -0.00000000000E+00 -0.00000000000E+00 -0.45593999997E+02  0.45594000000E+02  0.51100000000E-03 0. -1.
    9900012    2    1    2    0    0 -0.20664655329E+02 -0.34543868345E+02  0.20218969610E+02  0.46142317052E+02  0.99999935381E+01 0.  0.
         12    1    1    2    0    0  0.20664655329E+02  0.34543868345E+02 -0.20218969610E+02  0.45045682948E+02  0.00000000000E+00 0. -1.
         11    1    3    3    0    0 -0.59787464956E+01 -0.11786209340E+02  0.64181718690E+01  0.14691938969E+02  0.51100000000E-03 0. -1.
        -11    1    3    3    0    0 -0.14416930186E+01 -0.86805483236E+01  0.57565179922E+01  0.10515127085E+02  0.51100000000E-03 0.  1.
         12    1    3    3    0    0 -0.13244215815E+02 -0.14077110682E+02  0.80442797485E+01  0.20935250999E+02  0.00000000000E+00 0. -1.
</event>
<event>
 7    1  0.2353206E-008  0.4614232E+02  0.7816164E-02  0.1320468E+00
        -11   -1    0    0    0    0  0.00000000000E+00  0.00000000000E+00  0.45593999997E+02  0.45594000000E+02  0.51100000000E-03 0.  1.
         11   -1    0    0    0    0 -0.00000000000E+00 -0.00000000000E+00 -0.45593999997E+02  0.45594000000E+02  0.51100000000E-03 0. -1.
    9900012    2    1    2    0    0  0.17030959067E+02  0.12864238199E+02  0.39668265510E+02  0.46142317857E+02  0.10000000871E+02 0.  0.
         12    1    1    2    0    0 -0.17030959067E+02 -0.12864238199E+02 -0.39668265510E+02  0.45045682143E+02  0.00000000000E+00 0. -1.
         11    1    3    3    0    0  0.21791517410E+01  0.58448387390E+00  0.53284261562E+00  0.23182418389E+01  0.51100000000E-03 0. -1.
        -11    1    3    3    0    0  0.88912232040E+01  0.51455479922E+01  0.17808559483E+02  0.20559068688E+02  0.51100000000E-03 0.  1.
         12    1    3    3    0    0  0.59605841216E+01  0.71342063333E+01  0.21326863412E+02  0.23265007330E+02  0.00000000000E+00 0. -1.
</event>
<event>
 7    1  0.2353206E-008  0.4614231E+02  0.7816164E-02  0.1320468E+00
        -11   -1    0    0    0    0  0.00000000000E+00  0.00000000000E+00  0.45593999997E+02  0.45594000000E+02  0.51100000000E-03 0.  1.
         11   -1    0    0    0    0 -0.00000000000E+00 -0.00000000000E+00 -0.45593999997E+02  0.45594000000E+02  0.51100000000E-03 0. -1.
    9900012    2    1    2    0    0  0.90777949092E+01  0.30805609922E+02  0.31586742728E+02  0.46142308983E+02  0.99999199530E+01 0.  0.
         12    1    1    2    0    0 -0.90777949092E+01 -0.30805609922E+02 -0.31586742728E+02  0.45045691017E+02  0.00000000000E+00 0. -1.
         11    1    3    3    0    0  0.39465062865E+01  0.10203406870E+02  0.74490508945E+01  0.13235285532E+02  0.51100000000E-03 0. -1.
        -11    1    3    3    0    0  0.31163554570E+01  0.31336673489E+01  0.26955931588E+01  0.51766557860E+01  0.51100000000E-03 0.  1.
        -12    1    3    3    0    0  0.20149331657E+01  0.17468535702E+02  0.21442098675E+02  0.27730367665E+02  0.00000000000E+00 0.  1.
</event>
<event>
 7    1  0.2353206E-008  0.4614232E+02  0.7816164E-02  0.1320468E+00
        -11   -1    0    0    0    0  0.00000000000E+00  0.00000000000E+00  0.45593999997E+02  0.45594000000E+02  0.51100000000E-03 0.  1.
         11   -1    0    0    0    0 -0.00000000000E+00 -0.00000000000E+00 -0.45593999997E+02  0.45594000000E+02  0.51100000000E-03 0. -1.
    9900012    2    1    2    0    0  0.19524537410E+02  0.33295472271E+02  0.23223205889E+02  0.46142319557E+02  0.10000016375E+02 0.  0.
         12    1    1    2    0    0 -0.19524537410E+02 -0.33295472271E+02 -0.23223205889E+02  0.45045680443E+02  0.00000000000E+00 0. -1.
         11    1    3    3    0    0  0.17633298594E+01  0.74961031478E+01  0.21298372490E+01  0.79898123610E+01  0.51100000000E-03 0. -1.
        -11    1    3    3    0    0  0.27057219139E+01  0.47481102682E+01  0.63076994873E+01  0.83458106423E+01  0.51100000000E-03 0.  1.
        -12    1    3    3    0    0  0.15055485636E+02  0.21051258855E+02  0.14785669153E+02  0.29806696553E+02  0.00000000000E+00 0.  1.
</event>
<event>
 7    1  0.2353206E-008  0.4614232E+02  0.7816164E-02  0.1320468E+00
        -11   -1    0    0    0    0  0.00000000000E+00  0.00000000000E+00  0.45593999997E+02  0.45594000000E+02  0.51100000000E-03 0. -1.
         11   -1    0    0    0    0 -0.00000000000E+00 -0.00000000000E+00 -0.45593999997E+02  0.45594000000E+02  0.51100000000E-03 0.  1.
    9900012    2    1    2    0    0  0.42665685984E+02 -0.98274543202E+01 -0.10591216788E+02  0.46142317721E+02  0.99999996378E+01 0.  0.
         12    1    1    2    0    0 -0.42665685984E+02  0.98274543202E+01  0.10591216788E+02  0.45045682279E+02  0.00000000000E+00 0. -1.
         11    1    3    3    0    0  0.11179507229E+02 -0.84238624360E+00 -0.50586245164E+01  0.12299621081E+02  0.51100000000E-03 0. -1.
        -11    1    3    3    0    0  0.14236424238E+02 -0.63907248122E+01 -0.50156762417E+01  0.16391282657E+02  0.51100000000E-03 0.  1.
         12    1    3    3    0    0  0.17249754516E+02 -0.25943432644E+01 -0.51691603038E+00  0.17451413984E+02  0.00000000000E+00 0. -1.
</event>
<event>
 7    1  0.2353206E-008  0.4614232E+02  0.7816164E-02  0.1320468E+00
        -11   -1    0    0    0    0  0.00000000000E+00  0.00000000000E+00  0.45593999997E+02  0.45594000000E+02  0.51100000000E-03 0.  1.
         11   -1    0    0    0    0 -0.00000000000E+00 -0.00000000000E+00 -0.45593999997E+02  0.45594000000E+02  0.51100000000E-03 0. -1.
    9900012    2    1    2    0    0  0.12420961696E+01 -0.20901947653E+02  0.39883321030E+02  0.46142317466E+02  0.99999973086E+01 0.  0.
         12    1    1    2    0    0 -0.12420961696E+01  0.20901947653E+02 -0.39883321030E+02  0.45045682534E+02  0.00000000000E+00 0. -1.
         11    1    3    3    0    0  0.24159687406E+01 -0.19552827624E+01  0.21195039442E+01  0.37619586477E+01  0.51100000000E-03 0. -1.
        -11    1    3    3    0    0 -0.18373159180E+01 -0.72571961569E+01  0.13402695797E+02  0.15351706118E+02  0.51100000000E-03 0.  1.
         12    1    3    3    0    0  0.66344334704E+00 -0.11689468734E+02  0.24361121289E+02  0.27028652701E+02  0.00000000000E+00 0. -1.
</event>
<event>
 7    1  0.2353206E-008  0.4614232E+02  0.7816164E-02  0.1320468E+00
        -11   -1    0    0    0    0  0.00000000000E+00  0.00000000000E+00  0.45593999997E+02  0.45594000000E+02  0.51100000000E-03 0.  1.
         11   -1    0    0    0    0 -0.00000000000E+00 -0.00000000000E+00 -0.45593999997E+02  0.45594000000E+02  0.51100000000E-03 0. -1.
    9900012    2    1    2    0    0 -0.27961272686E+02 -0.27097374303E+02  0.22649791513E+02  0.46142317411E+02  0.99999968080E+01 0.  0.
         12    1    1    2    0    0  0.27961272686E+02  0.27097374303E+02 -0.22649791513E+02  0.45045682589E+02  0.00000000000E+00 0. -1.
         11    1    3    3    0    0 -0.33146809996E+01 -0.74356841706E+01  0.46709692882E+01  0.93858650942E+01  0.51100000000E-03 0. -1.
        -11    1    3    3    0    0 -0.11953973639E+02 -0.94499931600E+01  0.53709640320E+01  0.16156952416E+02  0.51100000000E-03 0.  1.
        -12    1    3    3    0    0 -0.12692618047E+02 -0.10211696972E+02  0.12607858192E+02  0.20599499900E+02  0.00000000000E+00 0.  1.
</event>
<event>
 7    1  0.2353206E-008  0.4614232E+02  0.7816164E-02  0.1320468E+00
        -11   -1    0    0    0    0  0.00000000000E+00  0.00000000000E+00  0.45593999997E+02  0.45594000000E+02  0.51100000000E-03 0. -1.
         11   -1    0    0    0    0 -0.00000000000E+00 -0.00000000000E+00 -0.45593999997E+02  0.45594000000E+02  0.51100000000E-03 0.  1.
    9900012    2    1    2    0    0 -0.37212680317E+02  0.21021188892E+02 -0.14228124220E+02  0.46142317880E+02  0.10000001086E+02 0.  0.
         12    1    1    2    0    0  0.37212680317E+02 -0.21021188892E+02  0.14228124220E+02  0.45045682120E+02  0.00000000000E+00 0. -1.
         11    1    3    3    0    0 -0.43868975452E+01  0.19163029744E+01 -0.16811275170E+00  0.47901304075E+01  0.51100000000E-03 0. -1.
        -11    1    3    3    0    0 -0.30015596485E+02  0.19151085325E+02 -0.14614496656E+02  0.38487447489E+02  0.51100000000E-03 0.  1.
        -12    1    3    3    0    0 -0.28101862870E+01 -0.46199406869E-01  0.55448518723E+00  0.28647399840E+01  0.00000000000E+00 0.  1.
</event>
<event>
 7    1  0.2353206E-008  0.4614232E+02  0.7816164E-02  0.1320468E+00
        -11   -1    0    0    0    0  0.00000000000E+00  0.00000000000E+00  0.45593999997E+02  0.45594000000E+02  0.51100000000E-03 0. -1.
         11   -1    0    0    0    0 -0.00000000000E+00 -0.00000000000E+00 -0.45593999997E+02  0.45594000000E+02  0.51100000000E-03 0.  1.
    9900012    2    1    2    0    0 -0.15323935724E+02 -0.22120750684E+02 -0.36124269263E+02  0.46142318223E+02  0.10000004213E+02 0.  0.
         12    1    1    2    0    0  0.15323935724E+02  0.22120750684E+02  0.36124269263E+02  0.45045681777E+02  0.00000000000E+00 0. -1.
         11    1    3    3    0    0  0.27536342697E+00 -0.15427152982E+01 -0.50639648941E+01  0.53008995669E+01  0.51100000000E-03 0. -1.
        -11    1    3    3    0    0 -0.81793118479E+01 -0.92387835731E+01 -0.19253791247E+02  0.22868422374E+02  0.51100000000E-03 0.  1.
         12    1    3    3    0    0 -0.74199873034E+01 -0.11339251813E+02 -0.11806513122E+02  0.17972996282E+02  0.00000000000E+00 0. -1.
</event>
<event>
 7    1  0.2353206E-008  0.4614232E+02  0.7816164E-02  0.1320468E+00
        -11   -1    0    0    0    0  0.00000000000E+00  0.00000000000E+00  0.45593999997E+02  0.45594000000E+02  0.51100000000E-03 0.  1.
         11   -1    0    0    0    0 -0.00000000000E+00 -0.00000000000E+00 -0.45593999997E+02  0.45594000000E+02  0.51100000000E-03 0. -1.
    9900012    2    1    2    0    0 -0.10276421461E+02  0.21948382805E+02  0.37970738109E+02  0.46142319870E+02  0.10000019232E+02 0.  0.
         12    1    1    2    0    0  0.10276421461E+02 -0.21948382805E+02 -0.37970738109E+02  0.45045680130E+02  0.00000000000E+00 0. -1.
         11    1    3    3    0    0 -0.36200227314E+01  0.41106527339E+01  0.37711100236E+01  0.66500602663E+01  0.51100000000E-03 0. -1.
        -11    1    3    3    0    0 -0.45737615075E+01  0.51575634375E+01  0.12388366528E+02  0.14177142886E+02  0.51100000000E-03 0.  1.
        -12    1    3    3    0    0 -0.20826372217E+01  0.12680166634E+02  0.21811261558E+02  0.25315116717E+02  0.00000000000E+00 0.  1.
</event>
<event>
 7    1  0.2353206E-008  0.4614232E+02  0.7816164E-02  0.1320468E+00
        -11   -1    0    0    0    0  0.00000000000E+00  0.00000000000E+00  0.45593999997E+02  0.45594000000E+02  0.51100000000E-03 0.  1.
         11   -1    0    0    0    0 -0.00000000000E+00 -0.00000000000E+00 -0.45593999997E+02  0.45594000000E+02  0.51100000000E-03 0. -1.
    9900012    2    1    2    0    0  0.26751694353E+02  0.13642465596E+01  0.36216005208E+02  0.46142319268E+02  0.10000013738E+02 0.  0.
         12    1    1    2    0    0 -0.26751694353E+02 -0.13642465596E+01 -0.36216005208E+02  0.45045680732E+02  0.00000000000E+00 0. -1.
         11    1    3    3    0    0  0.74107986689E+01 -0.38589999957E+01  0.97154012001E+01  0.12814087506E+02  0.51100000000E-03 0. -1.
        -11    1    3    3    0    0  0.66134628017E+01  0.29746310306E+01  0.85977371898E+01  0.11247551069E+02  0.51100000000E-03 0.  1.
         12    1    3    3    0    0  0.12727432883E+02  0.22486155247E+01  0.17902866818E+02  0.22080680693E+02  0.00000000000E+00 0. -1.
</event>
<event>
 7    1  0.2353206E-008  0.4614232E+02  0.7816164E-02  0.1320468E+00
        -11   -1    0    0    0    0  0.00000000000E+00  0.00000000000E+00  0.45593999997E+02  0.45594000000E+02  0.51100000000E-03 0.  1.
         11   -1    0    0    0    0 -0.00000000000E+00 -0.00000000000E+00 -0.45593999997E+02  0.45594000000E+02  0.51100000000E-03 0. -1.
    9900012    2    1    2    0    0 -0.25680890414E+02 -0.32825592380E+02  0.17090518915E+02  0.46142317806E+02  0.10000000406E+02 0.  0.
         12    1    1    2    0    0  0.25680890414E+02  0.32825592380E+02 -0.17090518915E+02  0.45045682194E+02  0.00000000000E+00 0. -1.
         11    1    3    3    0    0  0.68041304138E+00  0.31688314326E-01  0.31771812125E+00  0.75160569572E+00  0.51100000000E-03 0. -1.
        -11    1    3    3    0    0 -0.21003247591E+01 -0.18245220548E+01  0.12860551074E+01  0.30649931195E+01  0.51100000000E-03 0.  1.
         12    1    3    3    0    0 -0.24260978696E+02 -0.31032758640E+02  0.15486745686E+02  0.42325718990E+02  0.00000000000E+00 0. -1.
</event>
<event>
 7    1  0.2353206E-008  0.4614232E+02  0.7816164E-02  0.1320468E+00
        -11   -1    0    0    0    0  0.00000000000E+00  0.00000000000E+00  0.45593999997E+02  0.45594000000E+02  0.51100000000E-03 0.  1.
         11   -1    0    0    0    0 -0.00000000000E+00 -0.00000000000E+00 -0.45593999997E+02  0.45594000000E+02  0.51100000000E-03 0. -1.
    9900012    2    1    2    0    0 -0.41398305664E+02  0.12439210813E+02  0.12671221177E+02  0.46142317370E+02  0.99999964334E+01 0.  0.
         12    1    1    2    0    0  0.41398305664E+02 -0.12439210813E+02 -0.12671221177E+02  0.45045682630E+02  0.00000000000E+00 0. -1.
         11    1    3    3    0    0 -0.71084655064E+01  0.35889771776E+01  0.36681377726E+00  0.79715488862E+01  0.51100000000E-03 0. -1.
        -11    1    3    3    0    0 -0.20983333317E+02  0.88753510146E+01  0.68600527764E+01  0.23793538137E+02  0.51100000000E-03 0.  1.
         12    1    3    3    0    0 -0.13306506841E+02 -0.25117379247E-01  0.54443546228E+01  0.14377230347E+02  0.00000000000E+00 0. -1.
</event>
<event>
 7    1  0.2353206E-008  0.4614232E+02  0.7816164E-02  0.1320468E+00
        -11   -1    0    0    0    0  0.00000000000E+00  0.00000000000E+00  0.45593999997E+02  0.45594000000E+02  0.51100000000E-03 0.  1.
         11   -1    0    0    0    0 -0.00000000000E+00 -0.00000000000E+00 -0.45593999997E+02  0.45594000000E+02  0.51100000000E-03 0. -1.
    9900012    2    1    2    0    0 -0.56771184476E+01  0.35597117817E+02  0.27013496315E+02  0.46142318143E+02  0.10000003483E+02 0.  0.
         12    1    1    2    0    0  0.56771184476E+01 -0.35597117817E+02 -0.27013496315E+02  0.45045681857E+02  0.00000000000E+00 0. -1.
         11    1    3    3    0    0  0.33500516225E+00  0.53062269002E+01  0.76571568700E+01  0.93220343256E+01  0.51100000000E-03 0. -1.
        -11    1    3    3    0    0  0.38497427847E+00  0.30287774218E+01  0.58648929983E+00  0.31089657164E+01  0.51100000000E-03 0.  1.
        -12    1    3    3    0    0 -0.63970978883E+01  0.27262113495E+02  0.18769850146E+02  0.33711318101E+02  0.00000000000E+00 0.  1.
</event>
<event>
 7    1  0.2353206E-008  0.4614232E+02  0.7816164E-02  0.1320468E+00
        -11   -1    0    0    0    0  0.00000000000E+00  0.00000000000E+00  0.45593999997E+02  0.45594000000E+02  0.51100000000E-03 0. -1.
         11   -1    0    0    0    0 -0.00000000000E+00 -0.00000000000E+00 -0.45593999997E+02  0.45594000000E+02  0.51100000000E-03 0.  1.
    9900012    2    1    2    0    0  0.97407819257E+01 -0.43867339115E+02 -0.31443918869E+01  0.46142317922E+02  0.10000001468E+02 0.  0.
         12    1    1    2    0    0 -0.97407819257E+01  0.43867339115E+02  0.31443918869E+01  0.45045682078E+02  0.00000000000E+00 0. -1.
         11    1    3    3    0    0  0.39331412516E+01 -0.78240776542E+01 -0.21192431258E+01  0.90098270201E+01  0.51100000000E-03 0. -1.
        -11    1    3    3    0    0  0.35710574135E+01 -0.65576494932E+01  0.77730496996E+00  0.75072912028E+01  0.51100000000E-03 0.  1.
         12    1    3    3    0    0  0.22365832606E+01 -0.29485611967E+02 -0.18024537311E+01  0.29625199699E+02  0.00000000000E+00 0. -1.
</event>
<event>
 7    1  0.2353206E-008  0.4614232E+02  0.7816164E-02  0.1320468E+00
        -11   -1    0    0    0    0  0.00000000000E+00  0.00000000000E+00  0.45593999997E+02  0.45594000000E+02  0.51100000000E-03 0.  1.
         11   -1    0    0    0    0 -0.00000000000E+00 -0.00000000000E+00 -0.45593999997E+02  0.45594000000E+02  0.51100000000E-03 0. -1.
    9900012    2    1    2    0    0  0.17244582049E+02 -0.15301752560E+02  0.38698762382E+02  0.46142318172E+02  0.10000003748E+02 0.  0.
         12    1    1    2    0    0 -0.17244582049E+02  0.15301752560E+02 -0.38698762382E+02  0.45045681828E+02  0.00000000000E+00 0. -1.
         11    1    3    3    0    0  0.45951809609E+00 -0.13110463148E+00  0.41392212317E-01  0.47964453650E+00  0.51100000000E-03 0. -1.
        -11    1    3    3    0    0  0.15889003871E+02 -0.16186800250E+02  0.34484142976E+02  0.41275041652E+02  0.51100000000E-03 0.  1.
        -12    1    3    3    0    0  0.89606008173E+00  0.10161523217E+01  0.41732271942E+01  0.43876319838E+01  0.00000000000E+00 0.  1.
</event>
<event>
 7    1  0.2353206E-008  0.4614232E+02  0.7816164E-02  0.1320468E+00
        -11   -1    0    0    0    0  0.00000000000E+00  0.00000000000E+00  0.45593999997E+02  0.45594000000E+02  0.51100000000E-03 0.  1.
         11   -1    0    0    0    0 -0.00000000000E+00 -0.00000000000E+00 -0.45593999997E+02  0.45594000000E+02  0.51100000000E-03 0. -1.
    9900012    2    1    2    0    0  0.12543167419E+02  0.32971417659E+02  0.28011923295E+02  0.46142320095E+02  0.10000021285E+02 0.  0.
         12    1    1    2    0    0 -0.12543167419E+02 -0.32971417659E+02 -0.28011923295E+02  0.45045679905E+02  0.00000000000E+00 0. -1.
         11    1    3    3    0    0 -0.62358034708E+00  0.81536875491E+01  0.38677590949E+01  0.90460507281E+01  0.51100000000E-03 0. -1.
        -11    1    3    3    0    0  0.34327794715E+01  0.71251509619E+01  0.79176610611E+01  0.11191117374E+02  0.51100000000E-03 0.  1.
         12    1    3    3    0    0  0.97339682942E+01  0.17692579148E+02  0.16226503140E+02  0.25905151994E+02  0.00000000000E+00 0. -1.
</event>
<event>
 7    1  0.2353206E-008  0.4614232E+02  0.7816164E-02  0.1320468E+00
        -11   -1    0    0    0    0  0.00000000000E+00  0.00000000000E+00  0.45593999997E+02  0.45594000000E+02  0.51100000000E-03 0. -1.
         11   -1    0    0    0    0 -0.00000000000E+00 -0.00000000000E+00 -0.45593999997E+02  0.45594000000E+02  0.51100000000E-03 0.  1.
    9900012    2    1    2    0    0 -0.34283959772E+02  0.14407943563E+02 -0.25419169298E+02  0.46142324257E+02  0.10000059231E+02 0.  0.
         12    1    1    2    0    0  0.34283959772E+02 -0.14407943563E+02  0.25419169298E+02  0.45045675743E+02  0.00000000000E+00 0. -1.
         11    1    3    3    0    0 -0.10773255491E+02  0.25681617990E+00 -0.64248058884E+01  0.12546199400E+02  0.51100000000E-03 0. -1.
        -11    1    3    3    0    0 -0.14522287527E+02  0.68390266489E+01 -0.98276065962E+01  0.18821556051E+02  0.51100000000E-03 0.  1.
         12    1    3    3    0    0 -0.89884167535E+01  0.73121007344E+01 -0.91667568138E+01  0.14774568805E+02  0.00000000000E+00 0. -1.
</event>
<event>
 7    1  0.2353206E-008  0.4614232E+02  0.7816164E-02  0.1320468E+00
        -11   -1    0    0    0    0  0.00000000000E+00  0.00000000000E+00  0.45593999997E+02  0.45594000000E+02  0.51100000000E-03 0.  1.
         11   -1    0    0    0    0 -0.00000000000E+00 -0.00000000000E+00 -0.45593999997E+02  0.45594000000E+02  0.51100000000E-03 0. -1.
    9900012    2    1    2    0    0 -0.51926217683E+01 -0.43090907488E+02  0.12055036576E+02  0.46142317234E+02  0.99999951973E+01 0.  0.
         12    1    1    2    0    0  0.51926217683E+01  0.43090907488E+02 -0.12055036576E+02  0.45045682766E+02  0.00000000000E+00 0. -1.
         11    1    3    3    0    0 -0.14938496180E+01 -0.62658091690E+01  0.35002562086E+01  0.73310125501E+01  0.51100000000E-03 0. -1.
        -11    1    3    3    0    0  0.16219557945E+01 -0.21008868672E+02  0.33844540375E+01  0.21341458078E+02  0.51100000000E-03 0.  1.
        -12    1    3    3    0    0 -0.53207279448E+01 -0.15816229647E+02  0.51703263301E+01  0.17469846607E+02  0.00000000000E+00 0.  1.
</event>
<event>
 7    1  0.2353206E-008  0.4614232E+02  0.7816164E-02  0.1320468E+00
        -11   -1    0    0    0    0  0.00000000000E+00  0.00000000000E+00  0.45593999997E+02  0.45594000000E+02  0.51100000000E-03 0.  1.
         11   -1    0    0    0    0 -0.00000000000E+00 -0.00000000000E+00 -0.45593999997E+02  0.45594000000E+02  0.51100000000E-03 0. -1.
    9900012    2    1    2    0    0  0.37928029653E+02  0.55526173567E+01  0.23658959755E+02  0.46142319080E+02  0.10000012022E+02 0.  0.
         12    1    1    2    0    0 -0.37928029653E+02 -0.55526173567E+01 -0.23658959755E+02  0.45045680920E+02  0.00000000000E+00 0. -1.
         11    1    3    3    0    0  0.12699866896E+02  0.25643106656E+01  0.58071346371E+01  0.14198067521E+02  0.51100000000E-03 0. -1.
        -11    1    3    3    0    0  0.10416386739E+02  0.48879826767E+01  0.87575108225E+01  0.14459857655E+02  0.51100000000E-03 0.  1.
        -12    1    3    3    0    0  0.14811776018E+02 -0.18996759857E+01  0.90943142954E+01  0.17484393903E+02  0.00000000000E+00 0.  1.
</event>
<event>
 7    1  0.2353206E-008  0.4614232E+02  0.7816164E-02  0.1320468E+00
        -11   -1    0    0    0    0  0.00000000000E+00  0.00000000000E+00  0.45593999997E+02  0.45594000000E+02  0.51100000000E-03 0. -1.
         11   -1    0    0    0    0 -0.00000000000E+00 -0.00000000000E+00 -0.45593999997E+02  0.45594000000E+02  0.51100000000E-03 0.  1.
    9900012    2    1    2    0    0 -0.42855402992E+02  0.45402375188E+01 -0.13111603337E+02  0.46142318027E+02  0.10000002422E+02 0.  0.
         12    1    1    2    0    0  0.42855402992E+02 -0.45402375188E+01  0.13111603337E+02  0.45045681973E+02  0.00000000000E+00 0. -1.
         11    1    3    3    0    0 -0.24017603691E+02  0.26862311118E+00 -0.47875789456E+01  0.24491597699E+02  0.51100000000E-03 0. -1.
        -11    1    3    3    0    0 -0.13406666418E+02  0.43756405896E+01 -0.38645696886E+01  0.14622579600E+02  0.51100000000E-03 0.  1.
         12    1    3    3    0    0 -0.54311328834E+01 -0.10402618204E+00 -0.44594547028E+01  0.70281407278E+01  0.00000000000E+00 0. -1.
</event>
<event>
 7    1  0.2353206E-008  0.4614232E+02  0.7816164E-02  0.1320468E+00
        -11   -1    0    0    0    0  0.00000000000E+00  0.00000000000E+00  0.45593999997E+02  0.45594000000E+02  0.51100000000E-03 0.  1.
         11   -1    0    0    0    0 -0.00000000000E+00 -0.00000000000E+00 -0.45593999997E+02  0.45594000000E+02  0.51100000000E-03 0. -1.
    9900012    2    1    2    0    0  0.11332817816E+02 -0.43443078889E+02 -0.36578075102E+01  0.46142318534E+02  0.10000007046E+02 0.  0.
         12    1    1    2    0    0 -0.11332817816E+02  0.43443078889E+02  0.36578075102E+01  0.45045681466E+02  0.00000000000E+00 0. -1.
         11    1    3    3    0    0 -0.32958131709E+00 -0.10438380220E+02 -0.14017372254E+01  0.10537232700E+02  0.51100000000E-03 0. -1.
        -11    1    3    3    0    0  0.55422494805E+01 -0.77400929290E+01 -0.96724813896E-01  0.95202375918E+01  0.51100000000E-03 0.  1.
         12    1    3    3    0    0  0.61201496529E+01 -0.25264605740E+02 -0.21593454709E+01  0.26084848242E+02  0.00000000000E+00 0. -1.
</event>
<event>
 7    1  0.2353206E-008  0.4614232E+02  0.7816164E-02  0.1320468E+00
        -11   -1    0    0    0    0  0.00000000000E+00  0.00000000000E+00  0.45593999997E+02  0.45594000000E+02  0.51100000000E-03 0.  1.
         11   -1    0    0    0    0 -0.00000000000E+00 -0.00000000000E+00 -0.45593999997E+02  0.45594000000E+02  0.51100000000E-03 0. -1.
    9900012    2    1    2    0    0  0.34106693955E+02  0.19497505122E+02  0.22038472375E+02  0.46142317153E+02  0.99999944532E+01 0.  0.
         12    1    1    2    0    0 -0.34106693955E+02 -0.19497505122E+02 -0.22038472375E+02  0.45045682847E+02  0.00000000000E+00 0. -1.
         11    1    3    3    0    0  0.12049096140E+02  0.89713246659E+01  0.49235429240E+01  0.15808436331E+02  0.51100000000E-03 0. -1.
        -11    1    3    3    0    0  0.31616541855E+01  0.15102478923E+01  0.36750310582E+00  0.35230618330E+01  0.51100000000E-03 0.  1.
        -12    1    3    3    0    0  0.18895943630E+02  0.90159325639E+01  0.16747426345E+02  0.26810818989E+02  0.00000000000E+00 0.  1.
</event>
<event>
 7    1  0.2353206E-008  0.4614231E+02  0.7816164E-02  0.1320468E+00
        -11   -1    0    0    0    0  0.00000000000E+00  0.00000000000E+00  0.45593999997E+02  0.45594000000E+02  0.51100000000E-03 0.  1.
         11   -1    0    0    0    0 -0.00000000000E+00 -0.00000000000E+00 -0.45593999997E+02  0.45594000000E+02  0.51100000000E-03 0. -1.
    9900012    2    1    2    0    0  0.31082797260E+02 -0.61778039615E+01  0.32012626862E+02  0.46142314015E+02  0.99999658369E+01 0.  0.
         12    1    1    2    0    0 -0.31082797260E+02  0.61778039615E+01 -0.32012626862E+02  0.45045685985E+02  0.00000000000E+00 0. -1.
         11    1    3    3    0    0  0.86149714655E+01 -0.41789908110E+01  0.94239034790E+01  0.13434718255E+02  0.51100000000E-03 0. -1.
        -11    1    3    3    0    0  0.15079830488E+02  0.82993428094E+00  0.11033231869E+02  0.18703536676E+02  0.51100000000E-03 0.  1.
        -12    1    3    3    0    0  0.73879953056E+01 -0.28287474315E+01  0.11555491514E+02  0.14004059083E+02  0.00000000000E+00 0.  1.
</event>
<event>
 7    1  0.2353206E-008  0.4614232E+02  0.7816164E-02  0.1320468E+00
        -11   -1    0    0    0    0  0.00000000000E+00  0.00000000000E+00  0.45593999997E+02  0.45594000000E+02  0.51100000000E-03 0. -1.
         11   -1    0    0    0    0 -0.00000000000E+00 -0.00000000000E+00 -0.45593999997E+02  0.45594000000E+02  0.51100000000E-03 0.  1.
    9900012    2    1    2    0    0  0.35132098336E+02  0.13685592101E+02 -0.24648606850E+02  0.46142316696E+02  0.99999902884E+01 0.  0.
         12    1    1    2    0    0 -0.35132098336E+02 -0.13685592101E+02  0.24648606850E+02  0.45045683304E+02  0.00000000000E+00 0. -1.
         11    1    3    3    0    0  0.29617347627E+02  0.83884369221E+01 -0.20713922559E+02  0.37102826610E+02  0.51100000000E-03 0. -1.
        -11    1    3    3    0    0  0.48025741105E+01  0.31410323463E+01 -0.35174787978E+01  0.67307844744E+01  0.51100000000E-03 0.  1.
         12    1    3    3    0    0  0.71217659929E+00  0.21561228323E+01 -0.41720549333E+00  0.23087056114E+01  0.00000000000E+00 0. -1.
</event>
<event>
 7    1  0.2353206E-008  0.4614232E+02  0.7816164E-02  0.1320468E+00
        -11   -1    0    0    0    0  0.00000000000E+00  0.00000000000E+00  0.45593999997E+02  0.45594000000E+02  0.51100000000E-03 0. -1.
         11   -1    0    0    0    0 -0.00000000000E+00 -0.00000000000E+00 -0.45593999997E+02  0.45594000000E+02  0.51100000000E-03 0.  1.
    9900012    2    1    2    0    0 -0.19169101221E+02  0.39582094091E+02 -0.97425283792E+01  0.46142317927E+02  0.10000001509E+02 0.  0.
         12    1    1    2    0    0  0.19169101221E+02 -0.39582094091E+02  0.97425283792E+01  0.45045682073E+02  0.00000000000E+00 0. -1.
         11    1    3    3    0    0 -0.44051885757E+01  0.55387855256E+01 -0.24274955900E+01  0.74817488990E+01  0.51100000000E-03 0. -1.
        -11    1    3    3    0    0 -0.12906150146E+02  0.20138517477E+02 -0.40914782367E+01  0.24266618887E+02  0.51100000000E-03 0.  1.
         12    1    3    3    0    0 -0.18577624992E+01  0.13904791088E+02 -0.32235545525E+01  0.14393950141E+02  0.00000000000E+00 0. -1.
</event>
<event>
 7    1  0.2353206E-008  0.4614232E+02  0.7816164E-02  0.1320468E+00
        -11   -1    0    0    0    0  0.00000000000E+00  0.00000000000E+00  0.45593999997E+02  0.45594000000E+02  0.51100000000E-03 0. -1.
         11   -1    0    0    0    0 -0.00000000000E+00 -0.00000000000E+00 -0.45593999997E+02  0.45594000000E+02  0.51100000000E-03 0.  1.
    9900012    2    1    2    0    0 -0.22268180089E+02 -0.23416108895E+02 -0.31383554677E+02  0.46142317583E+02  0.99999983771E+01 0.  0.
         12    1    1    2    0    0  0.22268180089E+02  0.23416108895E+02  0.31383554677E+02  0.45045682417E+02  0.00000000000E+00 0. -1.
         11    1    3    3    0    0 -0.84927180638E+01 -0.11269627958E+02 -0.14372978915E+02  0.20142326022E+02  0.51100000000E-03 0. -1.
        -11    1    3    3    0    0 -0.12252026279E+02 -0.92936680744E+01 -0.16775355451E+02  0.22757349691E+02  0.51100000000E-03 0.  1.
        -12    1    3    3    0    0 -0.15234357458E+01 -0.28528128621E+01 -0.23522031096E+00  0.32426418693E+01  0.00000000000E+00 0.  1.
</event>
<event>
 7    1  0.2353206E-008  0.4614232E+02  0.7816164E-02  0.1320468E+00
        -11   -1    0    0    0    0  0.00000000000E+00  0.00000000000E+00  0.45593999997E+02  0.45594000000E+02  0.51100000000E-03 0.  1.
         11   -1    0    0    0    0 -0.00000000000E+00 -0.00000000000E+00 -0.45593999997E+02  0.45594000000E+02  0.51100000000E-03 0. -1.
    9900012    2    1    2    0    0  0.13580629574E+02 -0.10679384499E+02  0.41600851358E+02  0.46142316671E+02  0.99999900557E+01 0.  0.
         12    1    1    2    0    0 -0.13580629574E+02  0.10679384499E+02 -0.41600851358E+02  0.45045683329E+02  0.00000000000E+00 0. -1.
         11    1    3    3    0    0  0.45988626705E+01 -0.23402909886E+01  0.47452180356E+01  0.70102492281E+01  0.51100000000E-03 0. -1.
        -11    1    3    3    0    0  0.34938094043E+01 -0.97995208870E+00  0.68255104211E+01  0.77301101557E+01  0.51100000000E-03 0.  1.
         12    1    3    3    0    0  0.54879574997E+01 -0.73591414216E+01  0.30030122901E+02  0.31401957287E+02  0.00000000000E+00 0. -1.
</event>
<event>
 7    1  0.2353206E-008  0.4614232E+02  0.7816164E-02  0.1320468E+00
        -11   -1    0    0    0    0  0.00000000000E+00  0.00000000000E+00  0.45593999997E+02  0.45594000000E+02  0.51100000000E-03 0.  1.
         11   -1    0    0    0    0 -0.00000000000E+00 -0.00000000000E+00 -0.45593999997E+02  0.45594000000E+02  0.51100000000E-03 0. -1.
    9900012    2    1    2    0    0  0.59367064337E+01  0.10216233207E+02  0.43468351750E+02  0.46142317543E+02  0.99999980073E+01 0.  0.
         12    1    1    2    0    0 -0.59367064337E+01 -0.10216233207E+02 -0.43468351750E+02  0.45045682457E+02  0.00000000000E+00 0. -1.
         11    1    3    3    0    0  0.71271593368E+00  0.33563016424E+01  0.84792914509E+01  0.91471912896E+01  0.51100000000E-03 0. -1.
        -11    1    3    3    0    0  0.18401069656E+01  0.55165879828E+01  0.31211631273E+02  0.31748774207E+02  0.51100000000E-03 0.  1.
         12    1    3    3    0    0  0.33838835344E+01  0.13433435815E+01  0.37774290254E+01  0.52463520464E+01  0.00000000000E+00 0. -1.
</event>
<event>
 7    1  0.2353206E-008  0.4614232E+02  0.7816164E-02  0.1320468E+00
        -11   -1    0    0    0    0  0.00000000000E+00  0.00000000000E+00  0.45593999997E+02  0.45594000000E+02  0.51100000000E-03 0.  1.
         11   -1    0    0    0    0 -0.00000000000E+00 -0.00000000000E+00 -0.45593999997E+02  0.45594000000E+02  0.51100000000E-03 0. -1.
    9900012    2    1    2    0    0  0.63971354602E+01  0.39688224958E+02  0.20323264219E+02  0.46142316401E+02  0.99999875957E+01 0.  0.
         12    1    1    2    0    0 -0.63971354602E+01 -0.39688224958E+02 -0.20323264219E+02  0.45045683599E+02  0.00000000000E+00 0. -1.
         11    1    3    3    0    0  0.31184458319E+01  0.50230668551E+01  0.48643114399E+01  0.76562021318E+01  0.51100000000E-03 0. -1.
        -11    1    3    3    0    0  0.44373988498E+01  0.18743416796E+02  0.90897260287E+01  0.21298575099E+02  0.51100000000E-03 0.  1.
        -12    1    3    3    0    0 -0.11587092214E+01  0.15921741307E+02  0.63692267507E+01  0.17187539170E+02  0.00000000000E+00 0.  1.
</event>
<event>
 7    1  0.2353206E-008  0.4614232E+02  0.7816164E-02  0.1320468E+00
        -11   -1    0    0    0    0  0.00000000000E+00  0.00000000000E+00  0.45593999997E+02  0.45594000000E+02  0.51100000000E-03 0. -1.
         11   -1    0    0    0    0 -0.00000000000E+00 -0.00000000000E+00 -0.45593999997E+02  0.45594000000E+02  0.51100000000E-03 0.  1.
    9900012    2    1    2    0    0  0.27049604950E+02 -0.15269375451E+01 -0.35987501578E+02  0.46142323892E+02  0.10000055904E+02 0.  0.
         12    1    1    2    0    0 -0.27049604950E+02  0.15269375451E+01  0.35987501578E+02  0.45045676108E+02  0.00000000000E+00 0. -1.
         11    1    3    3    0    0 -0.76426511142E-01  0.34497380075E+00 -0.28000032661E+00  0.45083076518E+00  0.51100000000E-03 0. -1.
        -11    1    3    3    0    0 -0.31503967414E+00  0.69352082077E+00 -0.29255039200E+00  0.81597004730E+00  0.51100000000E-03 0.  1.
        -12    1    3    3    0    0  0.27441071135E+02 -0.25654321666E+01 -0.35414950859E+02  0.44875523079E+02  0.00000000000E+00 0.  1.
</event>
<event>
 7    1  0.2353206E-008  0.4614232E+02  0.7816164E-02  0.1320468E+00
        -11   -1    0    0    0    0  0.00000000000E+00  0.00000000000E+00  0.45593999997E+02  0.45594000000E+02  0.51100000000E-03 0.  1.
         11   -1    0    0    0    0 -0.00000000000E+00 -0.00000000000E+00 -0.45593999997E+02  0.45594000000E+02  0.51100000000E-03 0. -1.
    9900012    2    1    2    0    0  0.17592222522E+02 -0.35899118891E+02 -0.20757660681E+02  0.46142317551E+02  0.99999980811E+01 0.  0.
         12    1    1    2    0    0 -0.17592222522E+02  0.35899118891E+02  0.20757660681E+02  0.45045682449E+02  0.00000000000E+00 0. -1.
         11    1    3    3    0    0  0.94812363644E+01 -0.10395717796E+02 -0.70151034899E+01  0.15721846861E+02  0.51100000000E-03 0. -1.
        -11    1    3    3    0    0  0.15276119418E+01 -0.98826779696E+01 -0.33958269037E+01  0.10560897818E+02  0.51100000000E-03 0.  1.
        -12    1    3    3    0    0  0.65833742155E+01 -0.15620723125E+02 -0.10346730288E+02  0.19859572872E+02  0.00000000000E+00 0.  1.
</event>
<event>
 7    1  0.2353206E-008  0.4614232E+02  0.7816164E-02  0.1320468E+00
        -11   -1    0    0    0    0  0.00000000000E+00  0.00000000000E+00  0.45593999997E+02  0.45594000000E+02  0.51100000000E-03 0.  1.
         11   -1    0    0    0    0 -0.00000000000E+00 -0.00000000000E+00 -0.45593999997E+02  0.45594000000E+02  0.51100000000E-03 0. -1.
    9900012    2    1    2    0    0  0.18835830827E+02  0.17758547414E+02  0.36864060197E+02  0.46142318039E+02  0.10000002530E+02 0.  0.
         12    1    1    2    0    0 -0.18835830827E+02 -0.17758547414E+02 -0.36864060197E+02  0.45045681961E+02  0.00000000000E+00 0. -1.
         11    1    3    3    0    0  0.11893032750E+01  0.17133835599E+01  0.52905893783E+01  0.56868674799E+01  0.51100000000E-03 0. -1.
        -11    1    3    3    0    0  0.66295209460E+01  0.22257316769E+01  0.13342720069E+02  0.15064282544E+02  0.51100000000E-03 0.  1.
         12    1    3    3    0    0  0.11017006606E+02  0.13819432177E+02  0.18230750750E+02  0.25391168015E+02  0.00000000000E+00 0. -1.
</event>
<event>
 7    1  0.2353206E-008  0.4614232E+02  0.7816164E-02  0.1320468E+00
        -11   -1    0    0    0    0  0.00000000000E+00  0.00000000000E+00  0.45593999997E+02  0.45594000000E+02  0.51100000000E-03 0.  1.
         11   -1    0    0    0    0 -0.00000000000E+00 -0.00000000000E+00 -0.45593999997E+02  0.45594000000E+02  0.51100000000E-03 0. -1.
    9900012    2    1    2    0    0 -0.37225813016E+02 -0.11196931862E+02  0.22759183717E+02  0.46142324500E+02  0.10000061450E+02 0.  0.
         12    1    1    2    0    0  0.37225813016E+02  0.11196931862E+02 -0.22759183717E+02  0.45045675500E+02  0.00000000000E+00 0. -1.
         11    1    3    3    0    0 -0.43624555388E+01 -0.34357714227E+01  0.57163089282E+01  0.79694247986E+01  0.51100000000E-03 0. -1.
        -11    1    3    3    0    0 -0.62540804025E+01 -0.27491701512E+01  0.53575937042E+01  0.86818931553E+01  0.51100000000E-03 0.  1.
        -12    1    3    3    0    0 -0.26609277075E+02 -0.50119902879E+01  0.11685281084E+02  0.29491006546E+02  0.00000000000E+00 0.  1.
</event>
<event>
 7    1  0.2353206E-008  0.4614231E+02  0.7816164E-02  0.1320468E+00
        -11   -1    0    0    0    0  0.00000000000E+00  0.00000000000E+00  0.45593999997E+02  0.45594000000E+02  0.51100000000E-03 0. -1.
         11   -1    0    0    0    0 -0.00000000000E+00 -0.00000000000E+00 -0.45593999997E+02  0.45594000000E+02  0.51100000000E-03 0.  1.
    9900012    2    1    2    0    0 -0.23868517439E+02  0.35622440396E+02 -0.13800340193E+02  0.46142314592E+02  0.99999710973E+01 0.  0.
         12    1    1    2    0    0  0.23868517439E+02 -0.35622440396E+02  0.13800340193E+02  0.45045685408E+02  0.00000000000E+00 0. -1.
         11    1    3    3    0    0 -0.25141057930E+01  0.10464128487E+02 -0.32181704548E+01  0.11232779454E+02  0.51100000000E-03 0.  1.
        -11    1    3    3    0    0 -0.30157602209E+01  0.16070022538E+01 -0.11546174480E+01  0.36069942703E+01  0.51100000000E-03 0. -1.
        -12    1    3    3    0    0 -0.18338651425E+02  0.23551309655E+02 -0.94275522904E+01  0.31302540867E+02  0.00000000000E+00 0.  1.
</event>
<event>
 7    1  0.2353206E-008  0.4614232E+02  0.7816164E-02  0.1320468E+00
        -11   -1    0    0    0    0  0.00000000000E+00  0.00000000000E+00  0.45593999997E+02  0.45594000000E+02  0.51100000000E-03 0.  1.
         11   -1    0    0    0    0 -0.00000000000E+00 -0.00000000000E+00 -0.45593999997E+02  0.45594000000E+02  0.51100000000E-03 0. -1.
    9900012    2    1    2    0    0 -0.21204763101E+02  0.30459321402E+02  0.25528441919E+02  0.46142316685E+02  0.99999901911E+01 0.  0.
         12    1    1    2    0    0  0.21204763101E+02 -0.30459321402E+02 -0.25528441919E+02  0.45045683315E+02  0.00000000000E+00 0. -1.
         11    1    3    3    0    0 -0.24445367625E+01  0.18130701196E+01  0.71454525695E-01  0.30443536674E+01  0.51100000000E-03 0. -1.
        -11    1    3    3    0    0 -0.14112014671E+02  0.16349256162E+02  0.16722659161E+02  0.27314729814E+02  0.51100000000E-03 0.  1.
         12    1    3    3    0    0 -0.46482116675E+01  0.12296995121E+02  0.87343282323E+01  0.15783233204E+02  0.00000000000E+00 0. -1.
</event>
<event>
 7    1  0.2353206E-008  0.4614231E+02  0.7816164E-02  0.1320468E+00
        -11   -1    0    0    0    0  0.00000000000E+00  0.00000000000E+00  0.45593999997E+02  0.45594000000E+02  0.51100000000E-03 0.  1.
         11   -1    0    0    0    0 -0.00000000000E+00 -0.00000000000E+00 -0.45593999997E+02  0.45594000000E+02  0.51100000000E-03 0. -1.
    9900012    2    1    2    0    0  0.15617673751E+02  0.36438357967E+02  0.21388040277E+02  0.46142312841E+02  0.99999551365E+01 0.  0.
         12    1    1    2    0    0 -0.15617673751E+02 -0.36438357967E+02 -0.21388040277E+02  0.45045687159E+02  0.00000000000E+00 0. -1.
         11    1    3    3    0    0  0.11588687471E+02  0.18428692584E+02  0.14425802203E+02  0.26115477348E+02  0.51100000000E-03 0. -1.
        -11    1    3    3    0    0  0.35879454161E+01  0.81418200360E+01  0.34674123074E+01  0.95491116957E+01  0.51100000000E-03 0.  1.
        -12    1    3    3    0    0  0.44104086363E+00  0.98678453473E+01  0.34948257667E+01  0.10477723798E+02  0.00000000000E+00 0.  1.
</event>
<event>
 7    1  0.2353206E-008  0.4614232E+02  0.7816164E-02  0.1320468E+00
        -11   -1    0    0    0    0  0.00000000000E+00  0.00000000000E+00  0.45593999997E+02  0.45594000000E+02  0.51100000000E-03 0.  1.
         11   -1    0    0    0    0 -0.00000000000E+00 -0.00000000000E+00 -0.45593999997E+02  0.45594000000E+02  0.51100000000E-03 0. -1.
    9900012    2    1    2    0    0 -0.16126410004E+02  0.41754900280E+02  0.50577410021E+01  0.46142317176E+02  0.99999946651E+01 0.  0.
         12    1    1    2    0    0  0.16126410004E+02 -0.41754900280E+02 -0.50577410021E+01  0.45045682824E+02  0.00000000000E+00 0. -1.
         11    1    3    3    0    0  0.58007051927E+00  0.14640274814E+01 -0.14516922770E+00  0.15814337290E+01  0.51100000000E-03 0. -1.
        -11    1    3    3    0    0 -0.11449252985E+02  0.19577542746E+02  0.48263615777E+01  0.23187482404E+02  0.51100000000E-03 0.  1.
        -12    1    3    3    0    0 -0.52572275381E+01  0.20713330052E+02  0.37654865216E+00  0.21373401043E+02  0.00000000000E+00 0.  1.
</event>
<event>
 7    1  0.2353206E-008  0.4614231E+02  0.7816164E-02  0.1320468E+00
        -11   -1    0    0    0    0  0.00000000000E+00  0.00000000000E+00  0.45593999997E+02  0.45594000000E+02  0.51100000000E-03 0.  1.
         11   -1    0    0    0    0 -0.00000000000E+00 -0.00000000000E+00 -0.45593999997E+02  0.45594000000E+02  0.51100000000E-03 0. -1.
    9900012    2    1    2    0    0 -0.19301465503E+01 -0.45003567747E+02  0.25944483201E+00  0.46142313333E+02  0.99999596220E+01 0.  0.
         12    1    1    2    0    0  0.19301465503E+01  0.45003567747E+02 -0.25944483201E+00  0.45045686667E+02  0.00000000000E+00 0. -1.
         11    1    3    3    0    0 -0.29697092379E+01 -0.20317902682E+02 -0.91618511169E+00  0.20554214598E+02  0.51100000000E-03 0. -1.
        -11    1    3    3    0    0  0.21882003040E+01 -0.23771257758E+02  0.19070803442E+01  0.23947815592E+02  0.51100000000E-03 0.  1.
         12    1    3    3    0    0 -0.11486376164E+01 -0.91440730776E+00 -0.73145040047E+00  0.16402831422E+01  0.00000000000E+00 0. -1.
</event>
<event>
 7    1  0.2353206E-008  0.4614232E+02  0.7816164E-02  0.1320468E+00
        -11   -1    0    0    0    0  0.00000000000E+00  0.00000000000E+00  0.45593999997E+02  0.45594000000E+02  0.51100000000E-03 0. -1.
         11   -1    0    0    0    0 -0.00000000000E+00 -0.00000000000E+00 -0.45593999997E+02  0.45594000000E+02  0.51100000000E-03 0.  1.
    9900012    2    1    2    0    0 -0.37974282632E+01 -0.28723086753E+02 -0.34491699206E+02  0.46142317764E+02  0.10000000027E+02 0.  0.
         12    1    1    2    0    0  0.37974282632E+01  0.28723086753E+02  0.34491699206E+02  0.45045682236E+02  0.00000000000E+00 0. -1.
         11    1    3    3    0    0  0.82832067825E-01 -0.15283685417E+01  0.13541379777E+00  0.15365899610E+01  0.51100000000E-03 0. -1.
        -11    1    3    3    0    0  0.13058227019E+01 -0.19951689407E+01 -0.26855216503E+01  0.35913644798E+01  0.51100000000E-03 0.  1.
        -12    1    3    3    0    0 -0.51860830330E+01 -0.25199549270E+02 -0.31941591353E+02  0.41014363323E+02  0.00000000000E+00 0.  1.
</event>
<event>
 7    1  0.2353206E-008  0.4614232E+02  0.7816164E-02  0.1320468E+00
        -11   -1    0    0    0    0  0.00000000000E+00  0.00000000000E+00  0.45593999997E+02  0.45594000000E+02  0.51100000000E-03 0. -1.
         11   -1    0    0    0    0 -0.00000000000E+00 -0.00000000000E+00 -0.45593999997E+02  0.45594000000E+02  0.51100000000E-03 0.  1.
    9900012    2    1    2    0    0  0.44933279426E+02 -0.28489508819E+01 -0.14132691443E+01  0.46142318179E+02  0.10000003808E+02 0.  0.
         12    1    1    2    0    0 -0.44933279426E+02  0.28489508819E+01  0.14132691443E+01  0.45045681821E+02  0.00000000000E+00 0. -1.
         11    1    3    3    0    0  0.11097732422E+02 -0.11146729210E+01 -0.95263022107E+00  0.11194179971E+02  0.51100000000E-03 0. -1.
        -11    1    3    3    0    0  0.27418011563E+01  0.87226911561E+00 -0.23111698092E+01  0.36905058106E+01  0.51100000000E-03 0.  1.
        -12    1    3    3    0    0  0.31093745848E+02 -0.26065470765E+01  0.18505308859E+01  0.31257632397E+02  0.00000000000E+00 0.  1.
</event>
<event>
 7    1  0.2353206E-008  0.4614232E+02  0.7816164E-02  0.1320468E+00
        -11   -1    0    0    0    0  0.00000000000E+00  0.00000000000E+00  0.45593999997E+02  0.45594000000E+02  0.51100000000E-03 0. -1.
         11   -1    0    0    0    0 -0.00000000000E+00 -0.00000000000E+00 -0.45593999997E+02  0.45594000000E+02  0.51100000000E-03 0.  1.
    9900012    2    1    2    0    0 -0.26960546697E+01 -0.10003545812E+02 -0.43838040835E+02  0.46142318034E+02  0.10000002485E+02 0.  0.
         12    1    1    2    0    0  0.26960546697E+01  0.10003545812E+02  0.43838040835E+02  0.45045681966E+02  0.00000000000E+00 0. -1.
         11    1    3    3    0    0 -0.43552709017E+01 -0.38084152600E+01 -0.23873540387E+02  0.24564574946E+02  0.51100000000E-03 0. -1.
        -11    1    3    3    0    0  0.48417338548E-01  0.78710075773E+00 -0.82698168782E+00  0.11427032925E+01  0.51100000000E-03 0.  1.
        -12    1    3    3    0    0  0.16107988934E+01 -0.69822313093E+01 -0.19137518760E+02  0.20435039795E+02  0.00000000000E+00 0.  1.
</event>
<event>
 7    1  0.2353206E-008  0.4614232E+02  0.7816164E-02  0.1320468E+00
        -11   -1    0    0    0    0  0.00000000000E+00  0.00000000000E+00  0.45593999997E+02  0.45594000000E+02  0.51100000000E-03 0. -1.
         11   -1    0    0    0    0 -0.00000000000E+00 -0.00000000000E+00 -0.45593999997E+02  0.45594000000E+02  0.51100000000E-03 0.  1.
    9900012    2    1    2    0    0 -0.20063352374E+02 -0.40236416505E+02 -0.27579031360E+01  0.46142319282E+02  0.10000013867E+02 0.  0.
         12    1    1    2    0    0  0.20063352374E+02  0.40236416505E+02  0.27579031360E+01  0.45045680718E+02  0.00000000000E+00 0. -1.
         11    1    3    3    0    0 -0.11166197310E+02 -0.13842538100E+02 -0.10827700558E+01  0.17817749989E+02  0.51100000000E-03 0. -1.
        -11    1    3    3    0    0 -0.38376361499E+00  0.58430100179E-01  0.26243160695E+00  0.46857144412E+00  0.51100000000E-03 0.  1.
        -12    1    3    3    0    0 -0.85133914486E+01 -0.26452308505E+02 -0.19375646872E+01  0.27855997848E+02  0.00000000000E+00 0.  1.
</event>
<event>
 7    1  0.2353206E-008  0.4614232E+02  0.7816164E-02  0.1320468E+00
        -11   -1    0    0    0    0  0.00000000000E+00  0.00000000000E+00  0.45593999997E+02  0.45594000000E+02  0.51100000000E-03 0. -1.
         11   -1    0    0    0    0 -0.00000000000E+00 -0.00000000000E+00 -0.45593999997E+02  0.45594000000E+02  0.51100000000E-03 0.  1.
    9900012    2    1    2    0    0 -0.99353973276E+01 -0.33789135304E+02 -0.28083727671E+02  0.46142317137E+02  0.99999943104E+01 0.  0.
         12    1    1    2    0    0  0.99353973276E+01  0.33789135304E+02  0.28083727671E+02  0.45045682863E+02  0.00000000000E+00 0. -1.
         11    1    3    3    0    0 -0.45729348836E+01 -0.12065052791E+02 -0.75121945302E+01  0.14930180817E+02  0.51100000000E-03 0. -1.
        -11    1    3    3    0    0 -0.29066512430E+01 -0.18991481015E+02 -0.14324776843E+02  0.23965062163E+02  0.51100000000E-03 0.  1.
         12    1    3    3    0    0 -0.24558112011E+01 -0.27326014980E+01 -0.62467562976E+01  0.72470741574E+01  0.00000000000E+00 0. -1.
</event>
<event>
 7    1  0.2353206E-008  0.4614232E+02  0.7816164E-02  0.1320468E+00
        -11   -1    0    0    0    0  0.00000000000E+00  0.00000000000E+00  0.45593999997E+02  0.45594000000E+02  0.51100000000E-03 0. -1.
         11   -1    0    0    0    0 -0.00000000000E+00 -0.00000000000E+00 -0.45593999997E+02  0.45594000000E+02  0.51100000000E-03 0.  1.
    9900012    2    1    2    0    0 -0.24066424590E+02 -0.38069010559E+02  0.81924323216E+00  0.46142317444E+02  0.99999971039E+01 0.  0.
         12    1    1    2    0    0  0.24066424590E+02  0.38069010559E+02 -0.81924323216E+00  0.45045682556E+02  0.00000000000E+00 0. -1.
         11    1    3    3    0    0 -0.13862816204E+02 -0.19965169938E+02 -0.25792130867E+01  0.24442545370E+02  0.51100000000E-03 0. -1.
        -11    1    3    3    0    0 -0.13323407212E+01 -0.51054917227E+00 -0.67706344098E+00  0.15793059928E+01  0.51100000000E-03 0.  1.
        -12    1    3    3    0    0 -0.88712676646E+01 -0.17593291449E+02  0.40755197598E+01  0.20120466081E+02  0.00000000000E+00 0.  1.
</event>
<event>
 7    1  0.2353206E-008  0.4614232E+02  0.7816164E-02  0.1320468E+00
        -11   -1    0    0    0    0  0.00000000000E+00  0.00000000000E+00  0.45593999997E+02  0.45594000000E+02  0.51100000000E-03 0.  1.
         11   -1    0    0    0    0 -0.00000000000E+00 -0.00000000000E+00 -0.45593999997E+02  0.45594000000E+02  0.51100000000E-03 0. -1.
    9900012    2    1    2    0    0 -0.28819849719E+02  0.31621504294E+02  0.14092911153E+02  0.46142318560E+02  0.10000007282E+02 0.  0.
         12    1    1    2    0    0  0.28819849719E+02 -0.31621504294E+02 -0.14092911153E+02  0.45045681440E+02  0.00000000000E+00 0. -1.
         11    1    3    3    0    0 -0.19050890661E+02  0.14963633050E+02  0.66544630065E+01  0.25122273528E+02  0.51100000000E-03 0. -1.
        -11    1    3    3    0    0 -0.24124707665E+01  0.75054953284E+01  0.23862633745E+01  0.82369125573E+01  0.51100000000E-03 0.  1.
         12    1    3    3    0    0 -0.73564882908E+01  0.91523759165E+01  0.50521847722E+01  0.12783132475E+02  0.00000000000E+00 0. -1.
</event>
<event>
 7    1  0.2353206E-008  0.4614232E+02  0.7816164E-02  0.1320468E+00
        -11   -1    0    0    0    0  0.00000000000E+00  0.00000000000E+00  0.45593999997E+02  0.45594000000E+02  0.51100000000E-03 0.  1.
         11   -1    0    0    0    0 -0.00000000000E+00 -0.00000000000E+00 -0.45593999997E+02  0.45594000000E+02  0.51100000000E-03 0. -1.
    9900012    2    1    2    0    0 -0.89275783514E+01  0.36573629417E+02  0.24734214412E+02  0.46142318891E+02  0.10000010307E+02 0.  0.
         12    1    1    2    0    0  0.89275783514E+01 -0.36573629417E+02 -0.24734214412E+02  0.45045681109E+02  0.00000000000E+00 0. -1.
         11    1    3    3    0    0  0.12147872005E+01  0.14710662444E+01  0.24084428496E+01  0.30725138013E+01  0.51100000000E-03 0. -1.
        -11    1    3    3    0    0 -0.94135614486E+01  0.26008338532E+02  0.15816523238E+02  0.31862379383E+02  0.51100000000E-03 0.  1.
        -12    1    3    3    0    0 -0.72880410329E+00  0.90942246402E+01  0.65092483253E+01  0.11207425707E+02  0.00000000000E+00 0.  1.
</event>
<event>
 7    1  0.2353206E-008  0.4614232E+02  0.7816164E-02  0.1320468E+00
        -11   -1    0    0    0    0  0.00000000000E+00  0.00000000000E+00  0.45593999997E+02  0.45594000000E+02  0.51100000000E-03 0.  1.
         11   -1    0    0    0    0 -0.00000000000E+00 -0.00000000000E+00 -0.45593999997E+02  0.45594000000E+02  0.51100000000E-03 0. -1.
    9900012    2    1    2    0    0 -0.77893435158E+01 -0.18015607236E+02  0.40544755001E+02  0.46142321688E+02  0.10000035807E+02 0.  0.
         12    1    1    2    0    0  0.77893435158E+01  0.18015607236E+02 -0.40544755001E+02  0.45045678312E+02  0.00000000000E+00 0. -1.
         11    1    3    3    0    0  0.42383897997E+00 -0.24132117612E+00 -0.98616763735E-02  0.48782466602E+00  0.51100000000E-03 0. -1.
        -11    1    3    3    0    0 -0.37121790417E+01 -0.15784777014E+01  0.99654643021E+01  0.10750922942E+02  0.51100000000E-03 0.  1.
        -12    1    3    3    0    0 -0.45010034541E+01 -0.16195808359E+02  0.30589152375E+02  0.34903574080E+02  0.00000000000E+00 0.  1.
</event>
<event>
 7    1  0.2353206E-008  0.4614232E+02  0.7816164E-02  0.1320468E+00
        -11   -1    0    0    0    0  0.00000000000E+00  0.00000000000E+00  0.45593999997E+02  0.45594000000E+02  0.51100000000E-03 0.  1.
         11   -1    0    0    0    0 -0.00000000000E+00 -0.00000000000E+00 -0.45593999997E+02  0.45594000000E+02  0.51100000000E-03 0. -1.
    9900012    2    1    2    0    0  0.77376767563E+01  0.94191953532E+01  0.43364970132E+02  0.46142317440E+02  0.99999970754E+01 0.  0.
         12    1    1    2    0    0 -0.77376767563E+01 -0.94191953532E+01 -0.43364970132E+02  0.45045682560E+02  0.00000000000E+00 0. -1.
         11    1    3    3    0    0 -0.96221582709E+00  0.34350370226E+00  0.17402448088E+01  0.20179956262E+01  0.51100000000E-03 0. -1.
        -11    1    3    3    0    0  0.34082374233E+01  0.30650945153E+01  0.27568599831E+02  0.27947067532E+02  0.51100000000E-03 0.  1.
        -12    1    3    3    0    0  0.52916551601E+01  0.60105971357E+01  0.14056125493E+02  0.16177254283E+02  0.00000000000E+00 0.  1.
</event>
<event>
 7    1  0.2353206E-008  0.4614232E+02  0.7816164E-02  0.1320468E+00
        -11   -1    0    0    0    0  0.00000000000E+00  0.00000000000E+00  0.45593999997E+02  0.45594000000E+02  0.51100000000E-03 0. -1.
         11   -1    0    0    0    0 -0.00000000000E+00 -0.00000000000E+00 -0.45593999997E+02  0.45594000000E+02  0.51100000000E-03 0.  1.
    9900012    2    1    2    0    0  0.43727043869E+02 -0.24021217383E+01 -0.10549358533E+02  0.46142317413E+02  0.99999968212E+01 0.  0.
         12    1    1    2    0    0 -0.43727043869E+02  0.24021217383E+01  0.10549358533E+02  0.45045682587E+02  0.00000000000E+00 0. -1.
         11    1    3    3    0    0  0.95282574163E+01 -0.57845643442E+00 -0.49163108409E+01  0.10737430502E+02  0.51100000000E-03 0. -1.
        -11    1    3    3    0    0  0.25596126033E+02 -0.44042966282E+01 -0.42403424715E+01  0.26316154757E+02  0.51100000000E-03 0.  1.
         12    1    3    3    0    0  0.86026604196E+01  0.25806313243E+01 -0.13927052202E+01  0.90887321535E+01  0.00000000000E+00 0. -1.
</event>
<event>
 7    1  0.2353206E-008  0.4614231E+02  0.7816164E-02  0.1320468E+00
        -11   -1    0    0    0    0  0.00000000000E+00  0.00000000000E+00  0.45593999997E+02  0.45594000000E+02  0.51100000000E-03 0.  1.
         11   -1    0    0    0    0 -0.00000000000E+00 -0.00000000000E+00 -0.45593999997E+02  0.45594000000E+02  0.51100000000E-03 0. -1.
    9900012    2    1    2    0    0  0.27333011433E+02 -0.18659831441E+02  0.30558650021E+02  0.46142313031E+02  0.99999568641E+01 0.  0.
         12    1    1    2    0    0 -0.27333011433E+02  0.18659831441E+02 -0.30558650021E+02  0.45045686969E+02  0.00000000000E+00 0. -1.
         11    1    3    3    0    0  0.14103635099E+02 -0.10459104032E+02  0.13501183968E+02  0.22149206508E+02  0.51100000000E-03 0. -1.
        -11    1    3    3    0    0  0.12786500322E+02 -0.52013592468E+01  0.14577339525E+02  0.20076044340E+02  0.51100000000E-03 0.  1.
         12    1    3    3    0    0  0.44287601235E+00 -0.29993681623E+01  0.24801265293E+01  0.39170621819E+01  0.00000000000E+00 0. -1.
</event>
<event>
 7    1  0.2353206E-008  0.4614232E+02  0.7816164E-02  0.1320468E+00
        -11   -1    0    0    0    0  0.00000000000E+00  0.00000000000E+00  0.45593999997E+02  0.45594000000E+02  0.51100000000E-03 0. -1.
         11   -1    0    0    0    0 -0.00000000000E+00 -0.00000000000E+00 -0.45593999997E+02  0.45594000000E+02  0.51100000000E-03 0.  1.
    9900012    2    1    2    0    0 -0.27478559180E+02 -0.27646273181E+02 -0.22577110631E+02  0.46142316967E+02  0.99999927617E+01 0.  0.
         12    1    1    2    0    0  0.27478559180E+02  0.27646273181E+02  0.22577110631E+02  0.45045683033E+02  0.00000000000E+00 0. -1.
         11    1    3    3    0    0 -0.78992680310E+01 -0.13176800753E+02 -0.11496237571E+02  0.19188277465E+02  0.51100000000E-03 0.  1.
        -11    1    3    3    0    0 -0.10298784779E+02 -0.91083509520E+01 -0.74536206471E+01  0.15639165131E+02  0.51100000000E-03 0. -1.
        -12    1    3    3    0    0 -0.92805063706E+01 -0.53611214755E+01 -0.36272524131E+01  0.11314874371E+02  0.00000000000E+00 0.  1.
</event>
<event>
 7    1  0.2353206E-008  0.4614232E+02  0.7816164E-02  0.1320468E+00
        -11   -1    0    0    0    0  0.00000000000E+00  0.00000000000E+00  0.45593999997E+02  0.45594000000E+02  0.51100000000E-03 0.  1.
         11   -1    0    0    0    0 -0.00000000000E+00 -0.00000000000E+00 -0.45593999997E+02  0.45594000000E+02  0.51100000000E-03 0. -1.
    9900012    2    1    2    0    0 -0.15577739592E+02  0.38144785720E+02  0.18205020054E+02  0.46142318702E+02  0.10000008579E+02 0.  0.
         12    1    1    2    0    0  0.15577739592E+02 -0.38144785720E+02 -0.18205020054E+02  0.45045681298E+02  0.00000000000E+00 0. -1.
         11    1    3    3    0    0 -0.39159623106E+01  0.14201337275E+02  0.93171893836E+01  0.17430512313E+02  0.51100000000E-03 0. -1.
        -11    1    3    3    0    0 -0.63446325244E+01  0.18092326051E+02  0.79300417038E+01  0.20747823633E+02  0.51100000000E-03 0.  1.
         12    1    3    3    0    0 -0.53171447574E+01  0.58511223942E+01  0.95778896673E+00  0.79639827567E+01  0.00000000000E+00 0. -1.
</event>
<event>
 7    1  0.2353206E-008  0.4614232E+02  0.7816164E-02  0.1320468E+00
        -11   -1    0    0    0    0  0.00000000000E+00  0.00000000000E+00  0.45593999997E+02  0.45594000000E+02  0.51100000000E-03 0.  1.
         11   -1    0    0    0    0 -0.00000000000E+00 -0.00000000000E+00 -0.45593999997E+02  0.45594000000E+02  0.51100000000E-03 0. -1.
    9900012    2    1    2    0    0  0.23247584752E+02  0.35619545491E+02  0.14829403510E+02  0.46142318450E+02  0.10000006284E+02 0.  0.
         12    1    1    2    0    0 -0.23247584752E+02 -0.35619545491E+02 -0.14829403510E+02  0.45045681550E+02  0.00000000000E+00 0. -1.
         11    1    3    3    0    0  0.74778475015E+01  0.12914324481E+02  0.78876150939E+01  0.16879349875E+02  0.51100000000E-03 0.  1.
        -11    1    3    3    0    0  0.10872954949E+01 -0.30736425928E+00  0.25060997095E+00  0.11573633396E+01  0.51100000000E-03 0. -1.
        -12    1    3    3    0    0  0.14682441756E+02  0.23012585269E+02  0.66911784456E+01  0.28105605236E+02  0.00000000000E+00 0.  1.
</event>
<event>
 7    1  0.2353206E-008  0.4614232E+02  0.7816164E-02  0.1320468E+00
        -11   -1    0    0    0    0  0.00000000000E+00  0.00000000000E+00  0.45593999997E+02  0.45594000000E+02  0.51100000000E-03 0.  1.
         11   -1    0    0    0    0 -0.00000000000E+00 -0.00000000000E+00 -0.45593999997E+02  0.45594000000E+02  0.51100000000E-03 0. -1.
    9900012    2    1    2    0    0  0.40699462804E+02  0.16080697147E+02  0.10680750142E+02  0.46142317445E+02  0.99999971177E+01 0.  0.
         12    1    1    2    0    0 -0.40699462804E+02 -0.16080697147E+02 -0.10680750142E+02  0.45045682555E+02  0.00000000000E+00 0. -1.
         11    1    3    3    0    0  0.15522467485E+02  0.50129613502E+01  0.40349971673E+01  0.16803510965E+02  0.51100000000E-03 0. -1.
        -11    1    3    3    0    0  0.22942775471E+02  0.87712108499E+01  0.80398665586E+01  0.25844623051E+02  0.51100000000E-03 0.  1.
         12    1    3    3    0    0  0.22342198471E+01  0.22965249470E+01 -0.13941135835E+01  0.34941834298E+01  0.00000000000E+00 0. -1.
</event>
<event>
 7    1  0.2353206E-008  0.4614232E+02  0.7816164E-02  0.1320468E+00
        -11   -1    0    0    0    0  0.00000000000E+00  0.00000000000E+00  0.45593999997E+02  0.45594000000E+02  0.51100000000E-03 0. -1.
         11   -1    0    0    0    0 -0.00000000000E+00 -0.00000000000E+00 -0.45593999997E+02  0.45594000000E+02  0.51100000000E-03 0.  1.
    9900012    2    1    2    0    0  0.37213450417E+02  0.22265262359E+02 -0.12187315270E+02  0.46142318150E+02  0.10000003549E+02 0.  0.
         12    1    1    2    0    0 -0.37213450417E+02 -0.22265262359E+02  0.12187315270E+02  0.45045681850E+02  0.00000000000E+00 0. -1.
         11    1    3    3    0    0  0.25021323546E+02  0.12276108516E+02 -0.98043782992E+01  0.29544801681E+02  0.51100000000E-03 0. -1.
        -11    1    3    3    0    0  0.12150449994E+02  0.10386540366E+02 -0.21336561368E+01  0.16126566424E+02  0.51100000000E-03 0.  1.
         12    1    3    3    0    0  0.41676876410E-01 -0.39738652355E+00 -0.24928083384E+00  0.47095004538E+00  0.00000000000E+00 0. -1.
</event>
<event>
 7    1  0.2353206E-008  0.4614231E+02  0.7816164E-02  0.1320468E+00
        -11   -1    0    0    0    0  0.00000000000E+00  0.00000000000E+00  0.45593999997E+02  0.45594000000E+02  0.51100000000E-03 0. -1.
         11   -1    0    0    0    0 -0.00000000000E+00 -0.00000000000E+00 -0.45593999997E+02  0.45594000000E+02  0.51100000000E-03 0.  1.
    9900012    2    1    2    0    0  0.40845559075E+02  0.14366768579E+02  0.12423774931E+02  0.46142312980E+02  0.99999563997E+01 0.  0.
         12    1    1    2    0    0 -0.40845559075E+02 -0.14366768579E+02 -0.12423774931E+02  0.45045687020E+02  0.00000000000E+00 0. -1.
         11    1    3    3    0    0  0.18076035304E+02  0.10408458642E+02  0.59603699344E+01  0.21693433883E+02  0.51100000000E-03 0. -1.
        -11    1    3    3    0    0  0.42771560771E+01  0.22640516439E+01  0.25539879757E+01  0.54720059206E+01  0.51100000000E-03 0.  1.
        -12    1    3    3    0    0  0.18492367694E+02  0.16942582930E+01  0.39094170210E+01  0.18976873176E+02  0.00000000000E+00 0.  1.
</event>
<event>
 7    1  0.2353206E-008  0.4614232E+02  0.7816164E-02  0.1320468E+00
        -11   -1    0    0    0    0  0.00000000000E+00  0.00000000000E+00  0.45593999997E+02  0.45594000000E+02  0.51100000000E-03 0.  1.
         11   -1    0    0    0    0 -0.00000000000E+00 -0.00000000000E+00 -0.45593999997E+02  0.45594000000E+02  0.51100000000E-03 0. -1.
    9900012    2    1    2    0    0  0.12812266573E+01  0.24846997359E+02  0.37551279949E+02  0.46142318239E+02  0.10000004357E+02 0.  0.
         12    1    1    2    0    0 -0.12812266573E+01 -0.24846997359E+02 -0.37551279949E+02  0.45045681761E+02  0.00000000000E+00 0. -1.
         11    1    3    3    0    0  0.21381232101E+01  0.99672187938E+01  0.97044578476E+01  0.14074570108E+02  0.51100000000E-03 0. -1.
        -11    1    3    3    0    0  0.83015561760E+00  0.29878327055E+01  0.10645718750E+02  0.11088175259E+02  0.51100000000E-03 0.  1.
         12    1    3    3    0    0 -0.16870521704E+01  0.11891945860E+02  0.17201103352E+02  0.20979572872E+02  0.00000000000E+00 0. -1.
</event>
<event>
 7    1  0.2353206E-008  0.4614232E+02  0.7816164E-02  0.1320468E+00
        -11   -1    0    0    0    0  0.00000000000E+00  0.00000000000E+00  0.45593999997E+02  0.45594000000E+02  0.51100000000E-03 0.  1.
         11   -1    0    0    0    0 -0.00000000000E+00 -0.00000000000E+00 -0.45593999997E+02  0.45594000000E+02  0.51100000000E-03 0. -1.
    9900012    2    1    2    0    0 -0.36456320055E+01 -0.43123603664E+02  0.12497104594E+02  0.46142318199E+02  0.10000003994E+02 0.  0.
         12    1    1    2    0    0  0.36456320055E+01  0.43123603664E+02 -0.12497104594E+02  0.45045681801E+02  0.00000000000E+00 0. -1.
         11    1    3    3    0    0 -0.43785875998E+01 -0.29426391958E+02  0.65703004501E+01  0.30467251620E+02  0.51100000000E-03 0. -1.
        -11    1    3    3    0    0 -0.19812153457E+01 -0.43870412567E+01  0.19722546749E+01  0.52020317182E+01  0.51100000000E-03 0.  1.
        -12    1    3    3    0    0  0.27141709400E+01 -0.93101704491E+01  0.39545494694E+01  0.10473034861E+02  0.00000000000E+00 0.  1.
</event>
<event>
 7    1  0.2353206E-008  0.4614232E+02  0.7816164E-02  0.1320468E+00
        -11   -1    0    0    0    0  0.00000000000E+00  0.00000000000E+00  0.45593999997E+02  0.45594000000E+02  0.51100000000E-03 0. -1.
         11   -1    0    0    0    0 -0.00000000000E+00 -0.00000000000E+00 -0.45593999997E+02  0.45594000000E+02  0.51100000000E-03 0.  1.
    9900012    2    1    2    0    0 -0.53467561854E+01 -0.32363964982E+02 -0.30872308254E+02  0.46142318209E+02  0.10000004088E+02 0.  0.
         12    1    1    2    0    0  0.53467561854E+01  0.32363964982E+02  0.30872308254E+02  0.45045681791E+02  0.00000000000E+00 0. -1.
         11    1    3    3    0    0 -0.26252824817E+01 -0.11189125025E+02 -0.82402754041E+01  0.14141809146E+02  0.51100000000E-03 0. -1.
        -11    1    3    3    0    0 -0.30726422445E+01 -0.21397760112E+02 -0.22911127223E+02  0.31499603474E+02  0.51100000000E-03 0.  1.
         12    1    3    3    0    0  0.35116854088E+00  0.22292015540E+00  0.27909437270E+00  0.50090558857E+00  0.00000000000E+00 0. -1.
</event>
<event>
 7    1  0.2353206E-008  0.4614232E+02  0.7816164E-02  0.1320468E+00
        -11   -1    0    0    0    0  0.00000000000E+00  0.00000000000E+00  0.45593999997E+02  0.45594000000E+02  0.51100000000E-03 0.  1.
         11   -1    0    0    0    0 -0.00000000000E+00 -0.00000000000E+00 -0.45593999997E+02  0.45594000000E+02  0.51100000000E-03 0. -1.
    9900012    2    1    2    0    0 -0.12218304030E+02  0.26277914923E+02  0.34486196725E+02  0.46142317292E+02  0.99999957209E+01 0.  0.
         12    1    1    2    0    0  0.12218304030E+02 -0.26277914923E+02 -0.34486196725E+02  0.45045682708E+02  0.00000000000E+00 0. -1.
         11    1    3    3    0    0 -0.20555318448E+01  0.43619876367E+01  0.13713686657E+01  0.50132623695E+01  0.51100000000E-03 0. -1.
        -11    1    3    3    0    0 -0.76763813427E+01  0.18910179647E+02  0.26476343406E+02  0.33429305784E+02  0.51100000000E-03 0.  1.
         12    1    3    3    0    0 -0.24863908422E+01  0.30057476391E+01  0.66384846541E+01  0.76997491383E+01  0.00000000000E+00 0. -1.
</event>
<event>
 7    1  0.2353206E-008  0.4614232E+02  0.7816164E-02  0.1320468E+00
        -11   -1    0    0    0    0  0.00000000000E+00  0.00000000000E+00  0.45593999997E+02  0.45594000000E+02  0.51100000000E-03 0.  1.
         11   -1    0    0    0    0 -0.00000000000E+00 -0.00000000000E+00 -0.45593999997E+02  0.45594000000E+02  0.51100000000E-03 0. -1.
    9900012    2    1    2    0    0  0.25973472535E+02  0.13905210039E+01  0.36777148458E+02  0.46142317933E+02  0.10000001570E+02 0.  0.
         12    1    1    2    0    0 -0.25973472535E+02 -0.13905210039E+01 -0.36777148458E+02  0.45045682067E+02  0.00000000000E+00 0. -1.
         11    1    3    3    0    0  0.31507288464E+01  0.29401490602E+01  0.58676767459E+01  0.72801922650E+01  0.51100000000E-03 0. -1.
        -11    1    3    3    0    0  0.19656963769E+02  0.65855747786E+00  0.25113844743E+02  0.31898826320E+02  0.51100000000E-03 0.  1.
         12    1    3    3    0    0  0.31657799192E+01 -0.22081855342E+01  0.57956269686E+01  0.69632993480E+01  0.00000000000E+00 0. -1.
</event>
<event>
 7    1  0.2353206E-008  0.4614232E+02  0.7816164E-02  0.1320468E+00
        -11   -1    0    0    0    0  0.00000000000E+00  0.00000000000E+00  0.45593999997E+02  0.45594000000E+02  0.51100000000E-03 0.  1.
         11   -1    0    0    0    0 -0.00000000000E+00 -0.00000000000E+00 -0.45593999997E+02  0.45594000000E+02  0.51100000000E-03 0. -1.
    9900012    2    1    2    0    0 -0.38129473345E+02 -0.15751349180E+02  0.18087337541E+02  0.46142317433E+02  0.99999970110E+01 0.  0.
         12    1    1    2    0    0  0.38129473345E+02  0.15751349180E+02 -0.18087337541E+02  0.45045682567E+02  0.00000000000E+00 0. -1.
         11    1    3    3    0    0 -0.11977510729E+02 -0.24311894424E+01  0.42993270392E+01  0.12955912110E+02  0.51100000000E-03 0. -1.
        -11    1    3    3    0    0 -0.11443940441E+02 -0.20174030626E+01  0.58513921393E+01  0.13010475709E+02  0.51100000000E-03 0.  1.
         12    1    3    3    0    0 -0.14708022175E+02 -0.11302756675E+02  0.79366183625E+01  0.20175929614E+02  0.00000000000E+00 0. -1.
</event>
<event>
 7    1  0.2353206E-008  0.4614232E+02  0.7816164E-02  0.1320468E+00
        -11   -1    0    0    0    0  0.00000000000E+00  0.00000000000E+00  0.45593999997E+02  0.45594000000E+02  0.51100000000E-03 0.  1.
         11   -1    0    0    0    0 -0.00000000000E+00 -0.00000000000E+00 -0.45593999997E+02  0.45594000000E+02  0.51100000000E-03 0. -1.
    9900012    2    1    2    0    0 -0.30594435197E+02  0.68169818905E+01  0.32351551383E+02  0.46142316700E+02  0.99999903217E+01 0.  0.
         12    1    1    2    0    0  0.30594435197E+02 -0.68169818905E+01 -0.32351551383E+02  0.45045683300E+02  0.00000000000E+00 0. -1.
         11    1    3    3    0    0 -0.15463163265E+01  0.43126936741E-01  0.44744815643E+01  0.47343362412E+01  0.51100000000E-03 0. -1.
        -11    1    3    3    0    0 -0.16695848633E+02  0.47326703898E+01  0.20568024853E+02  0.26910837542E+02  0.51100000000E-03 0.  1.
         12    1    3    3    0    0 -0.12352270237E+02  0.20411845639E+01  0.73090449655E+01  0.14497142916E+02  0.00000000000E+00 0. -1.
</event>
<event>
 7    1  0.2353206E-008  0.4614232E+02  0.7816164E-02  0.1320468E+00
        -11   -1    0    0    0    0  0.00000000000E+00  0.00000000000E+00  0.45593999997E+02  0.45594000000E+02  0.51100000000E-03 0.  1.
         11   -1    0    0    0    0 -0.00000000000E+00 -0.00000000000E+00 -0.45593999997E+02  0.45594000000E+02  0.51100000000E-03 0. -1.
    9900012    2    1    2    0    0 -0.44173297968E+02  0.31591760231E+01  0.82372795509E+01  0.46142318510E+02  0.10000006829E+02 0.  0.
         12    1    1    2    0    0  0.44173297968E+02 -0.31591760231E+01 -0.82372795509E+01  0.45045681490E+02  0.00000000000E+00 0. -1.
         11    1    3    3    0    0 -0.16629718711E+01 -0.79845465918E+00  0.13159969152E+01  0.22660214979E+01  0.51100000000E-03 0. -1.
        -11    1    3    3    0    0 -0.32170367914E+02  0.21341225510E+01  0.20623288848E+01  0.32306969086E+02  0.51100000000E-03 0.  1.
        -12    1    3    3    0    0 -0.10339958182E+02  0.18235081313E+01  0.48589537509E+01  0.11569327926E+02  0.00000000000E+00 0.  1.
</event>
<event>
 7    1  0.2353206E-008  0.4614232E+02  0.7816164E-02  0.1320468E+00
        -11   -1    0    0    0    0  0.00000000000E+00  0.00000000000E+00  0.45593999997E+02  0.45594000000E+02  0.51100000000E-03 0.  1.
         11   -1    0    0    0    0 -0.00000000000E+00 -0.00000000000E+00 -0.45593999997E+02  0.45594000000E+02  0.51100000000E-03 0. -1.
    9900012    2    1    2    0    0  0.14345315232E+02  0.30019639465E+02  0.30366868013E+02  0.46142317680E+02  0.99999992618E+01 0.  0.
         12    1    1    2    0    0 -0.14345315232E+02 -0.30019639465E+02 -0.30366868013E+02  0.45045682320E+02  0.00000000000E+00 0. -1.
         11    1    3    3    0    0  0.22340742728E+01  0.11238311837E+02  0.93553224478E+01  0.14792322305E+02  0.51100000000E-03 0. -1.
        -11    1    3    3    0    0  0.46147027593E+00  0.54561840399E+01  0.61886927928E+01  0.82633418082E+01  0.51100000000E-03 0.  1.
        -12    1    3    3    0    0  0.11649770683E+02  0.13325143588E+02  0.14822852773E+02  0.23086653567E+02  0.00000000000E+00 0.  1.
</event>
<event>
 7    1  0.2353206E-008  0.4614232E+02  0.7816164E-02  0.1320468E+00
        -11   -1    0    0    0    0  0.00000000000E+00  0.00000000000E+00  0.45593999997E+02  0.45594000000E+02  0.51100000000E-03 0.  1.
         11   -1    0    0    0    0 -0.00000000000E+00 -0.00000000000E+00 -0.45593999997E+02  0.45594000000E+02  0.51100000000E-03 0. -1.
    9900012    2    1    2    0    0 -0.72528416575E+01  0.34897512139E+02  0.27544026967E+02  0.46142317775E+02  0.10000000123E+02 0.  0.
         12    1    1    2    0    0  0.72528416575E+01 -0.34897512139E+02 -0.27544026967E+02  0.45045682225E+02  0.00000000000E+00 0. -1.
         11    1    3    3    0    0 -0.58306840064E+00  0.17758105619E+00  0.16793143880E+00  0.63222228733E+00  0.51100000000E-03 0. -1.
        -11    1    3    3    0    0 -0.12555843092E+01  0.71273367532E+01  0.10380058058E+02  0.12653893736E+02  0.51100000000E-03 0.  1.
         12    1    3    3    0    0 -0.54141889476E+01  0.27592594329E+02  0.16996037471E+02  0.32856201751E+02  0.00000000000E+00 0. -1.
</event>
<event>
 7    1  0.2353206E-008  0.4614232E+02  0.7816164E-02  0.1320468E+00
        -11   -1    0    0    0    0  0.00000000000E+00  0.00000000000E+00  0.45593999997E+02  0.45594000000E+02  0.51100000000E-03 0.  1.
         11   -1    0    0    0    0 -0.00000000000E+00 -0.00000000000E+00 -0.45593999997E+02  0.45594000000E+02  0.51100000000E-03 0. -1.
    9900012    2    1    2    0    0 -0.83465521670E+01 -0.39623603001E+02  0.19733693306E+02  0.46142317640E+02  0.99999988929E+01 0.  0.
         12    1    1    2    0    0  0.83465521670E+01  0.39623603001E+02 -0.19733693306E+02  0.45045682360E+02  0.00000000000E+00 0. -1.
         11    1    3    3    0    0 -0.30662620204E+01 -0.26005607822E+02  0.14472431705E+02  0.29918971919E+02  0.51100000000E-03 0. -1.
        -11    1    3    3    0    0 -0.38528193419E+01 -0.98193822658E+01  0.59450244054E+01  0.12108170812E+02  0.51100000000E-03 0.  1.
         12    1    3    3    0    0 -0.14274708047E+01 -0.37986129126E+01 -0.68376280471E+00  0.41151749089E+01  0.00000000000E+00 0. -1.
</event>
<event>
 7    1  0.2353206E-008  0.4614232E+02  0.7816164E-02  0.1320468E+00
        -11   -1    0    0    0    0  0.00000000000E+00  0.00000000000E+00  0.45593999997E+02  0.45594000000E+02  0.51100000000E-03 0.  1.
         11   -1    0    0    0    0 -0.00000000000E+00 -0.00000000000E+00 -0.45593999997E+02  0.45594000000E+02  0.51100000000E-03 0. -1.
    9900012    2    1    2    0    0 -0.27469742198E+02  0.11436972097E+02  0.33818966127E+02  0.46142317221E+02  0.99999950717E+01 0.  0.
         12    1    1    2    0    0  0.27469742198E+02 -0.11436972097E+02 -0.33818966127E+02  0.45045682779E+02  0.00000000000E+00 0. -1.
         11    1    3    3    0    0 -0.90498521866E+01  0.60535336330E+01  0.73871717293E+01  0.13157332574E+02  0.51100000000E-03 0.  1.
        -11    1    3    3    0    0 -0.18642477211E+01  0.20939014897E+01  0.29931451337E+01  0.41010682836E+01  0.51100000000E-03 0. -1.
        -12    1    3    3    0    0 -0.16555642291E+02  0.32895369739E+01  0.23438649264E+02  0.28883916363E+02  0.00000000000E+00 0.  1.
</event>
<event>
 7    1  0.2353206E-008  0.4614232E+02  0.7816164E-02  0.1320468E+00
        -11   -1    0    0    0    0  0.00000000000E+00  0.00000000000E+00  0.45593999997E+02  0.45594000000E+02  0.51100000000E-03 0. -1.
         11   -1    0    0    0    0 -0.00000000000E+00 -0.00000000000E+00 -0.45593999997E+02  0.45594000000E+02  0.51100000000E-03 0.  1.
    9900012    2    1    2    0    0 -0.43434460778E+02  0.14557566627E+01 -0.11850817985E+02  0.46142317661E+02  0.99999990828E+01 0.  0.
         12    1    1    2    0    0  0.43434460778E+02 -0.14557566627E+01  0.11850817985E+02  0.45045682339E+02  0.00000000000E+00 0. -1.
         11    1    3    3    0    0 -0.74804377701E+01 -0.18638183123E+01 -0.28219068160E+01  0.82093803830E+01  0.51100000000E-03 0. -1.
        -11    1    3    3    0    0 -0.10590066390E+02 -0.22106469652E+01 -0.36853715275E+01  0.11428842011E+02  0.51100000000E-03 0.  1.
        -12    1    3    3    0    0 -0.25363956618E+02  0.55302219402E+01 -0.53435396417E+01  0.26504095267E+02  0.00000000000E+00 0.  1.
</event>
<event>
 7    1  0.2353206E-008  0.4614231E+02  0.7816164E-02  0.1320468E+00
        -11   -1    0    0    0    0  0.00000000000E+00  0.00000000000E+00  0.45593999997E+02  0.45594000000E+02  0.51100000000E-03 0.  1.
         11   -1    0    0    0    0 -0.00000000000E+00 -0.00000000000E+00 -0.45593999997E+02  0.45594000000E+02  0.51100000000E-03 0. -1.
    9900012    2    1    2    0    0 -0.33962318121E+02 -0.26762487564E+02  0.12627122396E+02  0.46142311940E+02  0.99999469219E+01 0.  0.
         12    1    1    2    0    0  0.33962318121E+02  0.26762487564E+02 -0.12627122396E+02  0.45045688060E+02  0.00000000000E+00 0. -1.
         11    1    3    3    0    0 -0.71989336952E+01 -0.77687224997E+01  0.55585092131E+01  0.11961384559E+02  0.51100000000E-03 0. -1.
        -11    1    3    3    0    0 -0.24024804664E+02 -0.15906396110E+02  0.80939341004E+01  0.29928522279E+02  0.51100000000E-03 0.  1.
         12    1    3    3    0    0 -0.27385797625E+01 -0.30873689537E+01 -0.10253209177E+01  0.42524051025E+01  0.00000000000E+00 0. -1.
</event>
<event>
 7    1  0.2353206E-008  0.4614232E+02  0.7816164E-02  0.1320468E+00
        -11   -1    0    0    0    0  0.00000000000E+00  0.00000000000E+00  0.45593999997E+02  0.45594000000E+02  0.51100000000E-03 0.  1.
         11   -1    0    0    0    0 -0.00000000000E+00 -0.00000000000E+00 -0.45593999997E+02  0.45594000000E+02  0.51100000000E-03 0. -1.
    9900012    2    1    2    0    0  0.10539426706E+02 -0.20924752497E+02  0.38473218023E+02  0.46142319991E+02  0.10000020338E+02 0.  0.
         12    1    1    2    0    0 -0.10539426706E+02  0.20924752497E+02 -0.38473218023E+02  0.45045680009E+02  0.00000000000E+00 0. -1.
         11    1    3    3    0    0  0.91896863163E+00  0.66964228773E+00  0.12907937138E+01  0.17201955738E+01  0.51100000000E-03 0. -1.
        -11    1    3    3    0    0  0.47330266943E+01 -0.13098622368E+02  0.26415048703E+02  0.29861852720E+02  0.51100000000E-03 0.  1.
        -12    1    3    3    0    0  0.48874313803E+01 -0.84957724166E+01  0.10767375607E+02  0.14560271697E+02  0.00000000000E+00 0.  1.
</event>
<event>
 7    1  0.2353206E-008  0.4614232E+02  0.7816164E-02  0.1320468E+00
        -11   -1    0    0    0    0  0.00000000000E+00  0.00000000000E+00  0.45593999997E+02  0.45594000000E+02  0.51100000000E-03 0. -1.
         11   -1    0    0    0    0 -0.00000000000E+00 -0.00000000000E+00 -0.45593999997E+02  0.45594000000E+02  0.51100000000E-03 0.  1.
    9900012    2    1    2    0    0  0.36453257318E+02 -0.25048060390E+02  0.85362874733E+01  0.46142317607E+02  0.99999985979E+01 0.  0.
         12    1    1    2    0    0 -0.36453257318E+02  0.25048060390E+02 -0.85362874733E+01  0.45045682393E+02  0.00000000000E+00 0. -1.
         11    1    3    3    0    0  0.78262796198E+01 -0.36900465602E+01  0.17264590470E+01  0.88231376169E+01  0.51100000000E-03 0. -1.
        -11    1    3    3    0    0  0.14719618735E+02 -0.15908206942E+02  0.52551644273E+01  0.22301456841E+02  0.51100000000E-03 0.  1.
        -12    1    3    3    0    0  0.13907358963E+02 -0.54498068882E+01  0.15546639991E+01  0.15017723150E+02  0.00000000000E+00 0.  1.
</event>
<event>
 7    1  0.2353206E-008  0.4614232E+02  0.7816164E-02  0.1320468E+00
        -11   -1    0    0    0    0  0.00000000000E+00  0.00000000000E+00  0.45593999997E+02  0.45594000000E+02  0.51100000000E-03 0. -1.
         11   -1    0    0    0    0 -0.00000000000E+00 -0.00000000000E+00 -0.45593999997E+02  0.45594000000E+02  0.51100000000E-03 0.  1.
    9900012    2    1    2    0    0 -0.20500540057E+02 -0.32376727103E+02 -0.23676758179E+02  0.46142317872E+02  0.10000001009E+02 0.  0.
         12    1    1    2    0    0  0.20500540057E+02  0.32376727103E+02  0.23676758179E+02  0.45045682128E+02  0.00000000000E+00 0. -1.
         11    1    3    3    0    0 -0.83148845049E+01 -0.14880494569E+02 -0.81614565356E+01  0.18899095110E+02  0.51100000000E-03 0.  1.
        -11    1    3    3    0    0 -0.10979670215E+02 -0.17989456420E+02 -0.14837638387E+02  0.25774584643E+02  0.51100000000E-03 0. -1.
         12    1    3    3    0    0 -0.12059853369E+01  0.49322388630E+00 -0.67766325654E+00  0.14686381188E+01  0.00000000000E+00 0. -1.
</event>
<event>
 7    1  0.2353206E-008  0.4614232E+02  0.7816164E-02  0.1320468E+00
        -11   -1    0    0    0    0  0.00000000000E+00  0.00000000000E+00  0.45593999997E+02  0.45594000000E+02  0.51100000000E-03 0. -1.
         11   -1    0    0    0    0 -0.00000000000E+00 -0.00000000000E+00 -0.45593999997E+02  0.45594000000E+02  0.51100000000E-03 0.  1.
    9900012    2    1    2    0    0 -0.44167411505E+02 -0.88515737045E+01  0.53818720420E-01  0.46142317715E+02  0.99999995772E+01 0.  0.
         12    1    1    2    0    0  0.44167411505E+02  0.88515737045E+01 -0.53818720420E-01  0.45045682285E+02  0.00000000000E+00 0. -1.
         11    1    3    3    0    0 -0.15594220493E+01  0.15916937776E+01 -0.95956293122E-01  0.22303573886E+01  0.51100000000E-03 0. -1.
        -11    1    3    3    0    0 -0.10271268966E+02 -0.32883061379E+01 -0.32567563348E+00  0.10789716785E+02  0.51100000000E-03 0.  1.
         12    1    3    3    0    0 -0.32336720489E+02 -0.71549613442E+01  0.47545064702E+00  0.33122243541E+02  0.00000000000E+00 0. -1.
</event>
<event>
 7    1  0.2353206E-008  0.4614232E+02  0.7816164E-02  0.1320468E+00
        -11   -1    0    0    0    0  0.00000000000E+00  0.00000000000E+00  0.45593999997E+02  0.45594000000E+02  0.51100000000E-03 0.  1.
         11   -1    0    0    0    0 -0.00000000000E+00 -0.00000000000E+00 -0.45593999997E+02  0.45594000000E+02  0.51100000000E-03 0. -1.
    9900012    2    1    2    0    0 -0.37222512699E+02 -0.25248664397E+02 -0.24703898693E+01  0.46142319502E+02  0.10000015875E+02 0.  0.
         12    1    1    2    0    0  0.37222512699E+02  0.25248664397E+02  0.24703898693E+01  0.45045680498E+02  0.00000000000E+00 0. -1.
         11    1    3    3    0    0 -0.19504480711E+02 -0.16242609717E+02 -0.11870840922E+01  0.25409767948E+02  0.51100000000E-03 0. -1.
        -11    1    3    3    0    0 -0.10025158714E+02 -0.56085770765E+01 -0.35487647577E+01  0.12023047685E+02  0.51100000000E-03 0.  1.
        -12    1    3    3    0    0 -0.76928732734E+01 -0.33974776029E+01  0.22654589806E+01  0.87095038696E+01  0.00000000000E+00 0.  1.
</event>
<event>
 7    1  0.2353206E-008  0.4614232E+02  0.7816164E-02  0.1320468E+00
        -11   -1    0    0    0    0  0.00000000000E+00  0.00000000000E+00  0.45593999997E+02  0.45594000000E+02  0.51100000000E-03 0.  1.
         11   -1    0    0    0    0 -0.00000000000E+00 -0.00000000000E+00 -0.45593999997E+02  0.45594000000E+02  0.51100000000E-03 0. -1.
    9900012    2    1    2    0    0 -0.12812399637E+02  0.12674884619E+02  0.41283205007E+02  0.46142319850E+02  0.10000019044E+02 0.  0.
         12    1    1    2    0    0  0.12812399637E+02 -0.12674884619E+02 -0.41283205007E+02  0.45045680150E+02  0.00000000000E+00 0. -1.
         11    1    3    3    0    0 -0.42029349965E+01  0.56028096446E+00  0.75911409932E+01  0.86950560196E+01  0.51100000000E-03 0. -1.
        -11    1    3    3    0    0 -0.44093417201E+01  0.78895561796E+01  0.12444382204E+02  0.15380183348E+02  0.51100000000E-03 0.  1.
        -12    1    3    3    0    0 -0.42001229201E+01  0.42250474753E+01  0.21247681810E+02  0.22067080482E+02  0.00000000000E+00 0.  1.
</event>
<event>
 7    1  0.2353206E-008  0.4614232E+02  0.7816164E-02  0.1320468E+00
        -11   -1    0    0    0    0  0.00000000000E+00  0.00000000000E+00  0.45593999997E+02  0.45594000000E+02  0.51100000000E-03 0.  1.
         11   -1    0    0    0    0 -0.00000000000E+00 -0.00000000000E+00 -0.45593999997E+02  0.45594000000E+02  0.51100000000E-03 0. -1.
    9900012    2    1    2    0    0  0.79815183731E+00 -0.40591876216E+02  0.19513481129E+02  0.46142318666E+02  0.10000008248E+02 0.  0.
         12    1    1    2    0    0 -0.79815183731E+00  0.40591876216E+02 -0.19513481129E+02  0.45045681334E+02  0.00000000000E+00 0. -1.
         11    1    3    3    0    0 -0.68258699840E+00 -0.87228839087E+01  0.36745073945E+01  0.94898173611E+01  0.51100000000E-03 0. -1.
        -11    1    3    3    0    0  0.32225853049E+01 -0.30669009753E+02  0.14073931689E+02  0.33897621874E+02  0.51100000000E-03 0.  1.
         12    1    3    3    0    0 -0.17418464692E+01 -0.11999825547E+01  0.17650420453E+01  0.27548794303E+01  0.00000000000E+00 0. -1.
</event>
<event>
 7    1  0.2353206E-008  0.4614232E+02  0.7816164E-02  0.1320468E+00
        -11   -1    0    0    0    0  0.00000000000E+00  0.00000000000E+00  0.45593999997E+02  0.45594000000E+02  0.51100000000E-03 0. -1.
         11   -1    0    0    0    0 -0.00000000000E+00 -0.00000000000E+00 -0.45593999997E+02  0.45594000000E+02  0.51100000000E-03 0.  1.
    9900012    2    1    2    0    0  0.17144462991E+02  0.51172547764E+01 -0.41339987789E+02  0.46142317653E+02  0.99999990168E+01 0.  0.
         12    1    1    2    0    0 -0.17144462991E+02 -0.51172547764E+01  0.41339987789E+02  0.45045682347E+02  0.00000000000E+00 0. -1.
         11    1    3    3    0    0  0.41500505591E+01  0.56709739394E+00 -0.32625662673E+01  0.53093180359E+01  0.51100000000E-03 0. -1.
        -11    1    3    3    0    0  0.53420327448E+01 -0.38328680798E+00 -0.18157888494E+02  0.18931274058E+02  0.51100000000E-03 0.  1.
         12    1    3    3    0    0  0.76523796871E+01  0.49334441904E+01 -0.19919533027E+02  0.21901725559E+02  0.00000000000E+00 0. -1.
</event>
<event>
 7    1  0.2353206E-008  0.4614231E+02  0.7816164E-02  0.1320468E+00
        -11   -1    0    0    0    0  0.00000000000E+00  0.00000000000E+00  0.45593999997E+02  0.45594000000E+02  0.51100000000E-03 0.  1.
         11   -1    0    0    0    0 -0.00000000000E+00 -0.00000000000E+00 -0.45593999997E+02  0.45594000000E+02  0.51100000000E-03 0. -1.
    9900012    2    1    2    0    0 -0.34685133622E+02  0.13004980652E+02  0.25630562283E+02  0.46142314979E+02  0.99999746270E+01 0.  0.
         12    1    1    2    0    0  0.34685133622E+02 -0.13004980652E+02 -0.25630562283E+02  0.45045685021E+02  0.00000000000E+00 0. -1.
         11    1    3    3    0    0 -0.60713936064E+01  0.19266177241E+01  0.10562429480E+01  0.64567271590E+01  0.51100000000E-03 0. -1.
        -11    1    3    3    0    0 -0.72509851456E+01  0.35882176360E+01  0.37136380979E+01  0.89018649489E+01  0.51100000000E-03 0.  1.
         12    1    3    3    0    0 -0.21362754869E+02  0.74901452921E+01  0.20860681237E+02  0.30783722871E+02  0.00000000000E+00 0. -1.
</event>
<event>
 7    1  0.2353206E-008  0.4614232E+02  0.7816164E-02  0.1320468E+00
        -11   -1    0    0    0    0  0.00000000000E+00  0.00000000000E+00  0.45593999997E+02  0.45594000000E+02  0.51100000000E-03 0.  1.
         11   -1    0    0    0    0 -0.00000000000E+00 -0.00000000000E+00 -0.45593999997E+02  0.45594000000E+02  0.51100000000E-03 0. -1.
    9900012    2    1    2    0    0 -0.36776100707E+02  0.19196076439E+02  0.17553990516E+02  0.46142317444E+02  0.99999971098E+01 0.  0.
         12    1    1    2    0    0  0.36776100707E+02 -0.19196076439E+02 -0.17553990516E+02  0.45045682556E+02  0.00000000000E+00 0. -1.
         11    1    3    3    0    0 -0.21521953732E+02  0.75771120601E+01  0.74518831989E+01  0.24002868226E+02  0.51100000000E-03 0.  1.
        -11    1    3    3    0    0 -0.11544082848E+01  0.19025815160E+01 -0.62677793418E-01  0.22262982011E+01  0.51100000000E-03 0. -1.
         12    1    3    3    0    0 -0.14099738691E+02  0.97163828628E+01  0.10164785111E+02  0.19913151017E+02  0.00000000000E+00 0. -1.
</event>
<event>
 7    1  0.2353206E-008  0.4614232E+02  0.7816164E-02  0.1320468E+00
        -11   -1    0    0    0    0  0.00000000000E+00  0.00000000000E+00  0.45593999997E+02  0.45594000000E+02  0.51100000000E-03 0.  1.
         11   -1    0    0    0    0 -0.00000000000E+00 -0.00000000000E+00 -0.45593999997E+02  0.45594000000E+02  0.51100000000E-03 0. -1.
    9900012    2    1    2    0    0  0.69161578308E+01 -0.30041309333E+02  0.32845090250E+02  0.46142318086E+02  0.10000002964E+02 0.  0.
         12    1    1    2    0    0 -0.69161578308E+01  0.30041309333E+02 -0.32845090250E+02  0.45045681914E+02  0.00000000000E+00 0. -1.
         11    1    3    3    0    0  0.32929359301E+01 -0.10350366233E+02  0.17796890631E+02  0.20849528162E+02  0.51100000000E-03 0. -1.
        -11    1    3    3    0    0  0.10511332549E+01 -0.34370805713E+01  0.44456766221E+01  0.57168562044E+01  0.51100000000E-03 0.  1.
         12    1    3    3    0    0  0.25720886458E+01 -0.16253862528E+02  0.10602522997E+02  0.19575933719E+02  0.00000000000E+00 0. -1.
</event>
<event>
 7    1  0.2353206E-008  0.4614232E+02  0.7816164E-02  0.1320468E+00
        -11   -1    0    0    0    0  0.00000000000E+00  0.00000000000E+00  0.45593999997E+02  0.45594000000E+02  0.51100000000E-03 0.  1.
         11   -1    0    0    0    0 -0.00000000000E+00 -0.00000000000E+00 -0.45593999997E+02  0.45594000000E+02  0.51100000000E-03 0. -1.
    9900012    2    1    2    0    0  0.23723051555E+02 -0.38291026923E+02  0.35733258648E+00  0.46142316473E+02  0.99999882500E+01 0.  0.
         12    1    1    2    0    0 -0.23723051555E+02  0.38291026923E+02 -0.35733258648E+00  0.45045683527E+02  0.00000000000E+00 0. -1.
         11    1    3    3    0    0  0.47113729415E+01 -0.10611809324E+02 -0.12095741764E+01  0.11673499992E+02  0.51100000000E-03 0. -1.
        -11    1    3    3    0    0  0.12417207701E+02 -0.21418169254E+02 -0.16774754548E+01  0.24814087641E+02  0.51100000000E-03 0.  1.
         12    1    3    3    0    0  0.65944709121E+01 -0.62610483452E+01  0.32443822177E+01  0.96547288396E+01  0.00000000000E+00 0. -1.
</event>
<event>
 7    1  0.2353206E-008  0.4614232E+02  0.7816164E-02  0.1320468E+00
        -11   -1    0    0    0    0  0.00000000000E+00  0.00000000000E+00  0.45593999997E+02  0.45594000000E+02  0.51100000000E-03 0. -1.
         11   -1    0    0    0    0 -0.00000000000E+00 -0.00000000000E+00 -0.45593999997E+02  0.45594000000E+02  0.51100000000E-03 0.  1.
    9900012    2    1    2    0    0 -0.10832175986E+02 -0.12458309875E+02 -0.41911429265E+02  0.46142318469E+02  0.10000006454E+02 0.  0.
         12    1    1    2    0    0  0.10832175986E+02  0.12458309875E+02  0.41911429265E+02  0.45045681531E+02  0.00000000000E+00 0. -1.
         11    1    3    3    0    0  0.11255601672E+01 -0.20478101774E+01 -0.83612193121E+01  0.86816128028E+01  0.51100000000E-03 0. -1.
        -11    1    3    3    0    0 -0.41616355489E+01 -0.12583966332E+01 -0.12293284126E+02  0.13039463462E+02  0.51100000000E-03 0.  1.
         12    1    3    3    0    0 -0.77961006047E+01 -0.91521030644E+01 -0.21256925828E+02  0.24421242204E+02  0.00000000000E+00 0. -1.
</event>
<event>
 7    1  0.2353206E-008  0.4614232E+02  0.7816164E-02  0.1320468E+00
        -11   -1    0    0    0    0  0.00000000000E+00  0.00000000000E+00  0.45593999997E+02  0.45594000000E+02  0.51100000000E-03 0.  1.
         11   -1    0    0    0    0 -0.00000000000E+00 -0.00000000000E+00 -0.45593999997E+02  0.45594000000E+02  0.51100000000E-03 0. -1.
    9900012    2    1    2    0    0 -0.19209692408E+02  0.93430861278E+01  0.39658645111E+02  0.46142315714E+02  0.99999813307E+01 0.  0.
         12    1    1    2    0    0  0.19209692408E+02 -0.93430861278E+01 -0.39658645111E+02  0.45045684286E+02  0.00000000000E+00 0. -1.
         11    1    3    3    0    0 -0.47298281827E+01  0.17629438878E+01  0.16991533707E+02  0.17725446787E+02  0.51100000000E-03 0. -1.
        -11    1    3    3    0    0 -0.44088850380E+01  0.27613642904E+01  0.11520157076E+02  0.12640309306E+02  0.51100000000E-03 0.  1.
        -12    1    3    3    0    0 -0.10070979188E+02  0.48187779496E+01  0.11146954327E+02  0.15776559621E+02  0.00000000000E+00 0.  1.
</event>
<event>
 7    1  0.2353206E-008  0.4614232E+02  0.7816164E-02  0.1320468E+00
        -11   -1    0    0    0    0  0.00000000000E+00  0.00000000000E+00  0.45593999997E+02  0.45594000000E+02  0.51100000000E-03 0. -1.
         11   -1    0    0    0    0 -0.00000000000E+00 -0.00000000000E+00 -0.45593999997E+02  0.45594000000E+02  0.51100000000E-03 0.  1.
    9900012    2    1    2    0    0 -0.13581021952E+02  0.18856878519E+01 -0.42908198948E+02  0.46142317489E+02  0.99999975158E+01 0.  0.
         12    1    1    2    0    0  0.13581021952E+02 -0.18856878519E+01  0.42908198948E+02  0.45045682511E+02  0.00000000000E+00 0. -1.
         11    1    3    3    0    0 -0.10944435458E+01 -0.34527092625E+00 -0.13411096420E+02  0.13460108697E+02  0.51100000000E-03 0. -1.
        -11    1    3    3    0    0 -0.20386487169E+01  0.27576947974E+01 -0.52035876313E+01  0.62320376832E+01  0.51100000000E-03 0.  1.
        -12    1    3    3    0    0 -0.10447929689E+02 -0.52673601929E+00 -0.24293514897E+02  0.26450171109E+02  0.00000000000E+00 0.  1.
</event>
<event>
 7    1  0.2353206E-008  0.4614232E+02  0.7816164E-02  0.1320468E+00
        -11   -1    0    0    0    0  0.00000000000E+00  0.00000000000E+00  0.45593999997E+02  0.45594000000E+02  0.51100000000E-03 0.  1.
         11   -1    0    0    0    0 -0.00000000000E+00 -0.00000000000E+00 -0.45593999997E+02  0.45594000000E+02  0.51100000000E-03 0. -1.
    9900012    2    1    2    0    0  0.21868177954E+02 -0.21562013493E+02  0.32954147282E+02  0.46142318121E+02  0.10000003278E+02 0.  0.
         12    1    1    2    0    0 -0.21868177954E+02  0.21562013493E+02 -0.32954147282E+02  0.45045681879E+02  0.00000000000E+00 0. -1.
         11    1    3    3    0    0  0.13605798327E+01 -0.73599561294E-01  0.26139022795E+01  0.29477245062E+01  0.51100000000E-03 0. -1.
        -11    1    3    3    0    0  0.73488034678E+00 -0.47234053934E+01  0.39410627658E+01  0.61953679164E+01  0.51100000000E-03 0.  1.
        -12    1    3    3    0    0  0.19772717775E+02 -0.16765008538E+02  0.26399182236E+02  0.36999225698E+02  0.00000000000E+00 0.  1.
</event>
<event>
 7    1  0.2353206E-008  0.4614232E+02  0.7816164E-02  0.1320468E+00
        -11   -1    0    0    0    0  0.00000000000E+00  0.00000000000E+00  0.45593999997E+02  0.45594000000E+02  0.51100000000E-03 0.  1.
         11   -1    0    0    0    0 -0.00000000000E+00 -0.00000000000E+00 -0.45593999997E+02  0.45594000000E+02  0.51100000000E-03 0. -1.
    9900012    2    1    2    0    0 -0.13949307426E+02  0.10621851820E+02  0.41493452695E+02  0.46142317296E+02  0.99999957546E+01 0.  0.
         12    1    1    2    0    0  0.13949307426E+02 -0.10621851820E+02 -0.41493452695E+02  0.45045682704E+02  0.00000000000E+00 0. -1.
         11    1    3    3    0    0 -0.41139629945E+01  0.64405933746E+00  0.51836705380E+01  0.66490559072E+01  0.51100000000E-03 0. -1.
        -11    1    3    3    0    0 -0.31573516207E+01  0.53617626063E+01  0.85744818215E+01  0.10594295931E+02  0.51100000000E-03 0.  1.
        -12    1    3    3    0    0 -0.66779928105E+01  0.46160298759E+01  0.27735300336E+02  0.28898965457E+02  0.00000000000E+00 0.  1.
</event>
<event>
 7    1  0.2353206E-008  0.4614232E+02  0.7816164E-02  0.1320468E+00
        -11   -1    0    0    0    0  0.00000000000E+00  0.00000000000E+00  0.45593999997E+02  0.45594000000E+02  0.51100000000E-03 0.  1.
         11   -1    0    0    0    0 -0.00000000000E+00 -0.00000000000E+00 -0.45593999997E+02  0.45594000000E+02  0.51100000000E-03 0. -1.
    9900012    2    1    2    0    0 -0.35028311773E+01 -0.14367786058E+02  0.42548917519E+02  0.46142317804E+02  0.10000000391E+02 0.  0.
         12    1    1    2    0    0  0.35028311773E+01  0.14367786058E+02 -0.42548917519E+02  0.45045682196E+02  0.00000000000E+00 0. -1.
         11    1    3    3    0    0  0.24595188246E+00 -0.34935138640E+01  0.31822851499E+01  0.47320260442E+01  0.51100000000E-03 0. -1.
        -11    1    3    3    0    0  0.13459145106E+01 -0.33571176145E+01  0.14270957534E+02  0.14722158597E+02  0.51100000000E-03 0.  1.
         12    1    3    3    0    0 -0.50946975704E+01 -0.75171545792E+01  0.25095674835E+02  0.26688133163E+02  0.00000000000E+00 0. -1.
</event>
<event>
 7    1  0.2353206E-008  0.4614232E+02  0.7816164E-02  0.1320468E+00
        -11   -1    0    0    0    0  0.00000000000E+00  0.00000000000E+00  0.45593999997E+02  0.45594000000E+02  0.51100000000E-03 0.  1.
         11   -1    0    0    0    0 -0.00000000000E+00 -0.00000000000E+00 -0.45593999997E+02  0.45594000000E+02  0.51100000000E-03 0. -1.
    9900012    2    1    2    0    0  0.28382251075E+02  0.34693266680E+02 -0.44652571044E+01  0.46142318187E+02  0.10000003879E+02 0.  0.
         12    1    1    2    0    0 -0.28382251075E+02 -0.34693266680E+02  0.44652571044E+01  0.45045681813E+02  0.00000000000E+00 0. -1.
         11    1    3    3    0    0  0.15566554989E+02  0.20016152786E+02  0.71433486414E+00  0.25366794854E+02  0.51100000000E-03 0.  1.
        -11    1    3    3    0    0  0.33508078581E+01  0.11120555348E+01 -0.37057992925E+00  0.35499169792E+01  0.51100000000E-03 0. -1.
        -12    1    3    3    0    0  0.94648882276E+01  0.13565058360E+02 -0.48090120393E+01  0.17225606354E+02  0.00000000000E+00 0.  1.
</event>
<event>
 7    1  0.2353206E-008  0.4614232E+02  0.7816164E-02  0.1320468E+00
        -11   -1    0    0    0    0  0.00000000000E+00  0.00000000000E+00  0.45593999997E+02  0.45594000000E+02  0.51100000000E-03 0.  1.
         11   -1    0    0    0    0 -0.00000000000E+00 -0.00000000000E+00 -0.45593999997E+02  0.45594000000E+02  0.51100000000E-03 0. -1.
    9900012    2    1    2    0    0  0.32306538610E+02 -0.81523825381E+01  0.30314018806E+02  0.46142317475E+02  0.99999973876E+01 0.  0.
         12    1    1    2    0    0 -0.32306538610E+02  0.81523825381E+01 -0.30314018806E+02  0.45045682525E+02  0.00000000000E+00 0. -1.
         11    1    3    3    0    0  0.84479273409E+01  0.56968335730E+00  0.90936247637E+01  0.12425217386E+02  0.51100000000E-03 0. -1.
        -11    1    3    3    0    0  0.90801595796E+01 -0.50660531198E+01  0.12166601787E+02  0.16004386633E+02  0.51100000000E-03 0.  1.
        -12    1    3    3    0    0  0.14778451689E+02 -0.36560127757E+01  0.90537922558E+01  0.17712713455E+02  0.00000000000E+00 0.  1.
</event>
<event>
 7    1  0.2353206E-008  0.4614232E+02  0.7816164E-02  0.1320468E+00
        -11   -1    0    0    0    0  0.00000000000E+00  0.00000000000E+00  0.45593999997E+02  0.45594000000E+02  0.51100000000E-03 0.  1.
         11   -1    0    0    0    0 -0.00000000000E+00 -0.00000000000E+00 -0.45593999997E+02  0.45594000000E+02  0.51100000000E-03 0. -1.
    9900012    2    1    2    0    0  0.16534566687E+02 -0.41084800340E+02  0.82316933826E+01  0.46142317738E+02  0.99999997849E+01 0.  0.
         12    1    1    2    0    0 -0.16534566687E+02  0.41084800340E+02 -0.82316933826E+01  0.45045682262E+02  0.00000000000E+00 0. -1.
         11    1    3    3    0    0 -0.77921927748E+00 -0.31488437055E+01  0.70298180697E+00  0.33191238371E+01  0.51100000000E-03 0. -1.
        -11    1    3    3    0    0  0.12216910208E+02 -0.32420386505E+02  0.61179908584E+01  0.35181872727E+02  0.51100000000E-03 0.  1.
        -12    1    3    3    0    0  0.50968757565E+01 -0.55155701303E+01  0.14107207172E+01  0.76413211739E+01  0.00000000000E+00 0.  1.
</event>
<event>
 7    1  0.2353206E-008  0.4614232E+02  0.7816164E-02  0.1320468E+00
        -11   -1    0    0    0    0  0.00000000000E+00  0.00000000000E+00  0.45593999997E+02  0.45594000000E+02  0.51100000000E-03 0.  1.
         11   -1    0    0    0    0 -0.00000000000E+00 -0.00000000000E+00 -0.45593999997E+02  0.45594000000E+02  0.51100000000E-03 0. -1.
    9900012    2    1    2    0    0 -0.40625134533E+02 -0.36620308849E+01  0.19112859024E+02  0.46142318674E+02  0.10000008323E+02 0.  0.
         12    1    1    2    0    0  0.40625134533E+02  0.36620308849E+01 -0.19112859024E+02  0.45045681326E+02  0.00000000000E+00 0. -1.
         11    1    3    3    0    0 -0.16691565287E+02 -0.22066730368E+01  0.98248691507E+01  0.19493737757E+02  0.51100000000E-03 0. -1.
        -11    1    3    3    0    0 -0.22882066109E+02 -0.21386617985E+01  0.10153563515E+02  0.25124841811E+02  0.51100000000E-03 0.  1.
         12    1    3    3    0    0 -0.10515031369E+01  0.68330395046E+00 -0.86557364140E+00  0.15237391064E+01  0.00000000000E+00 0. -1.
</event>
<event>
 7    1  0.2353206E-008  0.4614232E+02  0.7816164E-02  0.1320468E+00
        -11   -1    0    0    0    0  0.00000000000E+00  0.00000000000E+00  0.45593999997E+02  0.45594000000E+02  0.51100000000E-03 0.  1.
         11   -1    0    0    0    0 -0.00000000000E+00 -0.00000000000E+00 -0.45593999997E+02  0.45594000000E+02  0.51100000000E-03 0. -1.
    9900012    2    1    2    0    0 -0.11131843451E+02 -0.35865295083E+02  0.24877221563E+02  0.46142317824E+02  0.10000000575E+02 0.  0.
         12    1    1    2    0    0  0.11131843451E+02  0.35865295083E+02 -0.24877221563E+02  0.45045682176E+02  0.00000000000E+00 0. -1.
         11    1    3    3    0    0 -0.66154942077E+00 -0.96255837267E+01  0.10458199968E+02  0.14228965407E+02  0.51100000000E-03 0. -1.
        -11    1    3    3    0    0 -0.29780839841E+01 -0.10144183504E+02  0.69515841376E+01  0.12652982473E+02  0.51100000000E-03 0.  1.
         12    1    3    3    0    0 -0.74922100459E+01 -0.16095527852E+02  0.74674374571E+01  0.19260369944E+02  0.00000000000E+00 0. -1.
</event>
<event>
 7    1  0.2353206E-008  0.4614232E+02  0.7816164E-02  0.1320468E+00
        -11   -1    0    0    0    0  0.00000000000E+00  0.00000000000E+00  0.45593999997E+02  0.45594000000E+02  0.51100000000E-03 0.  1.
         11   -1    0    0    0    0 -0.00000000000E+00 -0.00000000000E+00 -0.45593999997E+02  0.45594000000E+02  0.51100000000E-03 0. -1.
    9900012    2    1    2    0    0  0.28797877800E+02 -0.34418321024E+02  0.38954696483E+01  0.46142320166E+02  0.10000021929E+02 0.  0.
         12    1    1    2    0    0 -0.28797877800E+02  0.34418321024E+02 -0.38954696483E+01  0.45045679834E+02  0.00000000000E+00 0. -1.
         11    1    3    3    0    0  0.10242968855E+02 -0.10931410800E+02  0.28312199556E+01  0.15245653798E+02  0.51100000000E-03 0.  1.
        -11    1    3    3    0    0  0.97969865789E+01 -0.11513694177E+02  0.42919718257E+01  0.15715187624E+02  0.51100000000E-03 0. -1.
         12    1    3    3    0    0  0.87579223666E+01 -0.11973216047E+02 -0.32277221330E+01  0.15181478744E+02  0.00000000000E+00 0. -1.
</event>
<event>
 7    1  0.2353206E-008  0.4614232E+02  0.7816164E-02  0.1320468E+00
        -11   -1    0    0    0    0  0.00000000000E+00  0.00000000000E+00  0.45593999997E+02  0.45594000000E+02  0.51100000000E-03 0.  1.
         11   -1    0    0    0    0 -0.00000000000E+00 -0.00000000000E+00 -0.45593999997E+02  0.45594000000E+02  0.51100000000E-03 0. -1.
    9900012    2    1    2    0    0 -0.15177323978E+01 -0.44593352301E+02 -0.61840842969E+01  0.46142317857E+02  0.10000000878E+02 0.  0.
         12    1    1    2    0    0  0.15177323978E+01  0.44593352301E+02  0.61840842969E+01  0.45045682143E+02  0.00000000000E+00 0. -1.
         11    1    3    3    0    0 -0.23988869057E+01 -0.85601221366E+01  0.45669106834E+00  0.89016243671E+01  0.51100000000E-03 0. -1.
        -11    1    3    3    0    0 -0.13113486476E+01 -0.15477165426E+02 -0.16486298258E-01  0.15532628785E+02  0.51100000000E-03 0.  1.
        -12    1    3    3    0    0  0.21925031555E+01 -0.20556064738E+02 -0.66242890670E+01  0.21708064705E+02  0.00000000000E+00 0.  1.
</event>
<event>
 7    1  0.2353206E-008  0.4614232E+02  0.7816164E-02  0.1320468E+00
        -11   -1    0    0    0    0  0.00000000000E+00  0.00000000000E+00  0.45593999997E+02  0.45594000000E+02  0.51100000000E-03 0.  1.
         11   -1    0    0    0    0 -0.00000000000E+00 -0.00000000000E+00 -0.45593999997E+02  0.45594000000E+02  0.51100000000E-03 0. -1.
    9900012    2    1    2    0    0  0.38149712871E+02  0.74072882036E+01  0.22778167978E+02  0.46142318219E+02  0.10000004178E+02 0.  0.
         12    1    1    2    0    0 -0.38149712871E+02 -0.74072882036E+01 -0.22778167978E+02  0.45045681781E+02  0.00000000000E+00 0. -1.
         11    1    3    3    0    0  0.56342678340E+01  0.26395407947E+01  0.34987775644E+01  0.71381786429E+01  0.51100000000E-03 0. -1.
        -11    1    3    3    0    0  0.21020554863E+02  0.22145740226E+01  0.16729129880E+02  0.26956109728E+02  0.51100000000E-03 0.  1.
         12    1    3    3    0    0  0.11494890174E+02  0.25531733863E+01  0.25502605335E+01  0.12048029849E+02  0.00000000000E+00 0. -1.
</event>
<event>
 7    1  0.2353206E-008  0.4614232E+02  0.7816164E-02  0.1320468E+00
        -11   -1    0    0    0    0  0.00000000000E+00  0.00000000000E+00  0.45593999997E+02  0.45594000000E+02  0.51100000000E-03 0. -1.
         11   -1    0    0    0    0 -0.00000000000E+00 -0.00000000000E+00 -0.45593999997E+02  0.45594000000E+02  0.51100000000E-03 0.  1.
    9900012    2    1    2    0    0  0.12410507724E+02  0.25073709454E+02 -0.35304415270E+02  0.46142319349E+02  0.10000014480E+02 0.  0.
         12    1    1    2    0    0 -0.12410507724E+02 -0.25073709454E+02  0.35304415270E+02  0.45045680651E+02  0.00000000000E+00 0. -1.
         11    1    3    3    0    0  0.31526107519E+01  0.46219095096E+01 -0.10393410295E+02  0.11803557933E+02  0.51100000000E-03 0. -1.
        -11    1    3    3    0    0  0.34221632165E+01  0.63809377173E+01 -0.13452053177E+02  0.15276953301E+02  0.51100000000E-03 0.  1.
         12    1    3    3    0    0  0.58357337555E+01  0.14070862227E+02 -0.11458951798E+02  0.19061808115E+02  0.00000000000E+00 0. -1.
</event>
<event>
 7    1  0.2353206E-008  0.4614232E+02  0.7816164E-02  0.1320468E+00
        -11   -1    0    0    0    0  0.00000000000E+00  0.00000000000E+00  0.45593999997E+02  0.45594000000E+02  0.51100000000E-03 0.  1.
         11   -1    0    0    0    0 -0.00000000000E+00 -0.00000000000E+00 -0.45593999997E+02  0.45594000000E+02  0.51100000000E-03 0. -1.
    9900012    2    1    2    0    0 -0.52888488204E+01 -0.16374935065E+02  0.41629354012E+02  0.46142317236E+02  0.99999952116E+01 0.  0.
         12    1    1    2    0    0  0.52888488204E+01  0.16374935065E+02 -0.41629354012E+02  0.45045682764E+02  0.00000000000E+00 0. -1.
         11    1    3    3    0    0 -0.59920701696E+01 -0.87181436491E+01  0.15373224794E+02  0.18661376542E+02  0.51100000000E-03 0.  1.
        -11    1    3    3    0    0 -0.38900291545E+00 -0.25139901499E+01  0.12458704495E+02  0.12715769253E+02  0.51100000000E-03 0. -1.
        -12    1    3    3    0    0  0.10922242646E+01 -0.51428012665E+01  0.13797424723E+02  0.14765171442E+02  0.00000000000E+00 0.  1.
</event>
<event>
 7    1  0.2353206E-008  0.4614232E+02  0.7816164E-02  0.1320468E+00
        -11   -1    0    0    0    0  0.00000000000E+00  0.00000000000E+00  0.45593999997E+02  0.45594000000E+02  0.51100000000E-03 0. -1.
         11   -1    0    0    0    0 -0.00000000000E+00 -0.00000000000E+00 -0.45593999997E+02  0.45594000000E+02  0.51100000000E-03 0.  1.
    9900012    2    1    2    0    0 -0.21583500989E+02  0.31856174631E+02 -0.23419009971E+02  0.46142318686E+02  0.10000008431E+02 0.  0.
         12    1    1    2    0    0  0.21583500989E+02 -0.31856174631E+02  0.23419009971E+02  0.45045681314E+02  0.00000000000E+00 0. -1.
         11    1    3    3    0    0 -0.57360728082E+01  0.94460920372E+01 -0.27252432001E+01  0.11382360774E+02  0.51100000000E-03 0. -1.
        -11    1    3    3    0    0 -0.11526497083E+02  0.19695298595E+02 -0.17178909455E+02  0.28563610627E+02  0.51100000000E-03 0.  1.
         12    1    3    3    0    0 -0.43209310982E+01  0.27147839988E+01 -0.35148573156E+01  0.61963472841E+01  0.00000000000E+00 0. -1.
</event>
<event>
 7    1  0.2353206E-008  0.4614232E+02  0.7816164E-02  0.1320468E+00
        -11   -1    0    0    0    0  0.00000000000E+00  0.00000000000E+00  0.45593999997E+02  0.45594000000E+02  0.51100000000E-03 0. -1.
         11   -1    0    0    0    0 -0.00000000000E+00 -0.00000000000E+00 -0.45593999997E+02  0.45594000000E+02  0.51100000000E-03 0.  1.
    9900012    2    1    2    0    0 -0.32344168918E+02 -0.22804183526E+02 -0.21515980017E+02  0.46142318239E+02  0.10000004354E+02 0.  0.
         12    1    1    2    0    0  0.32344168918E+02  0.22804183526E+02  0.21515980017E+02  0.45045681761E+02  0.00000000000E+00 0. -1.
         11    1    3    3    0    0 -0.63506678311E+01 -0.38855046786E+01 -0.13164116576E+01  0.75604939271E+01  0.51100000000E-03 0. -1.
        -11    1    3    3    0    0 -0.14731632706E+02 -0.14377033126E+02 -0.14424444124E+02  0.25135327176E+02  0.51100000000E-03 0.  1.
        -12    1    3    3    0    0 -0.11261868381E+02 -0.45416457213E+01 -0.57751242355E+01  0.13446497136E+02  0.00000000000E+00 0.  1.
</event>
<event>
 7    1  0.2353206E-008  0.4614232E+02  0.7816164E-02  0.1320468E+00
        -11   -1    0    0    0    0  0.00000000000E+00  0.00000000000E+00  0.45593999997E+02  0.45594000000E+02  0.51100000000E-03 0.  1.
         11   -1    0    0    0    0 -0.00000000000E+00 -0.00000000000E+00 -0.45593999997E+02  0.45594000000E+02  0.51100000000E-03 0. -1.
    9900012    2    1    2    0    0 -0.32182606300E+02  0.13780949187E+02  0.28345701603E+02  0.46142317542E+02  0.99999980038E+01 0.  0.
         12    1    1    2    0    0  0.32182606300E+02 -0.13780949187E+02 -0.28345701603E+02  0.45045682458E+02  0.00000000000E+00 0. -1.
         11    1    3    3    0    0 -0.12137991305E+02  0.42776848931E+01  0.66334357229E+01  0.14478670198E+02  0.51100000000E-03 0. -1.
        -11    1    3    3    0    0 -0.11201366640E+02  0.49096204814E+01  0.76399685539E+01  0.14420267253E+02  0.51100000000E-03 0.  1.
         12    1    3    3    0    0 -0.88432483554E+01  0.45936438123E+01  0.14072297326E+02  0.17243380092E+02  0.00000000000E+00 0. -1.
</event>
<event>
 7    1  0.2353206E-008  0.4614232E+02  0.7816164E-02  0.1320468E+00
        -11   -1    0    0    0    0  0.00000000000E+00  0.00000000000E+00  0.45593999997E+02  0.45594000000E+02  0.51100000000E-03 0.  1.
         11   -1    0    0    0    0 -0.00000000000E+00 -0.00000000000E+00 -0.45593999997E+02  0.45594000000E+02  0.51100000000E-03 0. -1.
    9900012    2    1    2    0    0 -0.36131338166E+01 -0.35900106194E+02  0.26967406098E+02  0.46142319271E+02  0.10000013767E+02 0.  0.
         12    1    1    2    0    0  0.36131338166E+01  0.35900106194E+02 -0.26967406098E+02  0.45045680729E+02  0.00000000000E+00 0. -1.
         11    1    3    3    0    0 -0.45568002268E+01 -0.93236213602E+01  0.79711767346E+01  0.13085641076E+02  0.51100000000E-03 0. -1.
        -11    1    3    3    0    0  0.12964501818E+01 -0.25500406671E+02  0.16738277837E+02  0.30530664400E+02  0.51100000000E-03 0.  1.
        -12    1    3    3    0    0 -0.35278377153E+00 -0.10760781628E+01  0.22579515256E+01  0.25260137953E+01  0.00000000000E+00 0.  1.
</event>
<event>
 7    1  0.2353206E-008  0.4614232E+02  0.7816164E-02  0.1320468E+00
        -11   -1    0    0    0    0  0.00000000000E+00  0.00000000000E+00  0.45593999997E+02  0.45594000000E+02  0.51100000000E-03 0.  1.
         11   -1    0    0    0    0 -0.00000000000E+00 -0.00000000000E+00 -0.45593999997E+02  0.45594000000E+02  0.51100000000E-03 0. -1.
    9900012    2    1    2    0    0  0.21562511107E+02  0.39500509705E+02 -0.19701097188E+01  0.46142317804E+02  0.10000000395E+02 0.  0.
         12    1    1    2    0    0 -0.21562511107E+02 -0.39500509705E+02  0.19701097188E+01  0.45045682196E+02  0.00000000000E+00 0. -1.
         11    1    3    3    0    0  0.17382850704E+01  0.48378497771E+01 -0.19489734386E+01  0.54977198162E+01  0.51100000000E-03 0. -1.
        -11    1    3    3    0    0  0.81470897368E+01  0.16780091425E+02  0.35570713011E+01  0.18989452228E+02  0.51100000000E-03 0.  1.
        -12    1    3    3    0    0  0.11677136300E+02  0.17882568502E+02 -0.35782075812E+01  0.21655145760E+02  0.00000000000E+00 0.  1.
</event>
<event>
 7    1  0.2353206E-008  0.4614232E+02  0.7816164E-02  0.1320468E+00
        -11   -1    0    0    0    0  0.00000000000E+00  0.00000000000E+00  0.45593999997E+02  0.45594000000E+02  0.51100000000E-03 0.  1.
         11   -1    0    0    0    0 -0.00000000000E+00 -0.00000000000E+00 -0.45593999997E+02  0.45594000000E+02  0.51100000000E-03 0. -1.
    9900012    2    1    2    0    0 -0.13169930535E+02 -0.11232004379E+02  0.41587361705E+02  0.46142316008E+02  0.99999840167E+01 0.  0.
         12    1    1    2    0    0  0.13169930535E+02  0.11232004379E+02 -0.41587361705E+02  0.45045683992E+02  0.00000000000E+00 0. -1.
         11    1    3    3    0    0 -0.83081929115E+00 -0.33425472579E+01  0.54876541758E+01  0.64789838308E+01  0.51100000000E-03 0. -1.
        -11    1    3    3    0    0 -0.11746532873E+02 -0.89249334613E+01  0.35208221897E+02  0.38174001116E+02  0.51100000000E-03 0.  1.
        -12    1    3    3    0    0 -0.59257837104E+00  0.10354763401E+01  0.89148563243E+00  0.14893310611E+01  0.00000000000E+00 0.  1.
</event>
<event>
 7    1  0.2353206E-008  0.4614232E+02  0.7816164E-02  0.1320468E+00
        -11   -1    0    0    0    0  0.00000000000E+00  0.00000000000E+00  0.45593999997E+02  0.45594000000E+02  0.51100000000E-03 0.  1.
         11   -1    0    0    0    0 -0.00000000000E+00 -0.00000000000E+00 -0.45593999997E+02  0.45594000000E+02  0.51100000000E-03 0. -1.
    9900012    2    1    2    0    0 -0.14914674984E+02 -0.41293427225E+02  0.10075643746E+02  0.46142320309E+02  0.10000023237E+02 0.  0.
         12    1    1    2    0    0  0.14914674984E+02  0.41293427225E+02 -0.10075643746E+02  0.45045679691E+02  0.00000000000E+00 0. -1.
         11    1    3    3    0    0 -0.29068973725E+01 -0.17913631545E+02  0.16523340192E+01  0.18223019932E+02  0.51100000000E-03 0. -1.
        -11    1    3    3    0    0 -0.34565845716E+01 -0.81841738112E+01  0.48451558091E+01  0.10119496675E+02  0.51100000000E-03 0.  1.
         12    1    3    3    0    0 -0.85511930401E+01 -0.15195621869E+02  0.35781539176E+01  0.17799803702E+02  0.00000000000E+00 0. -1.
</event>
<event>
 7    1  0.2353206E-008  0.4614232E+02  0.7816164E-02  0.1320468E+00
        -11   -1    0    0    0    0  0.00000000000E+00  0.00000000000E+00  0.45593999997E+02  0.45594000000E+02  0.51100000000E-03 0. -1.
         11   -1    0    0    0    0 -0.00000000000E+00 -0.00000000000E+00 -0.45593999997E+02  0.45594000000E+02  0.51100000000E-03 0.  1.
    9900012    2    1    2    0    0  0.37716777815E+02 -0.20408792919E+02 -0.13785472046E+02  0.46142318779E+02  0.10000009280E+02 0.  0.
         12    1    1    2    0    0 -0.37716777815E+02  0.20408792919E+02  0.13785472046E+02  0.45045681221E+02  0.00000000000E+00 0. -1.
         11    1    3    3    0    0  0.11978729274E+02 -0.49990890061E+01 -0.83215353159E+01  0.15418456349E+02  0.51100000000E-03 0. -1.
        -11    1    3    3    0    0  0.15198712391E+02 -0.80835703741E+01 -0.47993822095E+01  0.17871178982E+02  0.51100000000E-03 0.  1.
         12    1    3    3    0    0  0.10539336150E+02 -0.73261335385E+01 -0.66455452057E+00  0.12852683448E+02  0.00000000000E+00 0. -1.
</event>
<event>
 7    1  0.2353206E-008  0.4614232E+02  0.7816164E-02  0.1320468E+00
        -11   -1    0    0    0    0  0.00000000000E+00  0.00000000000E+00  0.45593999997E+02  0.45594000000E+02  0.51100000000E-03 0.  1.
         11   -1    0    0    0    0 -0.00000000000E+00 -0.00000000000E+00 -0.45593999997E+02  0.45594000000E+02  0.51100000000E-03 0. -1.
    9900012    2    1    2    0    0 -0.42706120274E+02  0.13990710671E+01  0.14259851435E+02  0.46142317947E+02  0.10000001692E+02 0.  0.
         12    1    1    2    0    0  0.42706120274E+02 -0.13990710671E+01 -0.14259851435E+02  0.45045682053E+02  0.00000000000E+00 0. -1.
         11    1    3    3    0    0 -0.51972967332E+01  0.27506440598E+00 -0.22289677354E+00  0.52093413205E+01  0.51100000000E-03 0. -1.
        -11    1    3    3    0    0 -0.17639791147E+02  0.10411149855E+00  0.10847242806E+02  0.20708349709E+02  0.51100000000E-03 0.  1.
        -12    1    3    3    0    0 -0.19869032394E+02  0.10198951626E+01  0.36355054024E+01  0.20224626917E+02  0.00000000000E+00 0.  1.
</event>
<event>
 7    1  0.2353206E-008  0.4614232E+02  0.7816164E-02  0.1320468E+00
        -11   -1    0    0    0    0  0.00000000000E+00  0.00000000000E+00  0.45593999997E+02  0.45594000000E+02  0.51100000000E-03 0.  1.
         11   -1    0    0    0    0 -0.00000000000E+00 -0.00000000000E+00 -0.45593999997E+02  0.45594000000E+02  0.51100000000E-03 0. -1.
    9900012    2    1    2    0    0  0.23538065268E+02 -0.15576837940E+02  0.35106053756E+02  0.46142318664E+02  0.10000008231E+02 0.  0.
         12    1    1    2    0    0 -0.23538065268E+02  0.15576837940E+02 -0.35106053756E+02  0.45045681336E+02  0.00000000000E+00 0. -1.
         11    1    3    3    0    0  0.16340063352E+01 -0.29225002659E+01  0.55022910924E+01  0.64409775682E+01  0.51100000000E-03 0. -1.
        -11    1    3    3    0    0  0.91066451176E+01 -0.86155770997E+01  0.10485171570E+02  0.16343132416E+02  0.51100000000E-03 0.  1.
         12    1    3    3    0    0  0.12797413815E+02 -0.40387605746E+01  0.19118591093E+02  0.23358208679E+02  0.00000000000E+00 0. -1.
</event>
<event>
 7    1  0.2353206E-008  0.4614232E+02  0.7816164E-02  0.1320468E+00
        -11   -1    0    0    0    0  0.00000000000E+00  0.00000000000E+00  0.45593999997E+02  0.45594000000E+02  0.51100000000E-03 0.  1.
         11   -1    0    0    0    0 -0.00000000000E+00 -0.00000000000E+00 -0.45593999997E+02  0.45594000000E+02  0.51100000000E-03 0. -1.
    9900012    2    1    2    0    0 -0.41436662668E+02 -0.58704164768E+01  0.16662972672E+02  0.46142318066E+02  0.10000002776E+02 0.  0.
         12    1    1    2    0    0  0.41436662668E+02  0.58704164768E+01 -0.16662972672E+02  0.45045681934E+02  0.00000000000E+00 0. -1.
         11    1    3    3    0    0 -0.11463183478E+01  0.35763967363E+00  0.15952696750E+01  0.19967066604E+01  0.51100000000E-03 0. -1.
        -11    1    3    3    0    0 -0.35620369518E+02 -0.28566337360E+01  0.12999891604E+02  0.38025889376E+02  0.51100000000E-03 0.  1.
         12    1    3    3    0    0 -0.46699748023E+01 -0.33714224145E+01  0.20678113933E+01  0.61197220287E+01  0.00000000000E+00 0. -1.
</event>
<event>
 7    1  0.2353206E-008  0.4614232E+02  0.7816164E-02  0.1320468E+00
        -11   -1    0    0    0    0  0.00000000000E+00  0.00000000000E+00  0.45593999997E+02  0.45594000000E+02  0.51100000000E-03 0. -1.
         11   -1    0    0    0    0 -0.00000000000E+00 -0.00000000000E+00 -0.45593999997E+02  0.45594000000E+02  0.51100000000E-03 0.  1.
    9900012    2    1    2    0    0 -0.32387517463E+02 -0.30753153007E+02  0.58656442578E+01  0.46142317744E+02  0.99999998480E+01 0.  0.
         12    1    1    2    0    0  0.32387517463E+02  0.30753153007E+02 -0.58656442578E+01  0.45045682256E+02  0.00000000000E+00 0. -1.
         11    1    3    3    0    0 -0.20018080773E+01 -0.86094565542E+00  0.13743266827E+01  0.25762835814E+01  0.51100000000E-03 0. -1.
        -11    1    3    3    0    0 -0.25025399847E+02 -0.23301271652E+02  0.54374510308E+00  0.34198180611E+02  0.51100000000E-03 0.  1.
        -12    1    3    3    0    0 -0.53603095389E+01 -0.65909356999E+01  0.39475724720E+01  0.93678535522E+01  0.00000000000E+00 0.  1.
</event>
<event>
 7    1  0.2353206E-008  0.4614232E+02  0.7816164E-02  0.1320468E+00
        -11   -1    0    0    0    0  0.00000000000E+00  0.00000000000E+00  0.45593999997E+02  0.45594000000E+02  0.51100000000E-03 0.  1.
         11   -1    0    0    0    0 -0.00000000000E+00 -0.00000000000E+00 -0.45593999997E+02  0.45594000000E+02  0.51100000000E-03 0. -1.
    9900012    2    1    2    0    0  0.39161838037E+02  0.52656171607E+01  0.21627233081E+02  0.46142317707E+02  0.99999995083E+01 0.  0.
         12    1    1    2    0    0 -0.39161838037E+02 -0.52656171607E+01 -0.21627233081E+02  0.45045682293E+02  0.00000000000E+00 0. -1.
         11    1    3    3    0    0  0.83029466490E+01 -0.28996654505E+01  0.41414388957E+01  0.97210338529E+01  0.51100000000E-03 0.  1.
        -11    1    3    3    0    0  0.34134683328E+01  0.93536090369E+00  0.24322035820E+01  0.42944476484E+01  0.51100000000E-03 0. -1.
        -12    1    3    3    0    0  0.27445423055E+02  0.72299217075E+01  0.15053590603E+02  0.32126836206E+02  0.00000000000E+00 0.  1.
</event>
<event>
 7    1  0.2353206E-008  0.4614232E+02  0.7816164E-02  0.1320468E+00
        -11   -1    0    0    0    0  0.00000000000E+00  0.00000000000E+00  0.45593999997E+02  0.45594000000E+02  0.51100000000E-03 0.  1.
         11   -1    0    0    0    0 -0.00000000000E+00 -0.00000000000E+00 -0.45593999997E+02  0.45594000000E+02  0.51100000000E-03 0. -1.
    9900012    2    1    2    0    0 -0.42147530227E+02 -0.84736400586E+01 -0.13449788535E+02  0.46142315504E+02  0.99999794205E+01 0.  0.
         12    1    1    2    0    0  0.42147530227E+02  0.84736400586E+01  0.13449788535E+02  0.45045684496E+02  0.00000000000E+00 0. -1.
         11    1    3    3    0    0  0.46992701381E-01 -0.55072863001E-01  0.39125937014E+00  0.39790135720E+00  0.51100000000E-03 0. -1.
        -11    1    3    3    0    0 -0.37803332865E+00 -0.10518373805E+01 -0.13057887949E+00  0.11253098140E+01  0.51100000000E-03 0.  1.
        -12    1    3    3    0    0 -0.41816489599E+02 -0.73667298152E+01 -0.13710469026E+02  0.44619104333E+02  0.00000000000E+00 0.  1.
</event>
<event>
 7    1  0.2353206E-008  0.4614232E+02  0.7816164E-02  0.1320468E+00
        -11   -1    0    0    0    0  0.00000000000E+00  0.00000000000E+00  0.45593999997E+02  0.45594000000E+02  0.51100000000E-03 0. -1.
         11   -1    0    0    0    0 -0.00000000000E+00 -0.00000000000E+00 -0.45593999997E+02  0.45594000000E+02  0.51100000000E-03 0.  1.
    9900012    2    1    2    0    0  0.92569842365E+01  0.60440639948E+01 -0.43667962791E+02  0.46142318286E+02  0.10000004789E+02 0.  0.
         12    1    1    2    0    0 -0.92569842365E+01 -0.60440639948E+01  0.43667962791E+02  0.45045681714E+02  0.00000000000E+00 0. -1.
         11    1    3    3    0    0  0.32454309252E+01  0.24434358201E+01 -0.32066367147E+02  0.32322671652E+02  0.51100000000E-03 0. -1.
        -11    1    3    3    0    0  0.94030484739E+00  0.18428293591E+01 -0.24145205864E+01  0.31796388436E+01  0.51100000000E-03 0.  1.
        -12    1    3    3    0    0  0.50712484639E+01  0.17577988156E+01 -0.91870750581E+01  0.10640007790E+02  0.00000000000E+00 0.  1.
</event>
<event>
 7    1  0.2353206E-008  0.4614232E+02  0.7816164E-02  0.1320468E+00
        -11   -1    0    0    0    0  0.00000000000E+00  0.00000000000E+00  0.45593999997E+02  0.45594000000E+02  0.51100000000E-03 0.  1.
         11   -1    0    0    0    0 -0.00000000000E+00 -0.00000000000E+00 -0.45593999997E+02  0.45594000000E+02  0.51100000000E-03 0. -1.
    9900012    2    1    2    0    0  0.27024773664E+02 -0.13469832883E+01  0.36013333958E+02  0.46142323422E+02  0.10000051622E+02 0.  0.
         12    1    1    2    0    0 -0.27024773664E+02  0.13469832883E+01 -0.36013333958E+02  0.45045676578E+02  0.00000000000E+00 0. -1.
         11    1    3    3    0    0  0.45660945411E+01 -0.53248051893E+00  0.95720742064E+01  0.10618726842E+02  0.51100000000E-03 0. -1.
        -11    1    3    3    0    0  0.21680922702E+00  0.13274689817E+01  0.10966366560E+01  0.17354516284E+01  0.51100000000E-03 0.  1.
        -12    1    3    3    0    0  0.22241869895E+02 -0.21419717510E+01  0.25344623096E+02  0.33788144952E+02  0.00000000000E+00 0.  1.
</event>
<event>
 7    1  0.2353206E-008  0.4614232E+02  0.7816164E-02  0.1320468E+00
        -11   -1    0    0    0    0  0.00000000000E+00  0.00000000000E+00  0.45593999997E+02  0.45594000000E+02  0.51100000000E-03 0. -1.
         11   -1    0    0    0    0 -0.00000000000E+00 -0.00000000000E+00 -0.45593999997E+02  0.45594000000E+02  0.51100000000E-03 0.  1.
    9900012    2    1    2    0    0  0.16283126350E+01  0.43448754256E+02 -0.11775741214E+02  0.46142315084E+02  0.99999755836E+01 0.  0.
         12    1    1    2    0    0 -0.16283126350E+01 -0.43448754256E+02  0.11775741214E+02  0.45045684916E+02  0.00000000000E+00 0. -1.
         11    1    3    3    0    0  0.17985762768E+01  0.48626087045E+01 -0.53758112833E-01  0.51848558545E+01  0.51100000000E-03 0. -1.
        -11    1    3    3    0    0 -0.30119614125E+01  0.19976288806E+02 -0.82125790557E+01  0.21807578523E+02  0.51100000000E-03 0.  1.
        -12    1    3    3    0    0  0.28416977706E+01  0.18609856746E+02 -0.35094040459E+01  0.19149880706E+02  0.00000000000E+00 0.  1.
</event>
<event>
 7    1  0.2353206E-008  0.4614232E+02  0.7816164E-02  0.1320468E+00
        -11   -1    0    0    0    0  0.00000000000E+00  0.00000000000E+00  0.45593999997E+02  0.45594000000E+02  0.51100000000E-03 0.  1.
         11   -1    0    0    0    0 -0.00000000000E+00 -0.00000000000E+00 -0.45593999997E+02  0.45594000000E+02  0.51100000000E-03 0. -1.
    9900012    2    1    2    0    0 -0.30314880227E+01  0.19694971723E+02  0.40398407156E+02  0.46142321722E+02  0.10000036114E+02 0.  0.
         12    1    1    2    0    0  0.30314880227E+01 -0.19694971723E+02 -0.40398407156E+02  0.45045678278E+02  0.00000000000E+00 0. -1.
         11    1    3    3    0    0 -0.33416114597E+01  0.88483153955E+01  0.16907053771E+02  0.19372855236E+02  0.51100000000E-03 0. -1.
        -11    1    3    3    0    0  0.18339773230E+01  0.10203379977E+02  0.22658693765E+02  0.24917641124E+02  0.51100000000E-03 0.  1.
         12    1    3    3    0    0 -0.15238538860E+01  0.64327635041E+00  0.83265961967E+00  0.18518253620E+01  0.00000000000E+00 0. -1.
</event>
<event>
 7    1  0.2353206E-008  0.4614232E+02  0.7816164E-02  0.1320468E+00
        -11   -1    0    0    0    0  0.00000000000E+00  0.00000000000E+00  0.45593999997E+02  0.45594000000E+02  0.51100000000E-03 0.  1.
         11   -1    0    0    0    0 -0.00000000000E+00 -0.00000000000E+00 -0.45593999997E+02  0.45594000000E+02  0.51100000000E-03 0. -1.
    9900012    2    1    2    0    0  0.19987920680E+02 -0.21223334628E+02  0.34338995729E+02  0.46142317260E+02  0.99999954305E+01 0.  0.
         12    1    1    2    0    0 -0.19987920680E+02  0.21223334628E+02 -0.34338995729E+02  0.45045682740E+02  0.00000000000E+00 0. -1.
         11    1    3    3    0    0  0.40022478817E+01 -0.68940735481E+00  0.28504263116E+01  0.49616732084E+01  0.51100000000E-03 0. -1.
        -11    1    3    3    0    0  0.76589428472E+01 -0.98662893338E+01  0.19175873500E+02  0.22884868265E+02  0.51100000000E-03 0.  1.
        -12    1    3    3    0    0  0.83267299511E+01 -0.10667637940E+02  0.12312695917E+02  0.18295775787E+02  0.00000000000E+00 0.  1.
</event>
<event>
 7    1  0.2353206E-008  0.4614230E+02  0.7816164E-02  0.1320468E+00
        -11   -1    0    0    0    0  0.00000000000E+00  0.00000000000E+00  0.45593999997E+02  0.45594000000E+02  0.51100000000E-03 0.  1.
         11   -1    0    0    0    0 -0.00000000000E+00 -0.00000000000E+00 -0.45593999997E+02  0.45594000000E+02  0.51100000000E-03 0. -1.
    9900012    2    1    2    0    0  0.94814183627E+01 -0.89974570002E+00  0.44027354135E+02  0.46142303773E+02  0.99998724410E+01 0.  0.
         12    1    1    2    0    0 -0.94814183627E+01  0.89974570002E+00 -0.44027354135E+02  0.45045696227E+02  0.00000000000E+00 0. -1.
         11    1    3    3    0    0  0.15620587320E+01  0.32271054527E+01  0.14487844074E+02  0.14924873978E+02  0.51100000000E-03 0. -1.
        -11    1    3    3    0    0  0.22929538589E+00 -0.21334420543E+01  0.58231737838E+01  0.62059249553E+01  0.51100000000E-03 0.  1.
        -12    1    3    3    0    0  0.76900642449E+01 -0.19934090985E+01  0.23716336277E+02  0.25011504840E+02  0.00000000000E+00 0.  1.
</event>
<event>
 7    1  0.2353206E-008  0.4614232E+02  0.7816164E-02  0.1320468E+00
        -11   -1    0    0    0    0  0.00000000000E+00  0.00000000000E+00  0.45593999997E+02  0.45594000000E+02  0.51100000000E-03 0. -1.
         11   -1    0    0    0    0 -0.00000000000E+00 -0.00000000000E+00 -0.45593999997E+02  0.45594000000E+02  0.51100000000E-03 0.  1.
    9900012    2    1    2    0    0 -0.28156719187E+02 -0.13036457849E+02 -0.32655220205E+02  0.46142317907E+02  0.10000001329E+02 0.  0.
         12    1    1    2    0    0  0.28156719187E+02  0.13036457849E+02  0.32655220205E+02  0.45045682093E+02  0.00000000000E+00 0. -1.
         11    1    3    3    0    0 -0.22085137027E+01 -0.15969989707E+01 -0.59624750667E+01  0.65558407294E+01  0.51100000000E-03 0. -1.
        -11    1    3    3    0    0 -0.24228285312E+01 -0.36997578546E+01 -0.48614134681E+01  0.65720352588E+01  0.51100000000E-03 0.  1.
        -12    1    3    3    0    0 -0.23525376953E+02 -0.77397010234E+01 -0.21831331670E+02  0.33014441919E+02  0.00000000000E+00 0.  1.
</event>
<event>
 7    1  0.2353206E-008  0.4614232E+02  0.7816164E-02  0.1320468E+00
        -11   -1    0    0    0    0  0.00000000000E+00  0.00000000000E+00  0.45593999997E+02  0.45594000000E+02  0.51100000000E-03 0.  1.
         11   -1    0    0    0    0 -0.00000000000E+00 -0.00000000000E+00 -0.45593999997E+02  0.45594000000E+02  0.51100000000E-03 0. -1.
    9900012    2    1    2    0    0 -0.18007820372E+02 -0.19896481359E+02  0.36179577598E+02  0.46142318740E+02  0.10000008925E+02 0.  0.
         12    1    1    2    0    0  0.18007820372E+02  0.19896481359E+02 -0.36179577598E+02  0.45045681260E+02  0.00000000000E+00 0. -1.
         11    1    3    3    0    0 -0.11660801482E+01 -0.36501559853E+01  0.53148894507E+01  0.65522081593E+01  0.51100000000E-03 0. -1.
        -11    1    3    3    0    0 -0.12145414923E+01 -0.53636047233E+01  0.94437112418E+01  0.10928268341E+02  0.51100000000E-03 0.  1.
        -12    1    3    3    0    0 -0.15627198732E+02 -0.10882720651E+02  0.21420976905E+02  0.28661842239E+02  0.00000000000E+00 0.  1.
</event>
<event>
 7    1  0.2353206E-008  0.4614232E+02  0.7816164E-02  0.1320468E+00
        -11   -1    0    0    0    0  0.00000000000E+00  0.00000000000E+00  0.45593999997E+02  0.45594000000E+02  0.51100000000E-03 0. -1.
         11   -1    0    0    0    0 -0.00000000000E+00 -0.00000000000E+00 -0.45593999997E+02  0.45594000000E+02  0.51100000000E-03 0.  1.
    9900012    2    1    2    0    0  0.40939340670E+01  0.44082654090E+02 -0.83109972961E+01  0.46142319144E+02  0.10000012609E+02 0.  0.
         12    1    1    2    0    0 -0.40939340670E+01 -0.44082654090E+02  0.83109972961E+01  0.45045680856E+02  0.00000000000E+00 0. -1.
         11    1    3    3    0    0 -0.15340547870E+00  0.88606835736E-01  0.57598672912E+00  0.60261545406E+00  0.51100000000E-03 0. -1.
        -11    1    3    3    0    0  0.46095988079E+01  0.21945285350E+02 -0.23922238742E+01  0.22551423139E+02  0.51100000000E-03 0.  1.
         12    1    3    3    0    0 -0.36225926221E+00  0.22048761904E+02 -0.64947601510E+01  0.22988280551E+02  0.00000000000E+00 0. -1.
</event>
<event>
 7    1  0.2353206E-008  0.4614232E+02  0.7816164E-02  0.1320468E+00
        -11   -1    0    0    0    0  0.00000000000E+00  0.00000000000E+00  0.45593999997E+02  0.45594000000E+02  0.51100000000E-03 0.  1.
         11   -1    0    0    0    0 -0.00000000000E+00 -0.00000000000E+00 -0.45593999997E+02  0.45594000000E+02  0.51100000000E-03 0. -1.
    9900012    2    1    2    0    0 -0.22991734279E+02 -0.15712239330E+02  0.35406485549E+02  0.46142317311E+02  0.99999958986E+01 0.  0.
         12    1    1    2    0    0  0.22991734279E+02  0.15712239330E+02 -0.35406485549E+02  0.45045682689E+02  0.00000000000E+00 0. -1.
         11    1    3    3    0    0  0.27202474797E-01 -0.25502927919E+01  0.21382011593E+01  0.33281583132E+01  0.51100000000E-03 0. -1.
        -11    1    3    3    0    0 -0.99532198245E+01 -0.54920289597E+01  0.18112018799E+02  0.21383970450E+02  0.51100000000E-03 0.  1.
         12    1    3    3    0    0 -0.13065716930E+02 -0.76699175787E+01  0.15156265591E+02  0.21430188549E+02  0.00000000000E+00 0. -1.
</event>
<event>
 7    1  0.2353206E-008  0.4614232E+02  0.7816164E-02  0.1320468E+00
        -11   -1    0    0    0    0  0.00000000000E+00  0.00000000000E+00  0.45593999997E+02  0.45594000000E+02  0.51100000000E-03 0. -1.
         11   -1    0    0    0    0 -0.00000000000E+00 -0.00000000000E+00 -0.45593999997E+02  0.45594000000E+02  0.51100000000E-03 0.  1.
    9900012    2    1    2    0    0 -0.22398841843E+02  0.38509733038E+02  0.66637798404E+01  0.46142316341E+02  0.99999870468E+01 0.  0.
         12    1    1    2    0    0  0.22398841843E+02 -0.38509733038E+02 -0.66637798404E+01  0.45045683659E+02  0.00000000000E+00 0. -1.
         11    1    3    3    0    0 -0.28698235818E+01  0.55742732007E+01 -0.18925676066E+01  0.65490626439E+01  0.51100000000E-03 0. -1.
        -11    1    3    3    0    0 -0.21689430159E+01  0.14536424565E+01 -0.10667505974E+00  0.26131915404E+01  0.51100000000E-03 0.  1.
         12    1    3    3    0    0 -0.17360075246E+02  0.31481817381E+02  0.86630225067E+01  0.36980062156E+02  0.00000000000E+00 0. -1.
</event>
<event>
 7    1  0.2353206E-008  0.4614232E+02  0.7816164E-02  0.1320468E+00
        -11   -1    0    0    0    0  0.00000000000E+00  0.00000000000E+00  0.45593999997E+02  0.45594000000E+02  0.51100000000E-03 0.  1.
         11   -1    0    0    0    0 -0.00000000000E+00 -0.00000000000E+00 -0.45593999997E+02  0.45594000000E+02  0.51100000000E-03 0. -1.
    9900012    2    1    2    0    0  0.66253612358E+01  0.29244178986E+02  0.33615414694E+02  0.46142317398E+02  0.99999966857E+01 0.  0.
         12    1    1    2    0    0 -0.66253612358E+01 -0.29244178986E+02 -0.33615414694E+02  0.45045682602E+02  0.00000000000E+00 0. -1.
         11    1    3    3    0    0  0.15444216356E+01  0.58810286681E+01  0.85021898499E+01  0.10452701512E+02  0.51100000000E-03 0. -1.
        -11    1    3    3    0    0  0.21402960858E+01  0.17832709575E+02  0.22772307023E+02  0.29002833750E+02  0.51100000000E-03 0.  1.
         12    1    3    3    0    0  0.29406435145E+01  0.55304407430E+01  0.23409178207E+01  0.66867821360E+01  0.00000000000E+00 0. -1.
</event>
<event>
 7    1  0.2353206E-008  0.4614230E+02  0.7816164E-02  0.1320468E+00
        -11   -1    0    0    0    0  0.00000000000E+00  0.00000000000E+00  0.45593999997E+02  0.45594000000E+02  0.51100000000E-03 0. -1.
         11   -1    0    0    0    0 -0.00000000000E+00 -0.00000000000E+00 -0.45593999997E+02  0.45594000000E+02  0.51100000000E-03 0.  1.
    9900012    2    1    2    0    0  0.25371387347E+02 -0.16002454235E+02 -0.33605492212E+02  0.46142301601E+02  0.99998526355E+01 0.  0.
         12    1    1    2    0    0 -0.25371387347E+02  0.16002454235E+02  0.33605492212E+02  0.45045698399E+02  0.00000000000E+00 0. -1.
         11    1    3    3    0    0  0.14480753933E+01 -0.19987966842E+01 -0.12754470100E+01  0.27782864981E+01  0.51100000000E-03 0. -1.
        -11    1    3    3    0    0  0.13026919097E+02 -0.69341494796E+01 -0.11061292411E+02  0.18442755765E+02  0.51100000000E-03 0.  1.
         12    1    3    3    0    0  0.10896392857E+02 -0.70695080710E+01 -0.21268752791E+02  0.24921259337E+02  0.00000000000E+00 0. -1.
</event>
<event>
 7    1  0.2353206E-008  0.4614232E+02  0.7816164E-02  0.1320468E+00
        -11   -1    0    0    0    0  0.00000000000E+00  0.00000000000E+00  0.45593999997E+02  0.45594000000E+02  0.51100000000E-03 0.  1.
         11   -1    0    0    0    0 -0.00000000000E+00 -0.00000000000E+00 -0.45593999997E+02  0.45594000000E+02  0.51100000000E-03 0. -1.
    9900012    2    1    2    0    0  0.97435583862E+01 -0.43852548357E+02 -0.33362562366E+01  0.46142317265E+02  0.99999954746E+01 0.  0.
         12    1    1    2    0    0 -0.97435583862E+01  0.43852548357E+02  0.33362562366E+01  0.45045682735E+02  0.00000000000E+00 0. -1.
         11    1    3    3    0    0  0.41771557802E+01 -0.90596801609E+01 -0.19269827652E+01  0.10160693769E+02  0.51100000000E-03 0. -1.
        -11    1    3    3    0    0  0.46692358517E+01 -0.94635712004E+01  0.50018534175E+00  0.10564616838E+02  0.51100000000E-03 0.  1.
         12    1    3    3    0    0  0.89716675427E+00 -0.25329296995E+02 -0.19094588132E+01  0.25417006657E+02  0.00000000000E+00 0. -1.
</event>
<event>
 7    1  0.2353206E-008  0.4614232E+02  0.7816164E-02  0.1320468E+00
        -11   -1    0    0    0    0  0.00000000000E+00  0.00000000000E+00  0.45593999997E+02  0.45594000000E+02  0.51100000000E-03 0.  1.
         11   -1    0    0    0    0 -0.00000000000E+00 -0.00000000000E+00 -0.45593999997E+02  0.45594000000E+02  0.51100000000E-03 0. -1.
    9900012    2    1    2    0    0 -0.69605362080E+01 -0.36558366972E+02  0.25380114379E+02  0.46142318011E+02  0.10000002277E+02 0.  0.
         12    1    1    2    0    0  0.69605362080E+01  0.36558366972E+02 -0.25380114379E+02  0.45045681989E+02  0.00000000000E+00 0. -1.
         11    1    3    3    0    0 -0.14547525539E+01 -0.73634880356E+01  0.37960345806E+01  0.84111319002E+01  0.51100000000E-03 0. -1.
        -11    1    3    3    0    0 -0.32671562441E+00 -0.17887047439E+02  0.89556218239E+01  0.20006408265E+02  0.51100000000E-03 0.  1.
         12    1    3    3    0    0 -0.51790680296E+01 -0.11307831498E+02  0.12628457975E+02  0.17724777845E+02  0.00000000000E+00 0. -1.
</event>
<event>
 7    1  0.2353206E-008  0.4614232E+02  0.7816164E-02  0.1320468E+00
        -11   -1    0    0    0    0  0.00000000000E+00  0.00000000000E+00  0.45593999997E+02  0.45594000000E+02  0.51100000000E-03 0.  1.
         11   -1    0    0    0    0 -0.00000000000E+00 -0.00000000000E+00 -0.45593999997E+02  0.45594000000E+02  0.51100000000E-03 0. -1.
    9900012    2    1    2    0    0 -0.16093195154E+01 -0.33220571507E+02  0.30379552482E+02  0.46142317748E+02  0.99999998817E+01 0.  0.
         12    1    1    2    0    0  0.16093195154E+01  0.33220571507E+02 -0.30379552482E+02  0.45045682252E+02  0.00000000000E+00 0. -1.
         11    1    3    3    0    0  0.16958086148E+01 -0.53175314551E+01  0.85083250010E+01  0.10175632767E+02  0.51100000000E-03 0. -1.
        -11    1    3    3    0    0 -0.25505806544E+01 -0.50534817069E+01  0.50115328777E+01  0.75603307521E+01  0.51100000000E-03 0.  1.
        -12    1    3    3    0    0 -0.75454747577E+00 -0.22849558345E+02  0.16859694603E+02  0.28406354229E+02  0.00000000000E+00 0.  1.
</event>
<event>
 7    1  0.2353206E-008  0.4614232E+02  0.7816164E-02  0.1320468E+00
        -11   -1    0    0    0    0  0.00000000000E+00  0.00000000000E+00  0.45593999997E+02  0.45594000000E+02  0.51100000000E-03 0.  1.
         11   -1    0    0    0    0 -0.00000000000E+00 -0.00000000000E+00 -0.45593999997E+02  0.45594000000E+02  0.51100000000E-03 0. -1.
    9900012    2    1    2    0    0  0.79055464000E+01 -0.15811098321E+02  0.41432168091E+02  0.46142322663E+02  0.10000044699E+02 0.  0.
         12    1    1    2    0    0 -0.79055464000E+01  0.15811098321E+02 -0.41432168091E+02  0.45045677337E+02  0.00000000000E+00 0. -1.
         11    1    3    3    0    0 -0.96731428627E+00  0.43021148027E+00  0.57237963359E+00  0.12034938937E+01  0.51100000000E-03 0. -1.
        -11    1    3    3    0    0  0.22173511851E+01 -0.67391632246E+01  0.14732996994E+02  0.16352191533E+02  0.51100000000E-03 0.  1.
         12    1    3    3    0    0  0.66555095012E+01 -0.95021465767E+01  0.26126791463E+02  0.28586637236E+02  0.00000000000E+00 0. -1.
</event>
<event>
 7    1  0.2353206E-008  0.4614232E+02  0.7816164E-02  0.1320468E+00
        -11   -1    0    0    0    0  0.00000000000E+00  0.00000000000E+00  0.45593999997E+02  0.45594000000E+02  0.51100000000E-03 0.  1.
         11   -1    0    0    0    0 -0.00000000000E+00 -0.00000000000E+00 -0.45593999997E+02  0.45594000000E+02  0.51100000000E-03 0. -1.
    9900012    2    1    2    0    0 -0.75709005259E+01  0.27506049762E+02  0.34859895032E+02  0.46142316634E+02  0.99999897209E+01 0.  0.
         12    1    1    2    0    0  0.75709005259E+01 -0.27506049762E+02 -0.34859895032E+02  0.45045683366E+02  0.00000000000E+00 0. -1.
         11    1    3    3    0    0 -0.13001678741E+01  0.15590296899E+02  0.17359160772E+02  0.23368531338E+02  0.51100000000E-03 0. -1.
        -11    1    3    3    0    0 -0.89594533297E+00  0.56349077108E+01  0.40910916648E+01  0.70208214776E+01  0.51100000000E-03 0.  1.
        -12    1    3    3    0    0 -0.53747873187E+01  0.62808451520E+01  0.13409642595E+02  0.15752963819E+02  0.00000000000E+00 0.  1.
</event>
<event>
 7    1  0.2353206E-008  0.4614232E+02  0.7816164E-02  0.1320468E+00
        -11   -1    0    0    0    0  0.00000000000E+00  0.00000000000E+00  0.45593999997E+02  0.45594000000E+02  0.51100000000E-03 0.  1.
         11   -1    0    0    0    0 -0.00000000000E+00 -0.00000000000E+00 -0.45593999997E+02  0.45594000000E+02  0.51100000000E-03 0. -1.
    9900012    2    1    2    0    0  0.10101440069E+02  0.17323027996E+02  0.40335927740E+02  0.46142318109E+02  0.10000003170E+02 0.  0.
         12    1    1    2    0    0 -0.10101440069E+02 -0.17323027996E+02 -0.40335927740E+02  0.45045681891E+02  0.00000000000E+00 0. -1.
         11    1    3    3    0    0  0.81352794625E+00  0.65311779778E+01  0.76451380398E+01  0.10087925922E+02  0.51100000000E-03 0. -1.
        -11    1    3    3    0    0  0.71547974624E+01  0.43842653743E+01  0.19712223699E+02  0.21423927581E+02  0.51100000000E-03 0.  1.
        -12    1    3    3    0    0  0.21331146606E+01  0.64075846443E+01  0.12978566001E+02  0.14630464606E+02  0.00000000000E+00 0.  1.
</event>
<event>
 7    1  0.2353206E-008  0.4614232E+02  0.7816164E-02  0.1320468E+00
        -11   -1    0    0    0    0  0.00000000000E+00  0.00000000000E+00  0.45593999997E+02  0.45594000000E+02  0.51100000000E-03 0.  1.
         11   -1    0    0    0    0 -0.00000000000E+00 -0.00000000000E+00 -0.45593999997E+02  0.45594000000E+02  0.51100000000E-03 0. -1.
    9900012    2    1    2    0    0  0.30174573005E+02  0.22499295100E+02  0.24746520565E+02  0.46142318563E+02  0.10000007308E+02 0.  0.
         12    1    1    2    0    0 -0.30174573005E+02 -0.22499295100E+02 -0.24746520565E+02  0.45045681437E+02  0.00000000000E+00 0. -1.
         11    1    3    3    0    0  0.37607159257E+01  0.30175263623E+01  0.85787486677E+00  0.48973869736E+01  0.51100000000E-03 0. -1.
        -11    1    3    3    0    0  0.70768872037E+01  0.91411406255E+01  0.10025199189E+02  0.15301875815E+02  0.51100000000E-03 0.  1.
        -12    1    3    3    0    0  0.19336969876E+02  0.10340628113E+02  0.13863446510E+02  0.25943055774E+02  0.00000000000E+00 0.  1.
</event>
<event>
 7    1  0.2353206E-008  0.4614232E+02  0.7816164E-02  0.1320468E+00
        -11   -1    0    0    0    0  0.00000000000E+00  0.00000000000E+00  0.45593999997E+02  0.45594000000E+02  0.51100000000E-03 0. -1.
         11   -1    0    0    0    0 -0.00000000000E+00 -0.00000000000E+00 -0.45593999997E+02  0.45594000000E+02  0.51100000000E-03 0.  1.
    9900012    2    1    2    0    0  0.30549428802E+02 -0.24687116311E+02 -0.22054299948E+02  0.46142318097E+02  0.10000003067E+02 0.  0.
         12    1    1    2    0    0 -0.30549428802E+02  0.24687116311E+02  0.22054299948E+02  0.45045681903E+02  0.00000000000E+00 0. -1.
         11    1    3    3    0    0  0.13568705623E+01 -0.99212595443E+00 -0.19296861161E+01  0.25591210210E+01  0.51100000000E-03 0. -1.
        -11    1    3    3    0    0  0.19855591080E+02 -0.16291540030E+02 -0.18281040849E+02  0.31525469520E+02  0.51100000000E-03 0.  1.
         12    1    3    3    0    0  0.93369671597E+01 -0.74034503272E+01 -0.18435729827E+01  0.12057727557E+02  0.00000000000E+00 0. -1.
</event>
<event>
 7    1  0.2353206E-008  0.4614232E+02  0.7816164E-02  0.1320468E+00
        -11   -1    0    0    0    0  0.00000000000E+00  0.00000000000E+00  0.45593999997E+02  0.45594000000E+02  0.51100000000E-03 0.  1.
         11   -1    0    0    0    0 -0.00000000000E+00 -0.00000000000E+00 -0.45593999997E+02  0.45594000000E+02  0.51100000000E-03 0. -1.
    9900012    2    1    2    0    0  0.42764695709E+02 -0.13129736379E+02  0.52824518924E+01  0.46142317916E+02  0.10000001410E+02 0.  0.
         12    1    1    2    0    0 -0.42764695709E+02  0.13129736379E+02 -0.52824518924E+01  0.45045682084E+02  0.00000000000E+00 0. -1.
         11    1    3    3    0    0  0.10189036905E+02 -0.10248257489E+01  0.42699187769E+01  0.11094996507E+02  0.51100000000E-03 0. -1.
        -11    1    3    3    0    0  0.13758284545E+02 -0.74300660898E+01  0.10517571328E+00  0.15636730410E+02  0.51100000000E-03 0.  1.
         12    1    3    3    0    0  0.18817374258E+02 -0.46748445400E+01  0.90735740218E+00  0.19410590998E+02  0.00000000000E+00 0. -1.
</event>
<event>
 7    1  0.2353206E-008  0.4614232E+02  0.7816164E-02  0.1320468E+00
        -11   -1    0    0    0    0  0.00000000000E+00  0.00000000000E+00  0.45593999997E+02  0.45594000000E+02  0.51100000000E-03 0.  1.
         11   -1    0    0    0    0 -0.00000000000E+00 -0.00000000000E+00 -0.45593999997E+02  0.45594000000E+02  0.51100000000E-03 0. -1.
    9900012    2    1    2    0    0  0.18179022743E+02  0.36992425310E+02  0.18171325011E+02  0.46142318178E+02  0.10000003797E+02 0.  0.
         12    1    1    2    0    0 -0.18179022743E+02 -0.36992425310E+02 -0.18171325011E+02  0.45045681822E+02  0.00000000000E+00 0. -1.
         11    1    3    3    0    0  0.43131346757E+01  0.12730749464E+02  0.36473292428E+01  0.13927602934E+02  0.51100000000E-03 0. -1.
        -11    1    3    3    0    0  0.61313136251E+01  0.17263566344E+02  0.95197056995E+01  0.20645787138E+02  0.51100000000E-03 0.  1.
         12    1    3    3    0    0  0.77345744421E+01  0.69981095025E+01  0.50042900687E+01  0.11568928105E+02  0.00000000000E+00 0. -1.
</event>
<event>
 7    1  0.2353206E-008  0.4614232E+02  0.7816164E-02  0.1320468E+00
        -11   -1    0    0    0    0  0.00000000000E+00  0.00000000000E+00  0.45593999997E+02  0.45594000000E+02  0.51100000000E-03 0.  1.
         11   -1    0    0    0    0 -0.00000000000E+00 -0.00000000000E+00 -0.45593999997E+02  0.45594000000E+02  0.51100000000E-03 0. -1.
    9900012    2    1    2    0    0 -0.43941246381E+02  0.14971251404E+01  0.97999477367E+01  0.46142317711E+02  0.99999995464E+01 0.  0.
         12    1    1    2    0    0  0.43941246381E+02 -0.14971251404E+01 -0.97999477367E+01  0.45045682289E+02  0.00000000000E+00 0. -1.
         11    1    3    3    0    0 -0.50392598962E+01  0.20609109544E+01 -0.11016057485E+01  0.55547303939E+01  0.51100000000E-03 0. -1.
        -11    1    3    3    0    0 -0.76632969081E+00 -0.45191463828E+00 -0.10341457247E+00  0.89564662129E+00  0.51100000000E-03 0.  1.
        -12    1    3    3    0    0 -0.38135656794E+02 -0.11187117575E+00  0.11004968058E+02  0.39691940696E+02  0.00000000000E+00 0.  1.
</event>
<event>
 7    1  0.2353206E-008  0.4614232E+02  0.7816164E-02  0.1320468E+00
        -11   -1    0    0    0    0  0.00000000000E+00  0.00000000000E+00  0.45593999997E+02  0.45594000000E+02  0.51100000000E-03 0.  1.
         11   -1    0    0    0    0 -0.00000000000E+00 -0.00000000000E+00 -0.45593999997E+02  0.45594000000E+02  0.51100000000E-03 0. -1.
    9900012    2    1    2    0    0  0.10715255189E+02  0.44958134310E+01  0.43521077277E+02  0.46142320967E+02  0.10000029234E+02 0.  0.
         12    1    1    2    0    0 -0.10715255189E+02 -0.44958134310E+01 -0.43521077277E+02  0.45045679033E+02  0.00000000000E+00 0. -1.
         11    1    3    3    0    0  0.30691431369E+00 -0.11330502446E+01  0.56838426195E+01  0.58037975875E+01  0.51100000000E-03 0. -1.
        -11    1    3    3    0    0  0.29345206307E+01  0.46885461578E+01  0.23508298404E+02  0.24150237484E+02  0.51100000000E-03 0.  1.
        -12    1    3    3    0    0  0.74738202446E+01  0.94031751779E+00  0.14328936253E+02  0.16188285895E+02  0.00000000000E+00 0.  1.
</event>
<event>
 7    1  0.2353206E-008  0.4614232E+02  0.7816164E-02  0.1320468E+00
        -11   -1    0    0    0    0  0.00000000000E+00  0.00000000000E+00  0.45593999997E+02  0.45594000000E+02  0.51100000000E-03 0.  1.
         11   -1    0    0    0    0 -0.00000000000E+00 -0.00000000000E+00 -0.45593999997E+02  0.45594000000E+02  0.51100000000E-03 0. -1.
    9900012    2    1    2    0    0 -0.26155848221E+02 -0.80184123875E+01  0.35786733036E+02  0.46142316580E+02  0.99999892262E+01 0.  0.
         12    1    1    2    0    0  0.26155848221E+02  0.80184123875E+01 -0.35786733036E+02  0.45045683420E+02  0.00000000000E+00 0. -1.
         11    1    3    3    0    0 -0.99273802169E+01 -0.32755334738E+01  0.86112124096E+01  0.13543816926E+02  0.51100000000E-03 0. -1.
        -11    1    3    3    0    0 -0.65144943385E+01  0.34507680380E+00  0.14081428235E+02  0.15519160283E+02  0.51100000000E-03 0.  1.
        -12    1    3    3    0    0 -0.97139736661E+01 -0.50879557175E+01  0.13094092391E+02  0.17079339370E+02  0.00000000000E+00 0.  1.
</event>
<event>
 7    1  0.2353206E-008  0.4614232E+02  0.7816164E-02  0.1320468E+00
        -11   -1    0    0    0    0  0.00000000000E+00  0.00000000000E+00  0.45593999997E+02  0.45594000000E+02  0.51100000000E-03 0. -1.
         11   -1    0    0    0    0 -0.00000000000E+00 -0.00000000000E+00 -0.45593999997E+02  0.45594000000E+02  0.51100000000E-03 0.  1.
    9900012    2    1    2    0    0 -0.44615412937E+02 -0.20020486451E+01 -0.58796284105E+01  0.46142319846E+02  0.10000019011E+02 0.  0.
         12    1    1    2    0    0  0.44615412937E+02  0.20020486451E+01  0.58796284105E+01  0.45045680154E+02  0.00000000000E+00 0. -1.
         11    1    3    3    0    0 -0.70676462362E+01  0.25648978883E+01 -0.24137820780E+01  0.78966238785E+01  0.51100000000E-03 0. -1.
        -11    1    3    3    0    0 -0.17055773366E+02 -0.14195191579E+01 -0.37087602738E+01  0.17511977124E+02  0.51100000000E-03 0.  1.
         12    1    3    3    0    0 -0.20491993334E+02 -0.31474273755E+01  0.24291394123E+00  0.20733718843E+02  0.00000000000E+00 0. -1.
</event>
<event>
 7    1  0.2353206E-008  0.4614232E+02  0.7816164E-02  0.1320468E+00
        -11   -1    0    0    0    0  0.00000000000E+00  0.00000000000E+00  0.45593999997E+02  0.45594000000E+02  0.51100000000E-03 0.  1.
         11   -1    0    0    0    0 -0.00000000000E+00 -0.00000000000E+00 -0.45593999997E+02  0.45594000000E+02  0.51100000000E-03 0. -1.
    9900012    2    1    2    0    0  0.16352375262E+02  0.39766177057E+02 -0.13429980920E+02  0.46142318720E+02  0.10000008748E+02 0.  0.
         12    1    1    2    0    0 -0.16352375262E+02 -0.39766177057E+02  0.13429980920E+02  0.45045681280E+02  0.00000000000E+00 0. -1.
         11    1    3    3    0    0  0.37408230779E+01  0.63100966516E+01 -0.43256942978E+01  0.85160265659E+01  0.51100000000E-03 0. -1.
        -11    1    3    3    0    0  0.13109237004E+02  0.26811940235E+02 -0.73814101029E+01  0.30744388908E+02  0.51100000000E-03 0.  1.
        -12    1    3    3    0    0 -0.49768482047E+00  0.66441401708E+01 -0.17228765194E+01  0.68819032462E+01  0.00000000000E+00 0.  1.
</event>
<event>
 7    1  0.2353206E-008  0.4614232E+02  0.7816164E-02  0.1320468E+00
        -11   -1    0    0    0    0  0.00000000000E+00  0.00000000000E+00  0.45593999997E+02  0.45594000000E+02  0.51100000000E-03 0.  1.
         11   -1    0    0    0    0 -0.00000000000E+00 -0.00000000000E+00 -0.45593999997E+02  0.45594000000E+02  0.51100000000E-03 0. -1.
    9900012    2    1    2    0    0 -0.17184458346E+02  0.81047683632E+01  0.40842631110E+02  0.46142318799E+02  0.10000009463E+02 0.  0.
         12    1    1    2    0    0  0.17184458346E+02 -0.81047683632E+01 -0.40842631110E+02  0.45045681201E+02  0.00000000000E+00 0. -1.
         11    1    3    3    0    0 -0.38276346396E+00 -0.26545337260E+00  0.21169843214E+01  0.21676245617E+01  0.51100000000E-03 0. -1.
        -11    1    3    3    0    0 -0.36148105449E+01  0.54305570908E+01  0.18806863824E+02  0.19906178255E+02  0.51100000000E-03 0.  1.
         12    1    3    3    0    0 -0.13186884337E+02  0.29396646451E+01  0.19918782965E+02  0.24068515982E+02  0.00000000000E+00 0. -1.
</event>
<event>
 7    1  0.2353206E-008  0.4614232E+02  0.7816164E-02  0.1320468E+00
        -11   -1    0    0    0    0  0.00000000000E+00  0.00000000000E+00  0.45593999997E+02  0.45594000000E+02  0.51100000000E-03 0. -1.
         11   -1    0    0    0    0 -0.00000000000E+00 -0.00000000000E+00 -0.45593999997E+02  0.45594000000E+02  0.51100000000E-03 0.  1.
    9900012    2    1    2    0    0 -0.12808602047E+02  0.37065012754E+02 -0.22163890429E+02  0.46142317678E+02  0.99999992456E+01 0.  0.
         12    1    1    2    0    0  0.12808602047E+02 -0.37065012754E+02  0.22163890429E+02  0.45045682322E+02  0.00000000000E+00 0. -1.
         11    1    3    3    0    0 -0.12368108376E+02  0.28584679994E+02 -0.14973859726E+02  0.34558219145E+02  0.51100000000E-03 0. -1.
        -11    1    3    3    0    0  0.13574422434E+01  0.26619234395E+01 -0.25438160336E+01  0.39242178986E+01  0.51100000000E-03 0.  1.
        -12    1    3    3    0    0 -0.17979359137E+01  0.58184093213E+01 -0.46462146692E+01  0.76598806343E+01  0.00000000000E+00 0.  1.
</event>
<event>
 7    1  0.2353206E-008  0.4614231E+02  0.7816164E-02  0.1320468E+00
        -11   -1    0    0    0    0  0.00000000000E+00  0.00000000000E+00  0.45593999997E+02  0.45594000000E+02  0.51100000000E-03 0.  1.
         11   -1    0    0    0    0 -0.00000000000E+00 -0.00000000000E+00 -0.45593999997E+02  0.45594000000E+02  0.51100000000E-03 0. -1.
    9900012    2    1    2    0    0  0.16901093759E+02  0.17866352372E+02  0.37739379689E+02  0.46142308790E+02  0.99999181927E+01 0.  0.
         12    1    1    2    0    0 -0.16901093759E+02 -0.17866352372E+02 -0.37739379689E+02  0.45045691210E+02  0.00000000000E+00 0. -1.
         11    1    3    3    0    0  0.12812568609E+01  0.19931802314E+01  0.32298446211E+01  0.40057812117E+01  0.51100000000E-03 0. -1.
        -11    1    3    3    0    0  0.15566753563E+02  0.10977239451E+02  0.24886032044E+02  0.31339084123E+02  0.51100000000E-03 0.  1.
        -12    1    3    3    0    0  0.53083334348E-01  0.48959326893E+01  0.96235030230E+01  0.10797443455E+02  0.00000000000E+00 0.  1.
</event>
<event>
 7    1  0.2353206E-008  0.4614232E+02  0.7816164E-02  0.1320468E+00
        -11   -1    0    0    0    0  0.00000000000E+00  0.00000000000E+00  0.45593999997E+02  0.45594000000E+02  0.51100000000E-03 0.  1.
         11   -1    0    0    0    0 -0.00000000000E+00 -0.00000000000E+00 -0.45593999997E+02  0.45594000000E+02  0.51100000000E-03 0. -1.
    9900012    2    1    2    0    0 -0.10132257005E+02 -0.66897551935E+01  0.43378543177E+02  0.46142318024E+02  0.10000002396E+02 0.  0.
         12    1    1    2    0    0  0.10132257005E+02  0.66897551935E+01 -0.43378543177E+02  0.45045681976E+02  0.00000000000E+00 0. -1.
         11    1    3    3    0    0 -0.69259378449E+01 -0.47547296686E+01  0.19155696184E+02  0.20916901439E+02  0.51100000000E-03 0. -1.
        -11    1    3    3    0    0 -0.41094925802E+01 -0.33040881574E+01  0.20296218687E+02  0.20970012424E+02  0.51100000000E-03 0.  1.
        -12    1    3    3    0    0  0.90317342046E+00  0.13690626326E+01  0.39266283055E+01  0.42554041604E+01  0.00000000000E+00 0.  1.
</event>
<event>
 7    1  0.2353206E-008  0.4614232E+02  0.7816164E-02  0.1320468E+00
        -11   -1    0    0    0    0  0.00000000000E+00  0.00000000000E+00  0.45593999997E+02  0.45594000000E+02  0.51100000000E-03 0.  1.
         11   -1    0    0    0    0 -0.00000000000E+00 -0.00000000000E+00 -0.45593999997E+02  0.45594000000E+02  0.51100000000E-03 0. -1.
    9900012    2    1    2    0    0  0.10460015766E+01  0.36324294417E+02  0.26618885390E+02  0.46142317148E+02  0.99999944076E+01 0.  0.
         12    1    1    2    0    0 -0.10460015766E+01 -0.36324294417E+02 -0.26618885390E+02  0.45045682852E+02  0.00000000000E+00 0. -1.
         11    1    3    3    0    0 -0.17622802792E+01  0.43569857107E+01  0.62804594873E+00  0.47416661883E+01  0.51100000000E-03 0.  1.
        -11    1    3    3    0    0  0.81506910983E+00  0.87861159458E+01  0.55032034014E+01  0.10399298967E+02  0.51100000000E-03 0. -1.
        -12    1    3    3    0    0  0.19932127460E+01  0.23181192761E+02  0.20487636040E+02  0.31001351993E+02  0.00000000000E+00 0.  1.
</event>
<event>
 7    1  0.2353206E-008  0.4614232E+02  0.7816164E-02  0.1320468E+00
        -11   -1    0    0    0    0  0.00000000000E+00  0.00000000000E+00  0.45593999997E+02  0.45594000000E+02  0.51100000000E-03 0. -1.
         11   -1    0    0    0    0 -0.00000000000E+00 -0.00000000000E+00 -0.45593999997E+02  0.45594000000E+02  0.51100000000E-03 0.  1.
    9900012    2    1    2    0    0 -0.23291335759E+02 -0.23994386672E+02 -0.30181062972E+02  0.46142317906E+02  0.10000001320E+02 0.  0.
         12    1    1    2    0    0  0.23291335759E+02  0.23994386672E+02  0.30181062972E+02  0.45045682094E+02  0.00000000000E+00 0. -1.
         11    1    3    3    0    0 -0.63153159773E+01 -0.48922128781E+01 -0.10160494831E+02  0.12924883683E+02  0.51100000000E-03 0. -1.
        -11    1    3    3    0    0 -0.11205767634E+02 -0.13222549631E+02 -0.17432355166E+02  0.24582352489E+02  0.51100000000E-03 0.  1.
        -12    1    3    3    0    0 -0.57702521479E+01 -0.58796241628E+01 -0.25882129748E+01  0.86350817338E+01  0.00000000000E+00 0.  1.
</event>
<event>
 7    1  0.2353206E-008  0.4614232E+02  0.7816164E-02  0.1320468E+00
        -11   -1    0    0    0    0  0.00000000000E+00  0.00000000000E+00  0.45593999997E+02  0.45594000000E+02  0.51100000000E-03 0. -1.
         11   -1    0    0    0    0 -0.00000000000E+00 -0.00000000000E+00 -0.45593999997E+02  0.45594000000E+02  0.51100000000E-03 0.  1.
    9900012    2    1    2    0    0 -0.35345342862E+02 -0.25626433006E+02  0.11095325025E+02  0.46142316876E+02  0.99999919332E+01 0.  0.
         12    1    1    2    0    0  0.35345342862E+02  0.25626433006E+02 -0.11095325025E+02  0.45045683124E+02  0.00000000000E+00 0. -1.
         11    1    3    3    0    0 -0.25380577476E+02 -0.19652337823E+02  0.48668619989E+01  0.32466512608E+02  0.51100000000E-03 0.  1.
        -11    1    3    3    0    0 -0.23105853707E+01 -0.33132603259E+01  0.16084061331E+01  0.43478120121E+01  0.51100000000E-03 0. -1.
         12    1    3    3    0    0 -0.76541800154E+01 -0.26608348571E+01  0.46200568932E+01  0.93279922567E+01  0.00000000000E+00 0. -1.
</event>
<event>
 7    1  0.2353206E-008  0.4614232E+02  0.7816164E-02  0.1320468E+00
        -11   -1    0    0    0    0  0.00000000000E+00  0.00000000000E+00  0.45593999997E+02  0.45594000000E+02  0.51100000000E-03 0. -1.
         11   -1    0    0    0    0 -0.00000000000E+00 -0.00000000000E+00 -0.45593999997E+02  0.45594000000E+02  0.51100000000E-03 0.  1.
    9900012    2    1    2    0    0 -0.15706716784E+02  0.24434169612E+02 -0.34429404569E+02  0.46142317679E+02  0.99999992484E+01 0.  0.
         12    1    1    2    0    0  0.15706716784E+02 -0.24434169612E+02  0.34429404569E+02  0.45045682321E+02  0.00000000000E+00 0. -1.
         11    1    3    3    0    0 -0.32183066354E+01  0.29096737344E+00 -0.30684200321E+01  0.44561599350E+01  0.51100000000E-03 0. -1.
        -11    1    3    3    0    0 -0.61398158456E+01  0.80990203469E+01 -0.10481830370E+02  0.14600008129E+02  0.51100000000E-03 0.  1.
         12    1    3    3    0    0 -0.63485943032E+01  0.16044181892E+02 -0.20879154167E+02  0.27086149615E+02  0.00000000000E+00 0. -1.
</event>
<event>
 7    1  0.2353206E-008  0.4614232E+02  0.7816164E-02  0.1320468E+00
        -11   -1    0    0    0    0  0.00000000000E+00  0.00000000000E+00  0.45593999997E+02  0.45594000000E+02  0.51100000000E-03 0.  1.
         11   -1    0    0    0    0 -0.00000000000E+00 -0.00000000000E+00 -0.45593999997E+02  0.45594000000E+02  0.51100000000E-03 0. -1.
    9900012    2    1    2    0    0 -0.65139239836E+01 -0.33737507427E+02  0.29128386989E+02  0.46142317170E+02  0.99999946092E+01 0.  0.
         12    1    1    2    0    0  0.65139239836E+01  0.33737507427E+02 -0.29128386989E+02  0.45045682830E+02  0.00000000000E+00 0. -1.
         11    1    3    3    0    0  0.12414550841E+01 -0.44969520290E+01  0.32575225970E+01  0.56899246048E+01  0.51100000000E-03 0. -1.
        -11    1    3    3    0    0 -0.16093120653E+01 -0.15189059690E+02  0.16476036557E+02  0.22466802186E+02  0.51100000000E-03 0.  1.
        -12    1    3    3    0    0 -0.61460670024E+01 -0.14051495708E+02  0.93948278351E+01  0.17985590379E+02  0.00000000000E+00 0.  1.
</event>
<event>
 7    1  0.2353206E-008  0.4614232E+02  0.7816164E-02  0.1320468E+00
        -11   -1    0    0    0    0  0.00000000000E+00  0.00000000000E+00  0.45593999997E+02  0.45594000000E+02  0.51100000000E-03 0.  1.
         11   -1    0    0    0    0 -0.00000000000E+00 -0.00000000000E+00 -0.45593999997E+02  0.45594000000E+02  0.51100000000E-03 0. -1.
    9900012    2    1    2    0    0 -0.27587056758E+02  0.25217546795E+00  0.35609047308E+02  0.46142317152E+02  0.99999944469E+01 0.  0.
         12    1    1    2    0    0  0.27587056758E+02 -0.25217546795E+00 -0.35609047308E+02  0.45045682848E+02  0.00000000000E+00 0. -1.
         11    1    3    3    0    0 -0.70710395550E+01 -0.14091500959E+01  0.64292768947E+01  0.96602746354E+01  0.51100000000E-03 0. -1.
        -11    1    3    3    0    0 -0.17822524630E+02  0.37519456379E+01  0.22209289973E+02  0.28722326535E+02  0.51100000000E-03 0.  1.
         12    1    3    3    0    0 -0.26934925729E+01 -0.20906200741E+01  0.69704804410E+01  0.77597159814E+01  0.00000000000E+00 0. -1.
</event>
<event>
 7    1  0.2353206E-008  0.4614232E+02  0.7816164E-02  0.1320468E+00
        -11   -1    0    0    0    0  0.00000000000E+00  0.00000000000E+00  0.45593999997E+02  0.45594000000E+02  0.51100000000E-03 0.  1.
         11   -1    0    0    0    0 -0.00000000000E+00 -0.00000000000E+00 -0.45593999997E+02  0.45594000000E+02  0.51100000000E-03 0. -1.
    9900012    2    1    2    0    0 -0.92645000379E+01 -0.44070668792E+02 -0.10289377515E+01  0.46142317391E+02  0.99999966295E+01 0.  0.
         12    1    1    2    0    0  0.92645000379E+01  0.44070668792E+02  0.10289377515E+01  0.45045682609E+02  0.00000000000E+00 0. -1.
         11    1    3    3    0    0 -0.18696796456E+00 -0.10673365701E+02 -0.53417850764E+00  0.10688359994E+02  0.51100000000E-03 0. -1.
        -11    1    3    3    0    0 -0.28172493682E+01 -0.22774830042E+01  0.69351958203E+00  0.36884675014E+01  0.51100000000E-03 0.  1.
        -12    1    3    3    0    0 -0.62602827052E+01 -0.31119820087E+02 -0.11882788259E+01  0.31765489897E+02  0.00000000000E+00 0.  1.
</event>
<event>
 7    1  0.2353206E-008  0.4614232E+02  0.7816164E-02  0.1320468E+00
        -11   -1    0    0    0    0  0.00000000000E+00  0.00000000000E+00  0.45593999997E+02  0.45594000000E+02  0.51100000000E-03 0.  1.
         11   -1    0    0    0    0 -0.00000000000E+00 -0.00000000000E+00 -0.45593999997E+02  0.45594000000E+02  0.51100000000E-03 0. -1.
    9900012    2    1    2    0    0  0.21724466929E+02  0.33506949829E+02  0.20843353555E+02  0.46142317214E+02  0.99999950131E+01 0.  0.
         12    1    1    2    0    0 -0.21724466929E+02 -0.33506949829E+02 -0.20843353555E+02  0.45045682786E+02  0.00000000000E+00 0. -1.
         11    1    3    3    0    0  0.52179740522E+01  0.59241193818E+01  0.12928518141E+01  0.79996193493E+01  0.51100000000E-03 0. -1.
        -11    1    3    3    0    0  0.63236624842E+01  0.54279772656E+01  0.57533300537E+01  0.10126818423E+02  0.51100000000E-03 0.  1.
        -12    1    3    3    0    0  0.10182830392E+02  0.22154853182E+02  0.13797171688E+02  0.28015879442E+02  0.00000000000E+00 0.  1.
</event>
<event>
 7    1  0.2353206E-008  0.4614232E+02  0.7816164E-02  0.1320468E+00
        -11   -1    0    0    0    0  0.00000000000E+00  0.00000000000E+00  0.45593999997E+02  0.45594000000E+02  0.51100000000E-03 0.  1.
         11   -1    0    0    0    0 -0.00000000000E+00 -0.00000000000E+00 -0.45593999997E+02  0.45594000000E+02  0.51100000000E-03 0. -1.
    9900012    2    1    2    0    0  0.34894677783E+02 -0.26635234163E+02  0.10101443317E+02  0.46142318813E+02  0.10000009593E+02 0.  0.
         12    1    1    2    0    0 -0.34894677783E+02  0.26635234163E+02 -0.10101443317E+02  0.45045681187E+02  0.00000000000E+00 0. -1.
         11    1    3    3    0    0  0.11918324805E+02 -0.12951231103E+02  0.61757619892E+01  0.18652637606E+02  0.51100000000E-03 0. -1.
        -11    1    3    3    0    0  0.64274433829E+01 -0.65621449557E+01  0.16013513035E+01  0.93240603343E+01  0.51100000000E-03 0.  1.
         12    1    3    3    0    0  0.16548909595E+02 -0.71218581041E+01  0.23243300247E+01  0.18165620873E+02  0.00000000000E+00 0. -1.
</event>
<event>
 7    1  0.2353206E-008  0.4614232E+02  0.7816164E-02  0.1320468E+00
        -11   -1    0    0    0    0  0.00000000000E+00  0.00000000000E+00  0.45593999997E+02  0.45594000000E+02  0.51100000000E-03 0. -1.
         11   -1    0    0    0    0 -0.00000000000E+00 -0.00000000000E+00 -0.45593999997E+02  0.45594000000E+02  0.51100000000E-03 0.  1.
    9900012    2    1    2    0    0 -0.51078791751E+01 -0.44548571730E+02  0.42950974197E+01  0.46142317247E+02  0.99999953096E+01 0.  0.
         12    1    1    2    0    0  0.51078791751E+01  0.44548571730E+02 -0.42950974197E+01  0.45045682753E+02  0.00000000000E+00 0. -1.
         11    1    3    3    0    0  0.38770716908E+00 -0.49174404914E+01  0.28525846148E+01  0.56981380364E+01  0.51100000000E-03 0. -1.
        -11    1    3    3    0    0 -0.30560234540E+01 -0.35142769608E+02  0.70282018679E+00  0.35282396341E+02  0.51100000000E-03 0.  1.
         12    1    3    3    0    0 -0.24395628902E+01 -0.44883616303E+01  0.73969261811E+00  0.51617828692E+01  0.00000000000E+00 0. -1.
</event>
<event>
 7    1  0.2353206E-008  0.4614231E+02  0.7816164E-02  0.1320468E+00
        -11   -1    0    0    0    0  0.00000000000E+00  0.00000000000E+00  0.45593999997E+02  0.45594000000E+02  0.51100000000E-03 0.  1.
         11   -1    0    0    0    0 -0.00000000000E+00 -0.00000000000E+00 -0.45593999997E+02  0.45594000000E+02  0.51100000000E-03 0. -1.
    9900012    2    1    2    0    0 -0.17355841157E+02 -0.20984202349E+02  0.35882476363E+02  0.46142311189E+02  0.99999400733E+01 0.  0.
         12    1    1    2    0    0  0.17355841157E+02  0.20984202349E+02 -0.35882476363E+02  0.45045688811E+02  0.00000000000E+00 0. -1.
         11    1    3    3    0    0 -0.73048470236E+01 -0.12396961147E+02  0.13507468811E+02  0.19735682144E+02  0.51100000000E-03 0. -1.
        -11    1    3    3    0    0 -0.63034410456E+01 -0.41042516395E+01  0.84928424373E+01  0.11344894158E+02  0.51100000000E-03 0.  1.
        -12    1    3    3    0    0 -0.37475530878E+01 -0.44829895623E+01  0.13882165114E+02  0.15061734887E+02  0.00000000000E+00 0.  1.
</event>
<event>
 7    1  0.2353206E-008  0.4614232E+02  0.7816164E-02  0.1320468E+00
        -11   -1    0    0    0    0  0.00000000000E+00  0.00000000000E+00  0.45593999997E+02  0.45594000000E+02  0.51100000000E-03 0.  1.
         11   -1    0    0    0    0 -0.00000000000E+00 -0.00000000000E+00 -0.45593999997E+02  0.45594000000E+02  0.51100000000E-03 0. -1.
    9900012    2    1    2    0    0 -0.21142246843E+02  0.15622702760E+01  0.39745162729E+02  0.46142320403E+02  0.10000024093E+02 0.  0.
         12    1    1    2    0    0  0.21142246843E+02 -0.15622702760E+01 -0.39745162729E+02  0.45045679597E+02  0.00000000000E+00 0. -1.
         11    1    3    3    0    0 -0.48422703108E+01  0.29928182334E+00  0.34690460936E+01  0.59641791081E+01  0.51100000000E-03 0. -1.
        -11    1    3    3    0    0 -0.90438660571E+01 -0.20704305413E+01  0.20146147014E+02  0.22179843003E+02  0.51100000000E-03 0.  1.
        -12    1    3    3    0    0 -0.72561104753E+01  0.33334189940E+01  0.16129969621E+02  0.17998298292E+02  0.00000000000E+00 0.  1.
</event>
<event>
 7    1  0.2353206E-008  0.4614232E+02  0.7816164E-02  0.1320468E+00
        -11   -1    0    0    0    0  0.00000000000E+00  0.00000000000E+00  0.45593999997E+02  0.45594000000E+02  0.51100000000E-03 0.  1.
         11   -1    0    0    0    0 -0.00000000000E+00 -0.00000000000E+00 -0.45593999997E+02  0.45594000000E+02  0.51100000000E-03 0. -1.
    9900012    2    1    2    0    0 -0.25281562608E+02  0.32430281239E+02  0.18391110244E+02  0.46142317797E+02  0.10000000328E+02 0.  0.
         12    1    1    2    0    0  0.25281562608E+02 -0.32430281239E+02 -0.18391110244E+02  0.45045682203E+02  0.00000000000E+00 0. -1.
         11    1    3    3    0    0 -0.73936990853E+01  0.91061387136E+01  0.16333181982E+01  0.11842984296E+02  0.51100000000E-03 0. -1.
        -11    1    3    3    0    0 -0.13009245841E+02  0.15505958432E+02  0.85995277739E+01  0.21991523422E+02  0.51100000000E-03 0.  1.
         12    1    3    3    0    0 -0.48786176814E+01  0.78181840931E+01  0.81582642723E+01  0.12307810079E+02  0.00000000000E+00 0. -1.
</event>
<event>
 7    1  0.2353206E-008  0.4614233E+02  0.7816164E-02  0.1320468E+00
        -11   -1    0    0    0    0  0.00000000000E+00  0.00000000000E+00  0.45593999997E+02  0.45594000000E+02  0.51100000000E-03 0.  1.
         11   -1    0    0    0    0 -0.00000000000E+00 -0.00000000000E+00 -0.45593999997E+02  0.45594000000E+02  0.51100000000E-03 0. -1.
    9900012    2    1    2    0    0 -0.16876701883E+02 -0.41760648881E+02  0.58125355764E+00  0.46142326322E+02  0.10000078064E+02 0.  0.
         12    1    1    2    0    0  0.16876701883E+02  0.41760648881E+02 -0.58125355764E+00  0.45045673678E+02  0.00000000000E+00 0. -1.
         11    1    3    3    0    0 -0.16997213881E+01 -0.75972313016E+01 -0.77203878198E+00  0.78232359282E+01  0.51100000000E-03 0. -1.
        -11    1    3    3    0    0 -0.35817360734E+01 -0.18102400512E+02 -0.13728105181E+00  0.18453850111E+02  0.51100000000E-03 0.  1.
         12    1    3    3    0    0 -0.11595244421E+02 -0.16061017068E+02  0.14905733914E+01  0.19865240282E+02  0.00000000000E+00 0. -1.
</event>
<event>
 7    1  0.2353206E-008  0.4614232E+02  0.7816164E-02  0.1320468E+00
        -11   -1    0    0    0    0  0.00000000000E+00  0.00000000000E+00  0.45593999997E+02  0.45594000000E+02  0.51100000000E-03 0. -1.
         11   -1    0    0    0    0 -0.00000000000E+00 -0.00000000000E+00 -0.45593999997E+02  0.45594000000E+02  0.51100000000E-03 0.  1.
    9900012    2    1    2    0    0 -0.42023310056E+01  0.39670445903E+02 -0.20921511659E+02  0.46142317475E+02  0.99999973897E+01 0.  0.
         12    1    1    2    0    0  0.42023310056E+01 -0.39670445903E+02  0.20921511659E+02  0.45045682525E+02  0.00000000000E+00 0. -1.
         11    1    3    3    0    0 -0.69127863920E+00  0.52798345179E+01  0.20010668651E+00  0.53286547684E+01  0.51100000000E-03 0. -1.
        -11    1    3    3    0    0 -0.20408513916E+01  0.19244602129E+02 -0.89227681839E+01  0.21310457006E+02  0.51100000000E-03 0.  1.
        -12    1    3    3    0    0 -0.14702009748E+01  0.15146009257E+02 -0.12198850162E+02  0.19503205700E+02  0.00000000000E+00 0.  1.
</event>
<event>
 7    1  0.2353206E-008  0.4614232E+02  0.7816164E-02  0.1320468E+00
        -11   -1    0    0    0    0  0.00000000000E+00  0.00000000000E+00  0.45593999997E+02  0.45594000000E+02  0.51100000000E-03 0.  1.
         11   -1    0    0    0    0 -0.00000000000E+00 -0.00000000000E+00 -0.45593999997E+02  0.45594000000E+02  0.51100000000E-03 0. -1.
    9900012    2    1    2    0    0 -0.38597738654E+02  0.95099374015E+01  0.21187004941E+02  0.46142317444E+02  0.99999971049E+01 0.  0.
         12    1    1    2    0    0  0.38597738654E+02 -0.95099374015E+01 -0.21187004941E+02  0.45045682556E+02  0.00000000000E+00 0. -1.
         11    1    3    3    0    0 -0.99174786772E+01  0.43872526730E+00  0.50113225485E+01  0.11120351484E+02  0.51100000000E-03 0. -1.
        -11    1    3    3    0    0 -0.47096957102E+01 -0.76244885358E+00  0.64477236467E+00  0.48143840312E+01  0.51100000000E-03 0.  1.
        -12    1    3    3    0    0 -0.23970564267E+02  0.98336609877E+01  0.15530910028E+02  0.30207581929E+02  0.00000000000E+00 0.  1.
</event>
<event>
 7    1  0.2353206E-008  0.4614232E+02  0.7816164E-02  0.1320468E+00
        -11   -1    0    0    0    0  0.00000000000E+00  0.00000000000E+00  0.45593999997E+02  0.45594000000E+02  0.51100000000E-03 0.  1.
         11   -1    0    0    0    0 -0.00000000000E+00 -0.00000000000E+00 -0.45593999997E+02  0.45594000000E+02  0.51100000000E-03 0. -1.
    9900012    2    1    2    0    0 -0.16545381107E+01  0.61319734622E+01  0.44595681940E+02  0.46142318269E+02  0.10000004634E+02 0.  0.
         12    1    1    2    0    0  0.16545381107E+01 -0.61319734622E+01 -0.44595681940E+02  0.45045681731E+02  0.00000000000E+00 0. -1.
         11    1    3    3    0    0 -0.21121297503E+01  0.34735707504E+01  0.33398854690E+02  0.33645360463E+02  0.51100000000E-03 0. -1.
        -11    1    3    3    0    0 -0.93947929365E+00  0.33626266494E+00  0.88674732621E+01  0.89234397089E+01  0.51100000000E-03 0.  1.
         12    1    3    3    0    0  0.13970709333E+01  0.23221400469E+01  0.23293539879E+01  0.35735180972E+01  0.00000000000E+00 0. -1.
</event>
<event>
 7    1  0.2353206E-008  0.4614232E+02  0.7816164E-02  0.1320468E+00
        -11   -1    0    0    0    0  0.00000000000E+00  0.00000000000E+00  0.45593999997E+02  0.45594000000E+02  0.51100000000E-03 0. -1.
         11   -1    0    0    0    0 -0.00000000000E+00 -0.00000000000E+00 -0.45593999997E+02  0.45594000000E+02  0.51100000000E-03 0.  1.
    9900012    2    1    2    0    0  0.17469441195E+02 -0.40380084972E+02  0.96633722394E+01  0.46142318730E+02  0.10000008836E+02 0.  0.
         12    1    1    2    0    0 -0.17469441195E+02  0.40380084972E+02 -0.96633722394E+01  0.45045681270E+02  0.00000000000E+00 0. -1.
         11    1    3    3    0    0  0.24945899126E+01 -0.49451164556E+01 -0.17160737740E+01  0.57984536776E+01  0.51100000000E-03 0. -1.
        -11    1    3    3    0    0  0.14766119524E+01 -0.11958206363E+01  0.47429866375E+00  0.19583996875E+01  0.51100000000E-03 0.  1.
         12    1    3    3    0    0  0.13498239330E+02 -0.34239147880E+02  0.10905147350E+02  0.38385465365E+02  0.00000000000E+00 0. -1.
</event>
<event>
 7    1  0.2353206E-008  0.4614232E+02  0.7816164E-02  0.1320468E+00
        -11   -1    0    0    0    0  0.00000000000E+00  0.00000000000E+00  0.45593999997E+02  0.45594000000E+02  0.51100000000E-03 0.  1.
         11   -1    0    0    0    0 -0.00000000000E+00 -0.00000000000E+00 -0.45593999997E+02  0.45594000000E+02  0.51100000000E-03 0. -1.
    9900012    2    1    2    0    0 -0.27226358934E+02  0.33605881291E+02 -0.12589020887E+02  0.46142319574E+02  0.10000016533E+02 0.  0.
         12    1    1    2    0    0  0.27226358934E+02 -0.33605881291E+02  0.12589020887E+02  0.45045680426E+02  0.00000000000E+00 0. -1.
         11    1    3    3    0    0 -0.12345080109E+02  0.99204038576E+01 -0.18151990309E+01  0.15940839482E+02  0.51100000000E-03 0. -1.
        -11    1    3    3    0    0 -0.40740412407E+01  0.86244387423E+01 -0.22590200980E+01  0.98021389357E+01  0.51100000000E-03 0.  1.
        -12    1    3    3    0    0 -0.10807237584E+02  0.15061038691E+02 -0.85148017579E+01  0.20399341157E+02  0.00000000000E+00 0.  1.
</event>
<event>
 7    1  0.2353206E-008  0.4614232E+02  0.7816164E-02  0.1320468E+00
        -11   -1    0    0    0    0  0.00000000000E+00  0.00000000000E+00  0.45593999997E+02  0.45594000000E+02  0.51100000000E-03 0. -1.
         11   -1    0    0    0    0 -0.00000000000E+00 -0.00000000000E+00 -0.45593999997E+02  0.45594000000E+02  0.51100000000E-03 0.  1.
    9900012    2    1    2    0    0  0.18055884867E+02 -0.38302534375E+02  0.15362759317E+02  0.46142317724E+02  0.99999996649E+01 0.  0.
         12    1    1    2    0    0 -0.18055884867E+02  0.38302534375E+02 -0.15362759317E+02  0.45045682276E+02  0.00000000000E+00 0. -1.
         11    1    3    3    0    0  0.94702174008E+00 -0.10133316757E+01  0.11261785812E+01  0.17866084404E+01  0.51100000000E-03 0. -1.
        -11    1    3    3    0    0  0.10190129778E+01 -0.86102441113E+01  0.40118925957E+00  0.86796108316E+01  0.51100000000E-03 0.  1.
        -12    1    3    3    0    0  0.16089850149E+02 -0.28678958588E+02  0.13835391476E+02  0.35676098452E+02  0.00000000000E+00 0.  1.
</event>
<event>
 7    1  0.2353206E-008  0.4614231E+02  0.7816164E-02  0.1320468E+00
        -11   -1    0    0    0    0  0.00000000000E+00  0.00000000000E+00  0.45593999997E+02  0.45594000000E+02  0.51100000000E-03 0. -1.
         11   -1    0    0    0    0 -0.00000000000E+00 -0.00000000000E+00 -0.45593999997E+02  0.45594000000E+02  0.51100000000E-03 0.  1.
    9900012    2    1    2    0    0 -0.38395233272E+02 -0.14576094970E+02 -0.18505609278E+02  0.46142311446E+02  0.99999424094E+01 0.  0.
         12    1    1    2    0    0  0.38395233272E+02  0.14576094970E+02  0.18505609278E+02  0.45045688554E+02  0.00000000000E+00 0. -1.
         11    1    3    3    0    0 -0.43926957821E+01 -0.28948023162E+01 -0.47475875257E+01  0.70862715344E+01  0.51100000000E-03 0. -1.
        -11    1    3    3    0    0 -0.37879339249E+01 -0.36317533056E+01 -0.25991025350E+01  0.58560575254E+01  0.51100000000E-03 0.  1.
        -12    1    3    3    0    0 -0.30214603565E+02 -0.80495393484E+01 -0.11158919217E+02  0.33199982386E+02  0.00000000000E+00 0.  1.
</event>
<event>
 7    1  0.2353206E-008  0.4614232E+02  0.7816164E-02  0.1320468E+00
        -11   -1    0    0    0    0  0.00000000000E+00  0.00000000000E+00  0.45593999997E+02  0.45594000000E+02  0.51100000000E-03 0.  1.
         11   -1    0    0    0    0 -0.00000000000E+00 -0.00000000000E+00 -0.45593999997E+02  0.45594000000E+02  0.51100000000E-03 0. -1.
    9900012    2    1    2    0    0  0.21049562279E+01  0.31405552164E+02  0.32223809807E+02  0.46142318010E+02  0.10000002268E+02 0.  0.
         12    1    1    2    0    0 -0.21049562279E+01 -0.31405552164E+02 -0.32223809807E+02  0.45045681990E+02  0.00000000000E+00 0. -1.
         11    1    3    3    0    0 -0.32065909468E+01  0.12173846271E+02  0.11494268453E+02  0.17047080866E+02  0.51100000000E-03 0. -1.
        -11    1    3    3    0    0  0.18556367027E+01  0.17346948848E+01  0.20057538029E+01  0.32366035430E+01  0.51100000000E-03 0.  1.
        -12    1    3    3    0    0  0.34559104720E+01  0.17497011008E+02  0.18723787552E+02  0.25858633601E+02  0.00000000000E+00 0.  1.
</event>
<event>
 7    1  0.2353206E-008  0.4614232E+02  0.7816164E-02  0.1320468E+00
        -11   -1    0    0    0    0  0.00000000000E+00  0.00000000000E+00  0.45593999997E+02  0.45594000000E+02  0.51100000000E-03 0.  1.
         11   -1    0    0    0    0 -0.00000000000E+00 -0.00000000000E+00 -0.45593999997E+02  0.45594000000E+02  0.51100000000E-03 0. -1.
    9900012    2    1    2    0    0 -0.56235635616E+00 -0.15323562995E+02  0.42355468198E+02  0.46142317479E+02  0.99999974264E+01 0.  0.
         12    1    1    2    0    0  0.56235635616E+00  0.15323562995E+02 -0.42355468198E+02  0.45045682521E+02  0.00000000000E+00 0. -1.
         11    1    3    3    0    0 -0.19485995071E+01 -0.53104619821E+01  0.85295452624E+01  0.10234802839E+02  0.51100000000E-03 0. -1.
        -11    1    3    3    0    0  0.69737863519E+00 -0.10820686874E+02  0.28867970192E+02  0.30837206499E+02  0.51100000000E-03 0.  1.
         12    1    3    3    0    0  0.68886451579E+00  0.80758586064E+00  0.49579527432E+01  0.50703081413E+01  0.00000000000E+00 0. -1.
</event>
<event>
 7    1  0.2353206E-008  0.4614232E+02  0.7816164E-02  0.1320468E+00
        -11   -1    0    0    0    0  0.00000000000E+00  0.00000000000E+00  0.45593999997E+02  0.45594000000E+02  0.51100000000E-03 0.  1.
         11   -1    0    0    0    0 -0.00000000000E+00 -0.00000000000E+00 -0.45593999997E+02  0.45594000000E+02  0.51100000000E-03 0. -1.
    9900012    2    1    2    0    0  0.26330942192E+02  0.28636250971E+02  0.22710351445E+02  0.46142318196E+02  0.10000003969E+02 0.  0.
         12    1    1    2    0    0 -0.26330942192E+02 -0.28636250971E+02 -0.22710351445E+02  0.45045681804E+02  0.00000000000E+00 0. -1.
         11    1    3    3    0    0  0.28041326707E+01  0.70178576511E+01  0.58063960196E+01  0.95303578654E+01  0.51100000000E-03 0. -1.
        -11    1    3    3    0    0  0.21369188233E+01  0.16420744726E+01  0.35102003295E+01  0.44254194428E+01  0.51100000000E-03 0.  1.
        -12    1    3    3    0    0  0.21389890699E+02  0.19976318847E+02  0.13393755096E+02  0.32186540888E+02  0.00000000000E+00 0.  1.
</event>
<event>
 7    1  0.2353206E-008  0.4614232E+02  0.7816164E-02  0.1320468E+00
        -11   -1    0    0    0    0  0.00000000000E+00  0.00000000000E+00  0.45593999997E+02  0.45594000000E+02  0.51100000000E-03 0. -1.
         11   -1    0    0    0    0 -0.00000000000E+00 -0.00000000000E+00 -0.45593999997E+02  0.45594000000E+02  0.51100000000E-03 0.  1.
    9900012    2    1    2    0    0  0.43203594266E+02 -0.62229267123E+01 -0.11128253701E+02  0.46142318689E+02  0.10000008461E+02 0.  0.
         12    1    1    2    0    0 -0.43203594266E+02  0.62229267123E+01  0.11128253701E+02  0.45045681311E+02  0.00000000000E+00 0. -1.
         11    1    3    3    0    0  0.77947418826E+01 -0.21470510379E+01  0.66219797751E+00  0.81121104281E+01  0.51100000000E-03 0. -1.
        -11    1    3    3    0    0  0.55600039721E+01  0.15584439831E+01 -0.16286557530E+01  0.59995759551E+01  0.51100000000E-03 0.  1.
        -12    1    3    3    0    0  0.29848848411E+02 -0.56343196575E+01 -0.10161795926E+02  0.32030632306E+02  0.00000000000E+00 0.  1.
</event>
<event>
 7    1  0.2353206E-008  0.4614231E+02  0.7816164E-02  0.1320468E+00
        -11   -1    0    0    0    0  0.00000000000E+00  0.00000000000E+00  0.45593999997E+02  0.45594000000E+02  0.51100000000E-03 0. -1.
         11   -1    0    0    0    0 -0.00000000000E+00 -0.00000000000E+00 -0.45593999997E+02  0.45594000000E+02  0.51100000000E-03 0.  1.
    9900012    2    1    2    0    0 -0.30021037317E+02 -0.15900771832E+02 -0.29580682144E+02  0.46142312276E+02  0.99999499837E+01 0.  0.
         12    1    1    2    0    0  0.30021037317E+02  0.15900771832E+02  0.29580682144E+02  0.45045687724E+02  0.00000000000E+00 0. -1.
         11    1    3    3    0    0 -0.73566449507E+01 -0.55689923588E+00 -0.93153952128E+01  0.11883053056E+02  0.51100000000E-03 0. -1.
        -11    1    3    3    0    0 -0.10434240342E+02 -0.68299766105E+01 -0.11539939802E+02  0.16990943556E+02  0.51100000000E-03 0.  1.
         12    1    3    3    0    0 -0.12230152024E+02 -0.85138959857E+01 -0.87253471288E+01  0.17268315665E+02  0.00000000000E+00 0. -1.
</event>
<event>
 7    1  0.2353206E-008  0.4614232E+02  0.7816164E-02  0.1320468E+00
        -11   -1    0    0    0    0  0.00000000000E+00  0.00000000000E+00  0.45593999997E+02  0.45594000000E+02  0.51100000000E-03 0.  1.
         11   -1    0    0    0    0 -0.00000000000E+00 -0.00000000000E+00 -0.45593999997E+02  0.45594000000E+02  0.51100000000E-03 0. -1.
    9900012    2    1    2    0    0 -0.10872726512E+02 -0.96239327944E+01  0.42641261784E+02  0.46142317956E+02  0.10000001780E+02 0.  0.
         12    1    1    2    0    0  0.10872726512E+02  0.96239327944E+01 -0.42641261784E+02  0.45045682044E+02  0.00000000000E+00 0. -1.
         11    1    3    3    0    0 -0.22167227122E+01 -0.69086071046E+00  0.19337245670E+01  0.30216616399E+01  0.51100000000E-03 0. -1.
        -11    1    3    3    0    0 -0.85945500752E+01 -0.93670314042E+01  0.40743707746E+02  0.42680877328E+02  0.51100000000E-03 0.  1.
        -12    1    3    3    0    0 -0.61453724865E-01  0.43395932019E+00 -0.36170528576E-01  0.43977898883E+00  0.00000000000E+00 0.  1.
</event>
<event>
 7    1  0.2353206E-008  0.4614232E+02  0.7816164E-02  0.1320468E+00
        -11   -1    0    0    0    0  0.00000000000E+00  0.00000000000E+00  0.45593999997E+02  0.45594000000E+02  0.51100000000E-03 0.  1.
         11   -1    0    0    0    0 -0.00000000000E+00 -0.00000000000E+00 -0.45593999997E+02  0.45594000000E+02  0.51100000000E-03 0. -1.
    9900012    2    1    2    0    0  0.13841942569E+02  0.14291723920E+02  0.40413621176E+02  0.46142317374E+02  0.99999964655E+01 0.  0.
         12    1    1    2    0    0 -0.13841942569E+02 -0.14291723920E+02 -0.40413621176E+02  0.45045682626E+02  0.00000000000E+00 0. -1.
         11    1    3    3    0    0 -0.50781660757E-01  0.35495261903E+01  0.72473788854E+01  0.80700815313E+01  0.51100000000E-03 0. -1.
        -11    1    3    3    0    0 -0.12941513520E+00  0.52912369909E+00  0.47379242126E+01  0.47691347508E+01  0.51100000000E-03 0.  1.
        -12    1    3    3    0    0  0.14022139365E+02  0.10213074031E+02  0.28428318078E+02  0.33303101091E+02  0.00000000000E+00 0.  1.
</event>
<event>
 7    1  0.2353206E-008  0.4614232E+02  0.7816164E-02  0.1320468E+00
        -11   -1    0    0    0    0  0.00000000000E+00  0.00000000000E+00  0.45593999997E+02  0.45594000000E+02  0.51100000000E-03 0. -1.
         11   -1    0    0    0    0 -0.00000000000E+00 -0.00000000000E+00 -0.45593999997E+02  0.45594000000E+02  0.51100000000E-03 0.  1.
    9900012    2    1    2    0    0 -0.21593669741E+02 -0.31628360875E+02 -0.23716527902E+02  0.46142317851E+02  0.10000000821E+02 0.  0.
         12    1    1    2    0    0  0.21593669741E+02  0.31628360875E+02  0.23716527902E+02  0.45045682149E+02  0.00000000000E+00 0. -1.
         11    1    3    3    0    0 -0.10573298466E+02 -0.11741433505E+02 -0.96785388947E+01  0.18529166646E+02  0.51100000000E-03 0. -1.
        -11    1    3    3    0    0 -0.80773337777E+01 -0.10129549350E+02 -0.10952076674E+02  0.16964641898E+02  0.51100000000E-03 0.  1.
         12    1    3    3    0    0 -0.29430374980E+01 -0.97573780200E+01 -0.30859123330E+01  0.10648509307E+02  0.00000000000E+00 0. -1.
</event>
<event>
 7    1  0.2353206E-008  0.4614232E+02  0.7816164E-02  0.1320468E+00
        -11   -1    0    0    0    0  0.00000000000E+00  0.00000000000E+00  0.45593999997E+02  0.45594000000E+02  0.51100000000E-03 0.  1.
         11   -1    0    0    0    0 -0.00000000000E+00 -0.00000000000E+00 -0.45593999997E+02  0.45594000000E+02  0.51100000000E-03 0. -1.
    9900012    2    1    2    0    0  0.41020739597E+02 -0.85002766630E+01  0.16557706634E+02  0.46142318415E+02  0.10000005966E+02 0.  0.
         12    1    1    2    0    0 -0.41020739597E+02  0.85002766630E+01 -0.16557706634E+02  0.45045681585E+02  0.00000000000E+00 0. -1.
         11    1    3    3    0    0  0.15466123132E+01 -0.15133158249E+01  0.13237077417E+01  0.25365994717E+01  0.51100000000E-03 0. -1.
        -11    1    3    3    0    0  0.22564909369E+02 -0.61805134874E+01  0.12274971987E+02  0.26420613531E+02  0.51100000000E-03 0.  1.
         12    1    3    3    0    0  0.16909217914E+02 -0.80644735065E+00  0.29590269052E+01  0.17185105412E+02  0.00000000000E+00 0. -1.
</event>
<event>
 7    1  0.2353206E-008  0.4614232E+02  0.7816164E-02  0.1320468E+00
        -11   -1    0    0    0    0  0.00000000000E+00  0.00000000000E+00  0.45593999997E+02  0.45594000000E+02  0.51100000000E-03 0. -1.
         11   -1    0    0    0    0 -0.00000000000E+00 -0.00000000000E+00 -0.45593999997E+02  0.45594000000E+02  0.51100000000E-03 0.  1.
    9900012    2    1    2    0    0  0.10219135429E+02 -0.27623110569E+02 -0.34082933703E+02  0.46142319450E+02  0.10000015399E+02 0.  0.
         12    1    1    2    0    0 -0.10219135429E+02  0.27623110569E+02  0.34082933703E+02  0.45045680550E+02  0.00000000000E+00 0. -1.
         11    1    3    3    0    0  0.58680399333E+01 -0.63515498216E+01 -0.10763464255E+02  0.13806818635E+02  0.51100000000E-03 0. -1.
        -11    1    3    3    0    0  0.50740161372E+01 -0.14415784447E+02 -0.13867197065E+02  0.20636366824E+02  0.51100000000E-03 0.  1.
        -12    1    3    3    0    0 -0.72292064165E+00 -0.68557762999E+01 -0.94522723829E+01  0.11699133991E+02  0.00000000000E+00 0.  1.
</event>
<event>
 7    1  0.2353206E-008  0.4614232E+02  0.7816164E-02  0.1320468E+00
        -11   -1    0    0    0    0  0.00000000000E+00  0.00000000000E+00  0.45593999997E+02  0.45594000000E+02  0.51100000000E-03 0.  1.
         11   -1    0    0    0    0 -0.00000000000E+00 -0.00000000000E+00 -0.45593999997E+02  0.45594000000E+02  0.51100000000E-03 0. -1.
    9900012    2    1    2    0    0 -0.44131809204E+01 -0.36943387554E+02  0.25393372613E+02  0.46142318493E+02  0.10000006676E+02 0.  0.
         12    1    1    2    0    0  0.44131809204E+01  0.36943387554E+02 -0.25393372613E+02  0.45045681507E+02  0.00000000000E+00 0. -1.
         11    1    3    3    0    0 -0.23570236069E+00 -0.30905105717E+00 -0.57468256718E+00  0.69377840332E+00  0.51100000000E-03 0. -1.
        -11    1    3    3    0    0  0.13652709793E+01 -0.53538364508E+01  0.41458355035E+01  0.69076393849E+01  0.51100000000E-03 0.  1.
        -12    1    3    3    0    0 -0.55427495390E+01 -0.31280500046E+02  0.21822219676E+02  0.38540900705E+02  0.00000000000E+00 0.  1.
</event>
<event>
 7    1  0.2353206E-008  0.4614232E+02  0.7816164E-02  0.1320468E+00
        -11   -1    0    0    0    0  0.00000000000E+00  0.00000000000E+00  0.45593999997E+02  0.45594000000E+02  0.51100000000E-03 0.  1.
         11   -1    0    0    0    0 -0.00000000000E+00 -0.00000000000E+00 -0.45593999997E+02  0.45594000000E+02  0.51100000000E-03 0. -1.
    9900012    2    1    2    0    0  0.39110149644E+02 -0.11584929960E+02  0.19112798239E+02  0.46142318033E+02  0.10000002477E+02 0.  0.
         12    1    1    2    0    0 -0.39110149644E+02  0.11584929960E+02 -0.19112798239E+02  0.45045681967E+02  0.00000000000E+00 0. -1.
         11    1    3    3    0    0  0.16984252491E+02 -0.79903431614E+01  0.12759198757E+02  0.22695981356E+02  0.51100000000E-03 0. -1.
        -11    1    3    3    0    0  0.11279483245E+02 -0.77811528775E+00  0.40209266232E+01  0.12000002368E+02  0.51100000000E-03 0.  1.
         12    1    3    3    0    0  0.10846413908E+02 -0.28164715108E+01  0.23326728593E+01  0.11446334308E+02  0.00000000000E+00 0. -1.
</event>
<event>
 7    1  0.2353206E-008  0.4614232E+02  0.7816164E-02  0.1320468E+00
        -11   -1    0    0    0    0  0.00000000000E+00  0.00000000000E+00  0.45593999997E+02  0.45594000000E+02  0.51100000000E-03 0.  1.
         11   -1    0    0    0    0 -0.00000000000E+00 -0.00000000000E+00 -0.45593999997E+02  0.45594000000E+02  0.51100000000E-03 0. -1.
    9900012    2    1    2    0    0  0.32304368885E+02  0.14389672693E+02  0.27901229977E+02  0.46142316928E+02  0.99999923992E+01 0.  0.
         12    1    1    2    0    0 -0.32304368885E+02 -0.14389672693E+02 -0.27901229977E+02  0.45045683072E+02  0.00000000000E+00 0. -1.
         11    1    3    3    0    0  0.11361942893E+02  0.75276371711E+01  0.87543973620E+01  0.16198720354E+02  0.51100000000E-03 0. -1.
        -11    1    3    3    0    0  0.13766959216E+02  0.24135576892E+01  0.85111318225E+01  0.16364406251E+02  0.51100000000E-03 0.  1.
        -12    1    3    3    0    0  0.71754667755E+01  0.44484778324E+01  0.10635700792E+02  0.13579190322E+02  0.00000000000E+00 0.  1.
</event>
<event>
 7    1  0.2353206E-008  0.4614232E+02  0.7816164E-02  0.1320468E+00
        -11   -1    0    0    0    0  0.00000000000E+00  0.00000000000E+00  0.45593999997E+02  0.45594000000E+02  0.51100000000E-03 0. -1.
         11   -1    0    0    0    0 -0.00000000000E+00 -0.00000000000E+00 -0.45593999997E+02  0.45594000000E+02  0.51100000000E-03 0.  1.
    9900012    2    1    2    0    0  0.25429630112E+02 -0.24467578541E+02 -0.27996162922E+02  0.46142316238E+02  0.99999861066E+01 0.  0.
         12    1    1    2    0    0 -0.25429630112E+02  0.24467578541E+02  0.27996162922E+02  0.45045683762E+02  0.00000000000E+00 0. -1.
         11    1    3    3    0    0  0.41230928638E+01 -0.16657413790E+01 -0.31703367669E+01  0.54612841513E+01  0.51100000000E-03 0. -1.
        -11    1    3    3    0    0  0.16732270817E+02 -0.12641913873E+02 -0.17816214938E+02  0.27517347038E+02  0.51100000000E-03 0.  1.
         12    1    3    3    0    0  0.45742664314E+01 -0.10159923289E+02 -0.70096112172E+01  0.13163685048E+02  0.00000000000E+00 0. -1.
</event>
<event>
 7    1  0.2353206E-008  0.4614232E+02  0.7816164E-02  0.1320468E+00
        -11   -1    0    0    0    0  0.00000000000E+00  0.00000000000E+00  0.45593999997E+02  0.45594000000E+02  0.51100000000E-03 0.  1.
         11   -1    0    0    0    0 -0.00000000000E+00 -0.00000000000E+00 -0.45593999997E+02  0.45594000000E+02  0.51100000000E-03 0. -1.
    9900012    2    1    2    0    0 -0.69585593121E+01 -0.19871146237E+02  0.39822474908E+02  0.46142317540E+02  0.99999979839E+01 0.  0.
         12    1    1    2    0    0  0.69585593121E+01  0.19871146237E+02 -0.39822474908E+02  0.45045682460E+02  0.00000000000E+00 0. -1.
         11    1    3    3    0    0  0.67519764708E+00 -0.19825983541E+01  0.17923438458E+01  0.27566437599E+01  0.51100000000E-03 0. -1.
        -11    1    3    3    0    0 -0.59149407099E+01 -0.62265620149E+01  0.11485331032E+02  0.14341179425E+02  0.51100000000E-03 0.  1.
        -12    1    3    3    0    0 -0.17188162493E+01 -0.11661985868E+02  0.26544800030E+02  0.29044494355E+02  0.00000000000E+00 0.  1.
</event>
<event>
 7    1  0.2353206E-008  0.4614232E+02  0.7816164E-02  0.1320468E+00
        -11   -1    0    0    0    0  0.00000000000E+00  0.00000000000E+00  0.45593999997E+02  0.45594000000E+02  0.51100000000E-03 0.  1.
         11   -1    0    0    0    0 -0.00000000000E+00 -0.00000000000E+00 -0.45593999997E+02  0.45594000000E+02  0.51100000000E-03 0. -1.
    9900012    2    1    2    0    0 -0.34282269616E+02 -0.12556906542E+02  0.26384901113E+02  0.46142324085E+02  0.10000057667E+02 0.  0.
         12    1    1    2    0    0  0.34282269616E+02  0.12556906542E+02 -0.26384901113E+02  0.45045675915E+02  0.00000000000E+00 0. -1.
         11    1    3    3    0    0 -0.14718683233E+02 -0.35666062454E+01  0.84188104972E+01  0.17327339284E+02  0.51100000000E-03 0. -1.
        -11    1    3    3    0    0 -0.19049082819E+02 -0.77360897638E+01  0.18177051569E+02  0.27443029080E+02  0.51100000000E-03 0.  1.
         12    1    3    3    0    0 -0.51450356391E+00 -0.12542105325E+01 -0.21096095324E+00  0.13719557212E+01  0.00000000000E+00 0. -1.
</event>
<event>
 7    1  0.2353206E-008  0.4614232E+02  0.7816164E-02  0.1320468E+00
        -11   -1    0    0    0    0  0.00000000000E+00  0.00000000000E+00  0.45593999997E+02  0.45594000000E+02  0.51100000000E-03 0.  1.
         11   -1    0    0    0    0 -0.00000000000E+00 -0.00000000000E+00 -0.45593999997E+02  0.45594000000E+02  0.51100000000E-03 0. -1.
    9900012    2    1    2    0    0  0.27515536514E+02  0.29299408798E+02  0.20336007030E+02  0.46142319991E+02  0.10000020333E+02 0.  0.
         12    1    1    2    0    0 -0.27515536514E+02 -0.29299408798E+02 -0.20336007030E+02  0.45045680009E+02  0.00000000000E+00 0. -1.
         11    1    3    3    0    0  0.12476932056E+02  0.15357103148E+02  0.46986531585E+01  0.20336956321E+02  0.51100000000E-03 0. -1.
        -11    1    3    3    0    0  0.36272034701E+01  0.29340514917E+01  0.32793589210E+01  0.57025834815E+01  0.51100000000E-03 0.  1.
         12    1    3    3    0    0  0.11411400988E+02  0.11008254158E+02  0.12357994950E+02  0.20102780188E+02  0.00000000000E+00 0. -1.
</event>
<event>
 7    1  0.2353206E-008  0.4614232E+02  0.7816164E-02  0.1320468E+00
        -11   -1    0    0    0    0  0.00000000000E+00  0.00000000000E+00  0.45593999997E+02  0.45594000000E+02  0.51100000000E-03 0. -1.
         11   -1    0    0    0    0 -0.00000000000E+00 -0.00000000000E+00 -0.45593999997E+02  0.45594000000E+02  0.51100000000E-03 0.  1.
    9900012    2    1    2    0    0 -0.21053980069E+02  0.72299763668E+01 -0.39160832154E+02  0.46142318630E+02  0.10000007928E+02 0.  0.
         12    1    1    2    0    0  0.21053980069E+02 -0.72299763668E+01  0.39160832154E+02  0.45045681370E+02  0.00000000000E+00 0. -1.
         11    1    3    3    0    0 -0.96185032749E+00  0.12923166312E+00 -0.22700880753E+00  0.99668958812E+00  0.51100000000E-03 0. -1.
        -11    1    3    3    0    0 -0.15435378417E+02  0.18147398258E+01 -0.23425139680E+02  0.28111943313E+02  0.51100000000E-03 0.  1.
        -12    1    3    3    0    0 -0.46567513246E+01  0.52860048779E+01 -0.15508683666E+02  0.17033685730E+02  0.00000000000E+00 0.  1.
</event>
<event>
 7    1  0.2353206E-008  0.4614232E+02  0.7816164E-02  0.1320468E+00
        -11   -1    0    0    0    0  0.00000000000E+00  0.00000000000E+00  0.45593999997E+02  0.45594000000E+02  0.51100000000E-03 0. -1.
         11   -1    0    0    0    0 -0.00000000000E+00 -0.00000000000E+00 -0.45593999997E+02  0.45594000000E+02  0.51100000000E-03 0.  1.
    9900012    2    1    2    0    0 -0.35813626904E+02  0.99032140370E+01 -0.25464171288E+02  0.46142317192E+02  0.99999948079E+01 0.  0.
         12    1    1    2    0    0  0.35813626904E+02 -0.99032140370E+01  0.25464171288E+02  0.45045682808E+02  0.00000000000E+00 0. -1.
         11    1    3    3    0    0 -0.11456359585E+01 -0.75889703548E+00 -0.27250760993E+01  0.30519578090E+01  0.51100000000E-03 0. -1.
        -11    1    3    3    0    0 -0.32910707994E+02  0.96609638996E+01 -0.22573624703E+02  0.41061142905E+02  0.51100000000E-03 0.  1.
         12    1    3    3    0    0 -0.17572829510E+01  0.10011471729E+01 -0.16547048542E+00  0.20292164776E+01  0.00000000000E+00 0. -1.
</event>
<event>
 7    1  0.2353206E-008  0.4614232E+02  0.7816164E-02  0.1320468E+00
        -11   -1    0    0    0    0  0.00000000000E+00  0.00000000000E+00  0.45593999997E+02  0.45594000000E+02  0.51100000000E-03 0.  1.
         11   -1    0    0    0    0 -0.00000000000E+00 -0.00000000000E+00 -0.45593999997E+02  0.45594000000E+02  0.51100000000E-03 0. -1.
    9900012    2    1    2    0    0 -0.18111325566E+02  0.25083712924E+02  0.32739893620E+02  0.46142318719E+02  0.10000008735E+02 0.  0.
         12    1    1    2    0    0  0.18111325566E+02 -0.25083712924E+02 -0.32739893620E+02  0.45045681281E+02  0.00000000000E+00 0. -1.
         11    1    3    3    0    0 -0.17659846478E+00  0.36388824937E+01  0.65652403075E+01  0.75083309316E+01  0.51100000000E-03 0. -1.
        -11    1    3    3    0    0 -0.31730269721E+01  0.68862675310E+01  0.84935831652E+01  0.11385505519E+02  0.51100000000E-03 0.  1.
        -12    1    3    3    0    0 -0.14761700129E+02  0.14558562899E+02  0.17681070147E+02  0.27248482269E+02  0.00000000000E+00 0.  1.
</event>
<event>
 7    1  0.2353206E-008  0.4614232E+02  0.7816164E-02  0.1320468E+00
        -11   -1    0    0    0    0  0.00000000000E+00  0.00000000000E+00  0.45593999997E+02  0.45594000000E+02  0.51100000000E-03 0.  1.
         11   -1    0    0    0    0 -0.00000000000E+00 -0.00000000000E+00 -0.45593999997E+02  0.45594000000E+02  0.51100000000E-03 0. -1.
    9900012    2    1    2    0    0 -0.43307795996E+02 -0.12148383016E+02 -0.24423579068E+01  0.46142317453E+02  0.99999971921E+01 0.  0.
         12    1    1    2    0    0  0.43307795996E+02  0.12148383016E+02  0.24423579068E+01  0.45045682547E+02  0.00000000000E+00 0. -1.
         11    1    3    3    0    0 -0.35771577223E+01 -0.29346557397E+01 -0.20629688458E+01  0.50659749704E+01  0.51100000000E-03 0. -1.
        -11    1    3    3    0    0 -0.22883177120E+02 -0.47204692808E+01 -0.25572233546E+01  0.23504510564E+02  0.51100000000E-03 0.  1.
        -12    1    3    3    0    0 -0.16847461154E+02 -0.44932579959E+01  0.21778342937E+01  0.17571831918E+02  0.00000000000E+00 0.  1.
</event>
<event>
 7    1  0.2353206E-008  0.4614232E+02  0.7816164E-02  0.1320468E+00
        -11   -1    0    0    0    0  0.00000000000E+00  0.00000000000E+00  0.45593999997E+02  0.45594000000E+02  0.51100000000E-03 0.  1.
         11   -1    0    0    0    0 -0.00000000000E+00 -0.00000000000E+00 -0.45593999997E+02  0.45594000000E+02  0.51100000000E-03 0. -1.
    9900012    2    1    2    0    0 -0.14753093534E+02  0.12499102921E+02  0.40684543575E+02  0.46142318425E+02  0.10000006051E+02 0.  0.
         12    1    1    2    0    0  0.14753093534E+02 -0.12499102921E+02 -0.40684543575E+02  0.45045681575E+02  0.00000000000E+00 0. -1.
         11    1    3    3    0    0 -0.38582057625E+01  0.60630078827E+00  0.10545876561E+02  0.11245837677E+02  0.51100000000E-03 0. -1.
        -11    1    3    3    0    0 -0.59323757946E+01  0.62945421829E+01  0.22931346256E+02  0.24508386019E+02  0.51100000000E-03 0.  1.
        -12    1    3    3    0    0 -0.49625119772E+01  0.55982599501E+01  0.72073207579E+01  0.10388094729E+02  0.00000000000E+00 0.  1.
</event>
<event>
 7    1  0.2353206E-008  0.4614232E+02  0.7816164E-02  0.1320468E+00
        -11   -1    0    0    0    0  0.00000000000E+00  0.00000000000E+00  0.45593999997E+02  0.45594000000E+02  0.51100000000E-03 0.  1.
         11   -1    0    0    0    0 -0.00000000000E+00 -0.00000000000E+00 -0.45593999997E+02  0.45594000000E+02  0.51100000000E-03 0. -1.
    9900012    2    1    2    0    0  0.10054374808E+02  0.32789068477E+02  0.29204451075E+02  0.46142318443E+02  0.10000006216E+02 0.  0.
         12    1    1    2    0    0 -0.10054374808E+02 -0.32789068477E+02 -0.29204451075E+02  0.45045681557E+02  0.00000000000E+00 0. -1.
         11    1    3    3    0    0 -0.11585546932E+01  0.86212212058E+00  0.18598255482E+00  0.14560540167E+01  0.51100000000E-03 0. -1.
        -11    1    3    3    0    0  0.53897293677E+01  0.15650900723E+02  0.12151141353E+02  0.20534120691E+02  0.51100000000E-03 0.  1.
         12    1    3    3    0    0  0.58232001330E+01  0.16276045633E+02  0.16867327167E+02  0.24152143735E+02  0.00000000000E+00 0. -1.
</event>
<event>
 7    1  0.2353206E-008  0.4614232E+02  0.7816164E-02  0.1320468E+00
        -11   -1    0    0    0    0  0.00000000000E+00  0.00000000000E+00  0.45593999997E+02  0.45594000000E+02  0.51100000000E-03 0.  1.
         11   -1    0    0    0    0 -0.00000000000E+00 -0.00000000000E+00 -0.45593999997E+02  0.45594000000E+02  0.51100000000E-03 0. -1.
    9900012    2    1    2    0    0  0.44923050498E+02 -0.24022503119E+01 -0.22939442027E+01  0.46142318158E+02  0.10000003621E+02 0.  0.
         12    1    1    2    0    0 -0.44923050498E+02  0.24022503119E+01  0.22939442027E+01  0.45045681842E+02  0.00000000000E+00 0. -1.
         11    1    3    3    0    0  0.22189098606E+02 -0.15773220037E+01  0.17060037396E+01  0.22310412158E+02  0.51100000000E-03 0. -1.
        -11    1    3    3    0    0  0.22421810888E+02 -0.15292080002E+01 -0.44911745674E+01  0.22918261929E+02  0.51100000000E-03 0.  1.
        -12    1    3    3    0    0  0.31214100393E+00  0.70427969195E+00  0.49122662507E+00  0.91364407075E+00  0.00000000000E+00 0.  1.
</event>
<event>
 7    1  0.2353206E-008  0.4614232E+02  0.7816164E-02  0.1320468E+00
        -11   -1    0    0    0    0  0.00000000000E+00  0.00000000000E+00  0.45593999997E+02  0.45594000000E+02  0.51100000000E-03 0.  1.
         11   -1    0    0    0    0 -0.00000000000E+00 -0.00000000000E+00 -0.45593999997E+02  0.45594000000E+02  0.51100000000E-03 0. -1.
    9900012    2    1    2    0    0 -0.96437855557E+01 -0.41545696386E+02  0.14493655436E+02  0.46142317233E+02  0.99999951874E+01 0.  0.
         12    1    1    2    0    0  0.96437855557E+01  0.41545696386E+02 -0.14493655436E+02  0.45045682767E+02  0.00000000000E+00 0. -1.
         11    1    3    3    0    0 -0.27541774932E+01 -0.38436816176E+01  0.54668344773E+00  0.47600677616E+01  0.51100000000E-03 0. -1.
        -11    1    3    3    0    0 -0.30703755970E+01 -0.12156867997E+02  0.12489844437E+01  0.12600659039E+02  0.51100000000E-03 0.  1.
         12    1    3    3    0    0 -0.38192324654E+01 -0.25545146771E+02  0.12697987545E+02  0.28781590433E+02  0.00000000000E+00 0. -1.
</event>
<event>
 7    1  0.2353206E-008  0.4614230E+02  0.7816164E-02  0.1320468E+00
        -11   -1    0    0    0    0  0.00000000000E+00  0.00000000000E+00  0.45593999997E+02  0.45594000000E+02  0.51100000000E-03 0.  1.
         11   -1    0    0    0    0 -0.00000000000E+00 -0.00000000000E+00 -0.45593999997E+02  0.45594000000E+02  0.51100000000E-03 0. -1.
    9900012    2    1    2    0    0  0.92626859772E+01  0.23780552433E+01  0.44018885980E+02  0.46142302967E+02  0.99998650966E+01 0.  0.
         12    1    1    2    0    0 -0.92626859772E+01 -0.23780552433E+01 -0.44018885980E+02  0.45045697033E+02  0.00000000000E+00 0. -1.
         11    1    3    3    0    0  0.40227901412E+01  0.42871137686E+01  0.29374770217E+02  0.29957291442E+02  0.51100000000E-03 0.  1.
        -11    1    3    3    0    0  0.24753469700E+00 -0.16612678811E+01  0.21512537436E+01  0.27292814676E+01  0.51100000000E-03 0. -1.
        -12    1    3    3    0    0  0.49923611389E+01 -0.24779064416E+00  0.12492862020E+02  0.13455730058E+02  0.00000000000E+00 0.  1.
</event>
<event>
 7    1  0.2353206E-008  0.4614232E+02  0.7816164E-02  0.1320468E+00
        -11   -1    0    0    0    0  0.00000000000E+00  0.00000000000E+00  0.45593999997E+02  0.45594000000E+02  0.51100000000E-03 0. -1.
         11   -1    0    0    0    0 -0.00000000000E+00 -0.00000000000E+00 -0.45593999997E+02  0.45594000000E+02  0.51100000000E-03 0.  1.
    9900012    2    1    2    0    0  0.83232494800E+01  0.43837115891E+02 -0.61761002490E+01  0.46142318455E+02  0.10000006327E+02 0.  0.
         12    1    1    2    0    0 -0.83232494800E+01 -0.43837115891E+02  0.61761002490E+01  0.45045681545E+02  0.00000000000E+00 0. -1.
         11    1    3    3    0    0 -0.82715022620E+00  0.42372645873E+01 -0.38133030539E+00  0.43340514236E+01  0.51100000000E-03 0. -1.
        -11    1    3    3    0    0  0.10457763561E+01  0.85476903422E+01  0.18725567094E+01  0.88126685666E+01  0.51100000000E-03 0.  1.
         12    1    3    3    0    0  0.81046233502E+01  0.31052160962E+02 -0.76673266531E+01  0.32995598465E+02  0.00000000000E+00 0. -1.
</event>
<event>
 7    1  0.2353206E-008  0.4614232E+02  0.7816164E-02  0.1320468E+00
        -11   -1    0    0    0    0  0.00000000000E+00  0.00000000000E+00  0.45593999997E+02  0.45594000000E+02  0.51100000000E-03 0. -1.
         11   -1    0    0    0    0 -0.00000000000E+00 -0.00000000000E+00 -0.45593999997E+02  0.45594000000E+02  0.51100000000E-03 0.  1.
    9900012    2    1    2    0    0  0.28119067798E+02  0.24305155845E+02 -0.25449772943E+02  0.46142317440E+02  0.99999970709E+01 0.  0.
         12    1    1    2    0    0 -0.28119067798E+02 -0.24305155845E+02  0.25449772943E+02  0.45045682560E+02  0.00000000000E+00 0. -1.
         11    1    3    3    0    0  0.69443173652E+01  0.27296170737E+01 -0.25473338496E+01  0.78843682715E+01  0.51100000000E-03 0. -1.
        -11    1    3    3    0    0  0.39900614007E+01  0.63763565356E+01 -0.39254290662E+01  0.84845451420E+01  0.51100000000E-03 0.  1.
        -12    1    3    3    0    0  0.17184689032E+02  0.15199182235E+02 -0.18977010028E+02  0.29773404026E+02  0.00000000000E+00 0.  1.
</event>
<event>
 7    1  0.2353206E-008  0.4614232E+02  0.7816164E-02  0.1320468E+00
        -11   -1    0    0    0    0  0.00000000000E+00  0.00000000000E+00  0.45593999997E+02  0.45594000000E+02  0.51100000000E-03 0.  1.
         11   -1    0    0    0    0 -0.00000000000E+00 -0.00000000000E+00 -0.45593999997E+02  0.45594000000E+02  0.51100000000E-03 0. -1.
    9900012    2    1    2    0    0  0.42210627672E+02 -0.15728174026E+02  0.30122638119E-01  0.46142318143E+02  0.10000003480E+02 0.  0.
         12    1    1    2    0    0 -0.42210627672E+02  0.15728174026E+02 -0.30122638119E-01  0.45045681857E+02  0.00000000000E+00 0. -1.
         11    1    3    3    0    0  0.59483997288E+01 -0.12155366310E+00  0.46910736777E+00  0.59681066186E+01  0.51100000000E-03 0. -1.
        -11    1    3    3    0    0  0.27356202372E+02 -0.10205424464E+02  0.26289252425E+01  0.29315929883E+02  0.51100000000E-03 0.  1.
         12    1    3    3    0    0  0.89060255709E+01 -0.54011958986E+01 -0.30679099722E+01  0.10858281641E+02  0.00000000000E+00 0. -1.
</event>
<event>
 7    1  0.2353206E-008  0.4614232E+02  0.7816164E-02  0.1320468E+00
        -11   -1    0    0    0    0  0.00000000000E+00  0.00000000000E+00  0.45593999997E+02  0.45594000000E+02  0.51100000000E-03 0.  1.
         11   -1    0    0    0    0 -0.00000000000E+00 -0.00000000000E+00 -0.45593999997E+02  0.45594000000E+02  0.51100000000E-03 0. -1.
    9900012    2    1    2    0    0  0.26786917448E+01 -0.17484546793E+02  0.41427391860E+02  0.46142316941E+02  0.99999925171E+01 0.  0.
         12    1    1    2    0    0 -0.26786917448E+01  0.17484546793E+02 -0.41427391860E+02  0.45045683059E+02  0.00000000000E+00 0. -1.
         11    1    3    3    0    0 -0.78452195988E+00 -0.46618959694E+01  0.70791479772E+01  0.85125251882E+01  0.51100000000E-03 0. -1.
        -11    1    3    3    0    0 -0.88394294131E+00 -0.67713747921E+01  0.95774482696E+01  0.11762669226E+02  0.51100000000E-03 0.  1.
         12    1    3    3    0    0  0.43471566460E+01 -0.60512760312E+01  0.24770795613E+02  0.25867122527E+02  0.00000000000E+00 0. -1.
</event>
<event>
 7    1  0.2353206E-008  0.4614232E+02  0.7816164E-02  0.1320468E+00
        -11   -1    0    0    0    0  0.00000000000E+00  0.00000000000E+00  0.45593999997E+02  0.45594000000E+02  0.51100000000E-03 0.  1.
         11   -1    0    0    0    0 -0.00000000000E+00 -0.00000000000E+00 -0.45593999997E+02  0.45594000000E+02  0.51100000000E-03 0. -1.
    9900012    2    1    2    0    0  0.22850916060E+02  0.24010101419E+02  0.30503509213E+02  0.46142318639E+02  0.10000008008E+02 0.  0.
         12    1    1    2    0    0 -0.22850916060E+02 -0.24010101419E+02 -0.30503509213E+02  0.45045681361E+02  0.00000000000E+00 0. -1.
         11    1    3    3    0    0  0.16177782727E+02  0.16681488150E+02  0.23552836995E+02  0.33086686622E+02  0.51100000000E-03 0. -1.
        -11    1    3    3    0    0  0.68513796642E+01  0.72945653731E+01  0.74812711217E+01  0.12494859149E+02  0.51100000000E-03 0.  1.
         12    1    3    3    0    0 -0.17824633088E+00  0.34047895154E-01 -0.53059890338E+00  0.56077286837E+00  0.00000000000E+00 0. -1.
</event>
<event>
 7    1  0.2353206E-008  0.4614232E+02  0.7816164E-02  0.1320468E+00
        -11   -1    0    0    0    0  0.00000000000E+00  0.00000000000E+00  0.45593999997E+02  0.45594000000E+02  0.51100000000E-03 0.  1.
         11   -1    0    0    0    0 -0.00000000000E+00 -0.00000000000E+00 -0.45593999997E+02  0.45594000000E+02  0.51100000000E-03 0. -1.
    9900012    2    1    2    0    0  0.10408951625E+01 -0.35000353587E+02  0.28337346985E+02  0.46142318208E+02  0.10000004074E+02 0.  0.
         12    1    1    2    0    0 -0.10408951625E+01  0.35000353587E+02 -0.28337346985E+02  0.45045681792E+02  0.00000000000E+00 0. -1.
         11    1    3    3    0    0  0.26503451927E+01 -0.18660142084E+02  0.13188304309E+02  0.23003404162E+02  0.51100000000E-03 0. -1.
        -11    1    3    3    0    0 -0.15891558394E+01 -0.10952562657E+02  0.61793005230E+01  0.12675480277E+02  0.51100000000E-03 0.  1.
         12    1    3    3    0    0 -0.20294190821E-01 -0.53876488464E+01  0.89697421529E+01  0.10463433769E+02  0.00000000000E+00 0. -1.
</event>
<event>
 7    1  0.2353206E-008  0.4614231E+02  0.7816164E-02  0.1320468E+00
        -11   -1    0    0    0    0  0.00000000000E+00  0.00000000000E+00  0.45593999997E+02  0.45594000000E+02  0.51100000000E-03 0. -1.
         11   -1    0    0    0    0 -0.00000000000E+00 -0.00000000000E+00 -0.45593999997E+02  0.45594000000E+02  0.51100000000E-03 0.  1.
    9900012    2    1    2    0    0  0.83679232788E+01 -0.22372052532E+02 -0.38191401733E+02  0.46142311629E+02  0.99999440822E+01 0.  0.
         12    1    1    2    0    0 -0.83679232788E+01  0.22372052532E+02  0.38191401733E+02  0.45045688371E+02  0.00000000000E+00 0. -1.
         11    1    3    3    0    0  0.21252520000E+01 -0.61066976312E+01 -0.17524126112E+02  0.18678957366E+02  0.51100000000E-03 0.  1.
        -11    1    3    3    0    0 -0.32207032524E+00  0.17164032322E+00 -0.63196682625E+00  0.72977532540E+00  0.51100000000E-03 0. -1.
        -12    1    3    3    0    0  0.65647416041E+01 -0.16436995224E+02 -0.20035308794E+02  0.26733578937E+02  0.00000000000E+00 0.  1.
</event>
<event>
 7    1  0.2353206E-008  0.4614232E+02  0.7816164E-02  0.1320468E+00
        -11   -1    0    0    0    0  0.00000000000E+00  0.00000000000E+00  0.45593999997E+02  0.45594000000E+02  0.51100000000E-03 0.  1.
         11   -1    0    0    0    0 -0.00000000000E+00 -0.00000000000E+00 -0.45593999997E+02  0.45594000000E+02  0.51100000000E-03 0. -1.
    9900012    2    1    2    0    0  0.18072070994E+01 -0.27614108784E+02  0.35543050488E+02  0.46142318305E+02  0.10000004956E+02 0.  0.
         12    1    1    2    0    0 -0.18072070994E+01  0.27614108784E+02 -0.35543050488E+02  0.45045681695E+02  0.00000000000E+00 0. -1.
         11    1    3    3    0    0 -0.21772845215E+01 -0.82338306846E+01  0.10667333654E+02  0.13650221360E+02  0.51100000000E-03 0. -1.
        -11    1    3    3    0    0  0.45981802276E+01 -0.19665096071E+02  0.23719012102E+02  0.31152059326E+02  0.51100000000E-03 0.  1.
         12    1    3    3    0    0 -0.61368860670E+00  0.28481797158E+00  0.11567047325E+01  0.13400376193E+01  0.00000000000E+00 0. -1.
</event>
<event>
 7    1  0.2353206E-008  0.4614232E+02  0.7816164E-02  0.1320468E+00
        -11   -1    0    0    0    0  0.00000000000E+00  0.00000000000E+00  0.45593999997E+02  0.45594000000E+02  0.51100000000E-03 0.  1.
         11   -1    0    0    0    0 -0.00000000000E+00 -0.00000000000E+00 -0.45593999997E+02  0.45594000000E+02  0.51100000000E-03 0. -1.
    9900012    2    1    2    0    0 -0.27751593420E+02  0.25313679360E+02  0.24863225235E+02  0.46142320194E+02  0.10000022182E+02 0.  0.
         12    1    1    2    0    0  0.27751593420E+02 -0.25313679360E+02 -0.24863225235E+02  0.45045679806E+02  0.00000000000E+00 0. -1.
         11    1    3    3    0    0 -0.12012417106E+00  0.26207741121E+01  0.25563461531E+01  0.36630305321E+01  0.51100000000E-03 0. -1.
        -11    1    3    3    0    0 -0.26211379950E+02  0.22781215175E+02  0.21464740832E+02  0.40825914601E+02  0.51100000000E-03 0.  1.
        -12    1    3    3    0    0 -0.14200892987E+01 -0.88309926673E-01  0.84213824992E+00  0.16533750607E+01  0.00000000000E+00 0.  1.
</event>
<event>
 7    1  0.2353206E-008  0.4614232E+02  0.7816164E-02  0.1320468E+00
        -11   -1    0    0    0    0  0.00000000000E+00  0.00000000000E+00  0.45593999997E+02  0.45594000000E+02  0.51100000000E-03 0.  1.
         11   -1    0    0    0    0 -0.00000000000E+00 -0.00000000000E+00 -0.45593999997E+02  0.45594000000E+02  0.51100000000E-03 0. -1.
    9900012    2    1    2    0    0  0.65319087770E+01 -0.36050484260E+02  0.26207065226E+02  0.46142317461E+02  0.99999972608E+01 0.  0.
         12    1    1    2    0    0 -0.65319087770E+01  0.36050484260E+02 -0.26207065226E+02  0.45045682539E+02  0.00000000000E+00 0. -1.
         11    1    3    3    0    0  0.24114001882E+01 -0.19653940149E+02  0.15310266263E+02  0.25029911457E+02  0.51100000000E-03 0. -1.
        -11    1    3    3    0    0  0.50997912588E+01 -0.15975257302E+02  0.10977964650E+02  0.20043263828E+02  0.51100000000E-03 0.  1.
         12    1    3    3    0    0 -0.97928267000E+00 -0.42128680950E+00 -0.81165687225E-01  0.10691421760E+01  0.00000000000E+00 0. -1.
</event>
<event>
 7    1  0.2353206E-008  0.4614232E+02  0.7816164E-02  0.1320468E+00
        -11   -1    0    0    0    0  0.00000000000E+00  0.00000000000E+00  0.45593999997E+02  0.45594000000E+02  0.51100000000E-03 0.  1.
         11   -1    0    0    0    0 -0.00000000000E+00 -0.00000000000E+00 -0.45593999997E+02  0.45594000000E+02  0.51100000000E-03 0. -1.
    9900012    2    1    2    0    0 -0.20218277807E+02 -0.23013253727E+01  0.40187541270E+02  0.46142319527E+02  0.10000016106E+02 0.  0.
         12    1    1    2    0    0  0.20218277807E+02  0.23013253727E+01 -0.40187541270E+02  0.45045680473E+02  0.00000000000E+00 0. -1.
         11    1    3    3    0    0 -0.14281989469E+01  0.23530969857E+01  0.29704567221E+01  0.40497445667E+01  0.51100000000E-03 0. -1.
        -11    1    3    3    0    0 -0.52724222590E+01  0.17187388535E+00  0.89135467257E+01  0.10357571752E+02  0.51100000000E-03 0.  1.
         12    1    3    3    0    0 -0.13517656601E+02 -0.48262962437E+01  0.28303537822E+02  0.31735003208E+02  0.00000000000E+00 0. -1.
</event>
<event>
 7    1  0.2353206E-008  0.4614232E+02  0.7816164E-02  0.1320468E+00
        -11   -1    0    0    0    0  0.00000000000E+00  0.00000000000E+00  0.45593999997E+02  0.45594000000E+02  0.51100000000E-03 0.  1.
         11   -1    0    0    0    0 -0.00000000000E+00 -0.00000000000E+00 -0.45593999997E+02  0.45594000000E+02  0.51100000000E-03 0. -1.
    9900012    2    1    2    0    0 -0.29030053387E+02 -0.32865622500E+02  0.10306324855E+02  0.46142317921E+02  0.10000001455E+02 0.  0.
         12    1    1    2    0    0  0.29030053387E+02  0.32865622500E+02 -0.10306324855E+02  0.45045682079E+02  0.00000000000E+00 0. -1.
         11    1    3    3    0    0 -0.74084679047E+01 -0.70893548613E+01  0.41187832583E+01  0.11050281663E+02  0.51100000000E-03 0. -1.
        -11    1    3    3    0    0 -0.98786743359E+01 -0.81282069038E+01  0.53820862121E+01  0.13878861854E+02  0.51100000000E-03 0.  1.
         12    1    3    3    0    0 -0.11742911146E+02 -0.17648060735E+02  0.80545538490E+00  0.21213174404E+02  0.00000000000E+00 0. -1.
</event>
<event>
 7    1  0.2353206E-008  0.4614232E+02  0.7816164E-02  0.1320468E+00
        -11   -1    0    0    0    0  0.00000000000E+00  0.00000000000E+00  0.45593999997E+02  0.45594000000E+02  0.51100000000E-03 0. -1.
         11   -1    0    0    0    0 -0.00000000000E+00 -0.00000000000E+00 -0.45593999997E+02  0.45594000000E+02  0.51100000000E-03 0.  1.
    9900012    2    1    2    0    0  0.25621671487E+02 -0.17507781023E+02 -0.32651509388E+02  0.46142317505E+02  0.99999976615E+01 0.  0.
         12    1    1    2    0    0 -0.25621671487E+02  0.17507781023E+02  0.32651509388E+02  0.45045682495E+02  0.00000000000E+00 0. -1.
         11    1    3    3    0    0 -0.30162823549E+00 -0.20029738493E+01 -0.28741992077E+01  0.35162345172E+01  0.51100000000E-03 0. -1.
        -11    1    3    3    0    0  0.10102553880E+02 -0.83087337299E+01 -0.11713343196E+02  0.17558446975E+02  0.51100000000E-03 0.  1.
        -12    1    3    3    0    0  0.15820745843E+02 -0.71960734437E+01 -0.18063966984E+02  0.25067636012E+02  0.00000000000E+00 0.  1.
</event>
<event>
 7    1  0.2353206E-008  0.4614232E+02  0.7816164E-02  0.1320468E+00
        -11   -1    0    0    0    0  0.00000000000E+00  0.00000000000E+00  0.45593999997E+02  0.45594000000E+02  0.51100000000E-03 0. -1.
         11   -1    0    0    0    0 -0.00000000000E+00 -0.00000000000E+00 -0.45593999997E+02  0.45594000000E+02  0.51100000000E-03 0.  1.
    9900012    2    1    2    0    0 -0.42992260362E+02 -0.11539976487E+02 -0.68998538479E+01  0.46142317726E+02  0.99999996843E+01 0.  0.
         12    1    1    2    0    0  0.42992260362E+02  0.11539976487E+02  0.68998538479E+01  0.45045682274E+02  0.00000000000E+00 0. -1.
         11    1    3    3    0    0 -0.28054811709E+01  0.14506881953E+00 -0.20256885097E+01  0.34634063813E+01  0.51100000000E-03 0. -1.
        -11    1    3    3    0    0 -0.80538835507E+01 -0.47273322641E+00  0.10448324048E+01  0.81351208944E+01  0.51100000000E-03 0.  1.
         12    1    3    3    0    0 -0.32132895641E+02 -0.11212312080E+02 -0.59189977430E+01  0.34543790451E+02  0.00000000000E+00 0. -1.
</event>
<event>
 7    1  0.2353206E-008  0.4614232E+02  0.7816164E-02  0.1320468E+00
        -11   -1    0    0    0    0  0.00000000000E+00  0.00000000000E+00  0.45593999997E+02  0.45594000000E+02  0.51100000000E-03 0.  1.
         11   -1    0    0    0    0 -0.00000000000E+00 -0.00000000000E+00 -0.45593999997E+02  0.45594000000E+02  0.51100000000E-03 0. -1.
    9900012    2    1    2    0    0 -0.14075059979E+02 -0.41279917727E+02  0.11268300319E+02  0.46142317487E+02  0.99999975004E+01 0.  0.
         12    1    1    2    0    0  0.14075059979E+02  0.41279917727E+02 -0.11268300319E+02  0.45045682513E+02  0.00000000000E+00 0. -1.
         11    1    3    3    0    0 -0.66877480285E+00 -0.15291301001E+01  0.24700433658E+01  0.29810422826E+01  0.51100000000E-03 0. -1.
        -11    1    3    3    0    0 -0.61601045747E+01 -0.11028510096E+02  0.27256369441E+01  0.12923003533E+02  0.51100000000E-03 0.  1.
         12    1    3    3    0    0 -0.72461806015E+01 -0.28722277531E+02  0.60726200094E+01  0.30238271671E+02  0.00000000000E+00 0. -1.
</event>
<event>
 7    1  0.2353206E-008  0.4614232E+02  0.7816164E-02  0.1320468E+00
        -11   -1    0    0    0    0  0.00000000000E+00  0.00000000000E+00  0.45593999997E+02  0.45594000000E+02  0.51100000000E-03 0.  1.
         11   -1    0    0    0    0 -0.00000000000E+00 -0.00000000000E+00 -0.45593999997E+02  0.45594000000E+02  0.51100000000E-03 0. -1.
    9900012    2    1    2    0    0 -0.15465779761E+02 -0.85261158218E+01  0.41439454798E+02  0.46142318646E+02  0.10000008071E+02 0.  0.
         12    1    1    2    0    0  0.15465779761E+02  0.85261158218E+01 -0.41439454798E+02  0.45045681354E+02  0.00000000000E+00 0. -1.
         11    1    3    3    0    0 -0.51042400027E+01 -0.48576934752E+01  0.10467306298E+02  0.12618040787E+02  0.51100000000E-03 0. -1.
        -11    1    3    3    0    0 -0.10684819885E+02 -0.19059712381E+01  0.24261761183E+02  0.26578772701E+02  0.51100000000E-03 0.  1.
         12    1    3    3    0    0  0.32328012644E+00 -0.17624511085E+01  0.67103873180E+01  0.69455051586E+01  0.00000000000E+00 0. -1.
</event>
<event>
 7    1  0.2353206E-008  0.4614232E+02  0.7816164E-02  0.1320468E+00
        -11   -1    0    0    0    0  0.00000000000E+00  0.00000000000E+00  0.45593999997E+02  0.45594000000E+02  0.51100000000E-03 0. -1.
         11   -1    0    0    0    0 -0.00000000000E+00 -0.00000000000E+00 -0.45593999997E+02  0.45594000000E+02  0.51100000000E-03 0.  1.
    9900012    2    1    2    0    0 -0.22165273949E+02 -0.37976045510E+02 -0.97792661958E+01  0.46142318197E+02  0.10000003973E+02 0.  0.
         12    1    1    2    0    0  0.22165273949E+02  0.37976045510E+02  0.97792661958E+01  0.45045681803E+02  0.00000000000E+00 0. -1.
         11    1    3    3    0    0 -0.28657830759E+01 -0.88274778976E+01 -0.21040763974E+01  0.95165233367E+01  0.51100000000E-03 0. -1.
        -11    1    3    3    0    0 -0.12429716176E+02 -0.23658838599E+02 -0.77687646349E+01  0.27831496407E+02  0.51100000000E-03 0.  1.
         12    1    3    3    0    0 -0.68697746968E+01 -0.54897290137E+01  0.93574836541E-01  0.87942984529E+01  0.00000000000E+00 0. -1.
</event>
<event>
 7    1  0.2353206E-008  0.4614232E+02  0.7816164E-02  0.1320468E+00
        -11   -1    0    0    0    0  0.00000000000E+00  0.00000000000E+00  0.45593999997E+02  0.45594000000E+02  0.51100000000E-03 0.  1.
         11   -1    0    0    0    0 -0.00000000000E+00 -0.00000000000E+00 -0.45593999997E+02  0.45594000000E+02  0.51100000000E-03 0. -1.
    9900012    2    1    2    0    0 -0.36853534535E+02  0.16899260570E+02  0.19630211478E+02  0.46142320760E+02  0.10000027346E+02 0.  0.
         12    1    1    2    0    0  0.36853534535E+02 -0.16899260570E+02 -0.19630211478E+02  0.45045679240E+02  0.00000000000E+00 0. -1.
         11    1    3    3    0    0 -0.11732533306E+02  0.72021666258E+01  0.48162991257E+01  0.14584933302E+02  0.51100000000E-03 0.  1.
        -11    1    3    3    0    0 -0.62771793825E+01 -0.69981173319E+00  0.39447236595E+01  0.74467148779E+01  0.51100000000E-03 0. -1.
         12    1    3    3    0    0 -0.18843821846E+02  0.10396905677E+02  0.10869188693E+02  0.24110672580E+02  0.00000000000E+00 0. -1.
</event>
<event>
 7    1  0.2353206E-008  0.4614232E+02  0.7816164E-02  0.1320468E+00
        -11   -1    0    0    0    0  0.00000000000E+00  0.00000000000E+00  0.45593999997E+02  0.45594000000E+02  0.51100000000E-03 0.  1.
         11   -1    0    0    0    0 -0.00000000000E+00 -0.00000000000E+00 -0.45593999997E+02  0.45594000000E+02  0.51100000000E-03 0. -1.
    9900012    2    1    2    0    0 -0.42830448927E+02  0.11346015089E+02 -0.81199859165E+01  0.46142316689E+02  0.99999902216E+01 0.  0.
         12    1    1    2    0    0  0.42830448927E+02 -0.11346015089E+02  0.81199859165E+01  0.45045683311E+02  0.00000000000E+00 0. -1.
         11    1    3    3    0    0 -0.65867744802E+01  0.62999057792E+00 -0.22873290471E+01  0.70010256828E+01  0.51100000000E-03 0. -1.
        -11    1    3    3    0    0 -0.13636627680E+02  0.17358377207E+01  0.12565777360E+01  0.13803975332E+02  0.51100000000E-03 0.  1.
         12    1    3    3    0    0 -0.22607046766E+02  0.89801867906E+01 -0.70892346055E+01  0.25337315674E+02  0.00000000000E+00 0. -1.
</event>
<event>
 7    1  0.2353206E-008  0.4614232E+02  0.7816164E-02  0.1320468E+00
        -11   -1    0    0    0    0  0.00000000000E+00  0.00000000000E+00  0.45593999997E+02  0.45594000000E+02  0.51100000000E-03 0. -1.
         11   -1    0    0    0    0 -0.00000000000E+00 -0.00000000000E+00 -0.45593999997E+02  0.45594000000E+02  0.51100000000E-03 0.  1.
    9900012    2    1    2    0    0  0.39586631626E+02  0.20150970448E+02 -0.74799927823E+01  0.46142319790E+02  0.10000018504E+02 0.  0.
         12    1    1    2    0    0 -0.39586631626E+02 -0.20150970448E+02  0.74799927823E+01  0.45045680210E+02  0.00000000000E+00 0. -1.
         11    1    3    3    0    0  0.20509930777E+02  0.12289116902E+02  0.52991721490E+00  0.23915694998E+02  0.51100000000E-03 0. -1.
        -11    1    3    3    0    0  0.91583638214E-01 -0.94818857039E-02 -0.23598483811E+00  0.25331121942E+00  0.51100000000E-03 0.  1.
        -12    1    3    3    0    0  0.18985117211E+02  0.78713354315E+01 -0.77739251591E+01  0.21973313573E+02  0.00000000000E+00 0.  1.
</event>
<event>
 7    1  0.2353206E-008  0.4614232E+02  0.7816164E-02  0.1320468E+00
        -11   -1    0    0    0    0  0.00000000000E+00  0.00000000000E+00  0.45593999997E+02  0.45594000000E+02  0.51100000000E-03 0.  1.
         11   -1    0    0    0    0 -0.00000000000E+00 -0.00000000000E+00 -0.45593999997E+02  0.45594000000E+02  0.51100000000E-03 0. -1.
    9900012    2    1    2    0    0  0.22735491654E+02 -0.38570757955E+02 -0.49505072857E+01  0.46142317939E+02  0.10000001621E+02 0.  0.
         12    1    1    2    0    0 -0.22735491654E+02  0.38570757955E+02  0.49505072857E+01  0.45045682061E+02  0.00000000000E+00 0. -1.
         11    1    3    3    0    0  0.11973509455E+02 -0.23594107800E+02 -0.18878850139E+01  0.26525666093E+02  0.51100000000E-03 0. -1.
        -11    1    3    3    0    0  0.42498799220E+01 -0.98003233622E+01  0.19207639635E+00  0.10683852814E+02  0.51100000000E-03 0.  1.
         12    1    3    3    0    0  0.65121022766E+01 -0.51763267925E+01 -0.32546986682E+01  0.89327990319E+01  0.00000000000E+00 0. -1.
</event>
<event>
 7    1  0.2353206E-008  0.4614232E+02  0.7816164E-02  0.1320468E+00
        -11   -1    0    0    0    0  0.00000000000E+00  0.00000000000E+00  0.45593999997E+02  0.45594000000E+02  0.51100000000E-03 0.  1.
         11   -1    0    0    0    0 -0.00000000000E+00 -0.00000000000E+00 -0.45593999997E+02  0.45594000000E+02  0.51100000000E-03 0. -1.
    9900012    2    1    2    0    0 -0.34954581419E+02 -0.11007944833E+02  0.26193812857E+02  0.46142318258E+02  0.10000004531E+02 0.  0.
         12    1    1    2    0    0  0.34954581419E+02  0.11007944833E+02 -0.26193812857E+02  0.45045681742E+02  0.00000000000E+00 0. -1.
         11    1    3    3    0    0 -0.13087477076E+02 -0.63801370166E+01  0.52994486363E+01  0.15494268640E+02  0.51100000000E-03 0. -1.
        -11    1    3    3    0    0 -0.15780105926E+02 -0.40163823998E+01  0.15767051188E+02  0.22665898924E+02  0.51100000000E-03 0.  1.
         12    1    3    3    0    0 -0.60869984163E+01 -0.61142541631E+00  0.51273130332E+01  0.79821506940E+01  0.00000000000E+00 0. -1.
</event>
<event>
 7    1  0.2353206E-008  0.4614232E+02  0.7816164E-02  0.1320468E+00
        -11   -1    0    0    0    0  0.00000000000E+00  0.00000000000E+00  0.45593999997E+02  0.45594000000E+02  0.51100000000E-03 0.  1.
         11   -1    0    0    0    0 -0.00000000000E+00 -0.00000000000E+00 -0.45593999997E+02  0.45594000000E+02  0.51100000000E-03 0. -1.
    9900012    2    1    2    0    0  0.77237388621E+01 -0.29320050975E+02  0.33313541826E+02  0.46142316520E+02  0.99999886839E+01 0.  0.
         12    1    1    2    0    0 -0.77237388621E+01  0.29320050975E+02 -0.33313541826E+02  0.45045683480E+02  0.00000000000E+00 0. -1.
         11    1    3    3    0    0  0.48034228317E+00 -0.14697132443E+02  0.17091539584E+02  0.22546777073E+02  0.51100000000E-03 0. -1.
        -11    1    3    3    0    0  0.23622986173E+01 -0.88996511117E+00  0.18778267966E+01  0.31462241490E+01  0.51100000000E-03 0.  1.
        -12    1    3    3    0    0  0.48810979616E+01 -0.13732953420E+02  0.14344175445E+02  0.20449315298E+02  0.00000000000E+00 0.  1.
</event>
<event>
 7    1  0.2353206E-008  0.4614232E+02  0.7816164E-02  0.1320468E+00
        -11   -1    0    0    0    0  0.00000000000E+00  0.00000000000E+00  0.45593999997E+02  0.45594000000E+02  0.51100000000E-03 0.  1.
         11   -1    0    0    0    0 -0.00000000000E+00 -0.00000000000E+00 -0.45593999997E+02  0.45594000000E+02  0.51100000000E-03 0. -1.
    9900012    2    1    2    0    0  0.16773261747E+02  0.41227310853E+02  0.69339895525E+01  0.46142315624E+02  0.99999805111E+01 0.  0.
         12    1    1    2    0    0 -0.16773261747E+02 -0.41227310853E+02 -0.69339895525E+01  0.45045684376E+02  0.00000000000E+00 0. -1.
         11    1    3    3    0    0  0.12466132581E+02  0.21183831481E+02  0.31510446258E+01  0.24780804269E+02  0.51100000000E-03 0. -1.
        -11    1    3    3    0    0  0.29389635117E+01  0.43490728210E+01  0.53432412533E+00  0.52761201140E+01  0.51100000000E-03 0.  1.
        -12    1    3    3    0    0  0.13681656539E+01  0.15694406551E+02  0.32486208014E+01  0.16085391241E+02  0.00000000000E+00 0.  1.
</event>
<event>
 7    1  0.2353206E-008  0.4614232E+02  0.7816164E-02  0.1320468E+00
        -11   -1    0    0    0    0  0.00000000000E+00  0.00000000000E+00  0.45593999997E+02  0.45594000000E+02  0.51100000000E-03 0. -1.
         11   -1    0    0    0    0 -0.00000000000E+00 -0.00000000000E+00 -0.45593999997E+02  0.45594000000E+02  0.51100000000E-03 0.  1.
    9900012    2    1    2    0    0  0.18206383928E+02  0.22826816656E+02  0.34301275637E+02  0.46142317802E+02  0.10000000370E+02 0.  0.
         12    1    1    2    0    0 -0.18206383928E+02 -0.22826816656E+02 -0.34301275637E+02  0.45045682198E+02  0.00000000000E+00 0. -1.
         11    1    3    3    0    0  0.34997598480E+01  0.43746389001E+01  0.26865682610E+01  0.62131661640E+01  0.51100000000E-03 0. -1.
        -11    1    3    3    0    0  0.62176640628E+01  0.62126877668E+01  0.73517614346E+01  0.11458849512E+02  0.51100000000E-03 0.  1.
        -12    1    3    3    0    0  0.84889600168E+01  0.12239489989E+02  0.24262945942E+02  0.28470302126E+02  0.00000000000E+00 0.  1.
</event>
<event>
 7    1  0.2353206E-008  0.4614232E+02  0.7816164E-02  0.1320468E+00
        -11   -1    0    0    0    0  0.00000000000E+00  0.00000000000E+00  0.45593999997E+02  0.45594000000E+02  0.51100000000E-03 0. -1.
         11   -1    0    0    0    0 -0.00000000000E+00 -0.00000000000E+00 -0.45593999997E+02  0.45594000000E+02  0.51100000000E-03 0.  1.
    9900012    2    1    2    0    0 -0.18920237350E+02 -0.40118402791E+02  0.78518712614E+01  0.46142317563E+02  0.99999981949E+01 0.  0.
         12    1    1    2    0    0  0.18920237350E+02  0.40118402791E+02 -0.78518712614E+01  0.45045682437E+02  0.00000000000E+00 0. -1.
         11    1    3    3    0    0 -0.74813579008E+01 -0.21073895219E+02  0.42965084852E+01  0.22771468138E+02  0.51100000000E-03 0. -1.
        -11    1    3    3    0    0  0.52511602986E+00 -0.32082755410E+01  0.45500904092E+00  0.32826532378E+01  0.51100000000E-03 0.  1.
        -12    1    3    3    0    0 -0.11963995479E+02 -0.15836232031E+02  0.31003537353E+01  0.20088196187E+02  0.00000000000E+00 0.  1.
</event>
<event>
 7    1  0.2353206E-008  0.4614232E+02  0.7816164E-02  0.1320468E+00
        -11   -1    0    0    0    0  0.00000000000E+00  0.00000000000E+00  0.45593999997E+02  0.45594000000E+02  0.51100000000E-03 0.  1.
         11   -1    0    0    0    0 -0.00000000000E+00 -0.00000000000E+00 -0.45593999997E+02  0.45594000000E+02  0.51100000000E-03 0. -1.
    9900012    2    1    2    0    0  0.28951770562E+02  0.33709727311E+02 -0.73866613010E+01  0.46142317640E+02  0.99999988983E+01 0.  0.
         12    1    1    2    0    0 -0.28951770562E+02 -0.33709727311E+02  0.73866613010E+01  0.45045682360E+02  0.00000000000E+00 0. -1.
         11    1    3    3    0    0  0.90967510982E+01  0.12508616992E+02 -0.25416725008E+01  0.15674070274E+02  0.51100000000E-03 0.  1.
        -11    1    3    3    0    0  0.17829581600E+02  0.18618562225E+02 -0.15619901446E+01  0.25826046017E+02  0.51100000000E-03 0. -1.
         12    1    3    3    0    0  0.20254378638E+01  0.25825480934E+01 -0.32829986556E+01  0.46422013493E+01  0.00000000000E+00 0. -1.
</event>
<event>
 7    1  0.2353206E-008  0.4614232E+02  0.7816164E-02  0.1320468E+00
        -11   -1    0    0    0    0  0.00000000000E+00  0.00000000000E+00  0.45593999997E+02  0.45594000000E+02  0.51100000000E-03 0. -1.
         11   -1    0    0    0    0 -0.00000000000E+00 -0.00000000000E+00 -0.45593999997E+02  0.45594000000E+02  0.51100000000E-03 0.  1.
    9900012    2    1    2    0    0 -0.25047002966E+02 -0.32334295537E+02 -0.18874704221E+02  0.46142317800E+02  0.10000000352E+02 0.  0.
         12    1    1    2    0    0  0.25047002966E+02  0.32334295537E+02  0.18874704221E+02  0.45045682200E+02  0.00000000000E+00 0. -1.
         11    1    3    3    0    0 -0.10254800750E+02 -0.14111238999E+02 -0.11151129049E+02  0.20703518634E+02  0.51100000000E-03 0. -1.
        -11    1    3    3    0    0 -0.14646259661E+02 -0.15559205028E+02 -0.78586783985E+01  0.22767534113E+02  0.51100000000E-03 0.  1.
         12    1    3    3    0    0 -0.14594255470E+00 -0.26638515101E+01  0.13510322647E+00  0.26712650522E+01  0.00000000000E+00 0. -1.
</event>
<event>
 7    1  0.2353206E-008  0.4614232E+02  0.7816164E-02  0.1320468E+00
        -11   -1    0    0    0    0  0.00000000000E+00  0.00000000000E+00  0.45593999997E+02  0.45594000000E+02  0.51100000000E-03 0.  1.
         11   -1    0    0    0    0 -0.00000000000E+00 -0.00000000000E+00 -0.45593999997E+02  0.45594000000E+02  0.51100000000E-03 0. -1.
    9900012    2    1    2    0    0 -0.11262922031E+02  0.17792137147E+02  0.39820841310E+02  0.46142323631E+02  0.10000053528E+02 0.  0.
         12    1    1    2    0    0  0.11262922031E+02 -0.17792137147E+02 -0.39820841310E+02  0.45045676369E+02  0.00000000000E+00 0. -1.
         11    1    3    3    0    0  0.24134468805E+00  0.80716956375E+00  0.72649524599E+01  0.73136382511E+01  0.51100000000E-03 0. -1.
        -11    1    3    3    0    0 -0.44553290115E+01  0.39456493837E+01  0.62235135297E+01  0.86110525823E+01  0.51100000000E-03 0.  1.
         12    1    3    3    0    0 -0.70489377071E+01  0.13039318199E+02  0.26332375320E+02  0.30217632798E+02  0.00000000000E+00 0. -1.
</event>
<event>
 7    1  0.2353206E-008  0.4614232E+02  0.7816164E-02  0.1320468E+00
        -11   -1    0    0    0    0  0.00000000000E+00  0.00000000000E+00  0.45593999997E+02  0.45594000000E+02  0.51100000000E-03 0.  1.
         11   -1    0    0    0    0 -0.00000000000E+00 -0.00000000000E+00 -0.45593999997E+02  0.45594000000E+02  0.51100000000E-03 0. -1.
    9900012    2    1    2    0    0  0.13589476996E+02  0.34353218514E+02  0.25773939574E+02  0.46142317982E+02  0.10000002014E+02 0.  0.
         12    1    1    2    0    0 -0.13589476996E+02 -0.34353218514E+02 -0.25773939574E+02  0.45045682018E+02  0.00000000000E+00 0. -1.
         11    1    3    3    0    0  0.25784755700E+01  0.44355100360E+01  0.32750912899E+01  0.60867486200E+01  0.51100000000E-03 0. -1.
        -11    1    3    3    0    0  0.12575144555E+02  0.27713411020E+02  0.20490982007E+02  0.36688523476E+02  0.51100000000E-03 0.  1.
         12    1    3    3    0    0 -0.15641431297E+01  0.22042974582E+01  0.20078662767E+01  0.33670458861E+01  0.00000000000E+00 0. -1.
</event>
<event>
 7    1  0.2353206E-008  0.4614232E+02  0.7816164E-02  0.1320468E+00
        -11   -1    0    0    0    0  0.00000000000E+00  0.00000000000E+00  0.45593999997E+02  0.45594000000E+02  0.51100000000E-03 0.  1.
         11   -1    0    0    0    0 -0.00000000000E+00 -0.00000000000E+00 -0.45593999997E+02  0.45594000000E+02  0.51100000000E-03 0. -1.
    9900012    2    1    2    0    0  0.33607919702E+02 -0.23604252299E+02  0.18505687495E+02  0.46142318043E+02  0.10000002566E+02 0.  0.
         12    1    1    2    0    0 -0.33607919702E+02  0.23604252299E+02 -0.18505687495E+02  0.45045681957E+02  0.00000000000E+00 0. -1.
         11    1    3    3    0    0  0.15318711939E+02 -0.12961522198E+02  0.57050635095E+01  0.20861729148E+02  0.51100000000E-03 0. -1.
        -11    1    3    3    0    0  0.53841182556E+01 -0.53401887134E+01  0.26741247543E+01  0.80409755843E+01  0.51100000000E-03 0.  1.
        -12    1    3    3    0    0  0.12905089508E+02 -0.53025413879E+01  0.10126499232E+02  0.17239613310E+02  0.00000000000E+00 0.  1.
</event>
<event>
 7    1  0.2353206E-008  0.4614232E+02  0.7816164E-02  0.1320468E+00
        -11   -1    0    0    0    0  0.00000000000E+00  0.00000000000E+00  0.45593999997E+02  0.45594000000E+02  0.51100000000E-03 0.  1.
         11   -1    0    0    0    0 -0.00000000000E+00 -0.00000000000E+00 -0.45593999997E+02  0.45594000000E+02  0.51100000000E-03 0. -1.
    9900012    2    1    2    0    0  0.24046600906E+01 -0.13906146053E+02  0.42777916301E+02  0.46142318617E+02  0.10000007807E+02 0.  0.
         12    1    1    2    0    0 -0.24046600906E+01  0.13906146053E+02 -0.42777916301E+02  0.45045681383E+02  0.00000000000E+00 0. -1.
         11    1    3    3    0    0  0.31484165527E+01 -0.78860018984E+01  0.35850417292E+02  0.36842285122E+02  0.51100000000E-03 0.  1.
        -11    1    3    3    0    0 -0.86745071779E+00 -0.25640422644E+01  0.35685514448E+01  0.44789890776E+01  0.51100000000E-03 0. -1.
        -12    1    3    3    0    0  0.12369425561E+00 -0.34561018898E+01  0.33589475644E+01  0.48210444182E+01  0.00000000000E+00 0.  1.
</event>
<event>
 7    1  0.2353206E-008  0.4614232E+02  0.7816164E-02  0.1320468E+00
        -11   -1    0    0    0    0  0.00000000000E+00  0.00000000000E+00  0.45593999997E+02  0.45594000000E+02  0.51100000000E-03 0. -1.
         11   -1    0    0    0    0 -0.00000000000E+00 -0.00000000000E+00 -0.45593999997E+02  0.45594000000E+02  0.51100000000E-03 0.  1.
    9900012    2    1    2    0    0 -0.27889650525E+02 -0.10358213277E+01 -0.35358279889E+02  0.46142317755E+02  0.99999999398E+01 0.  0.
         12    1    1    2    0    0  0.27889650525E+02  0.10358213277E+01  0.35358279889E+02  0.45045682245E+02  0.00000000000E+00 0. -1.
         11    1    3    3    0    0 -0.42207255330E+01  0.18117051364E+01 -0.59774530817E+01  0.75383516190E+01  0.51100000000E-03 0. -1.
        -11    1    3    3    0    0 -0.23013106365E+02 -0.32555432131E+01 -0.24918967591E+02  0.34075747567E+02  0.51100000000E-03 0.  1.
        -12    1    3    3    0    0 -0.65581862731E+00  0.40801674908E+00 -0.44618592161E+01  0.45282185684E+01  0.00000000000E+00 0.  1.
</event>
<event>
 7    1  0.2353206E-008  0.4614232E+02  0.7816164E-02  0.1320468E+00
        -11   -1    0    0    0    0  0.00000000000E+00  0.00000000000E+00  0.45593999997E+02  0.45594000000E+02  0.51100000000E-03 0.  1.
         11   -1    0    0    0    0 -0.00000000000E+00 -0.00000000000E+00 -0.45593999997E+02  0.45594000000E+02  0.51100000000E-03 0. -1.
    9900012    2    1    2    0    0  0.92606554032E+01  0.74788676066E+01  0.43444450877E+02  0.46142317508E+02  0.99999976925E+01 0.  0.
         12    1    1    2    0    0 -0.92606554032E+01 -0.74788676066E+01 -0.43444450877E+02  0.45045682492E+02  0.00000000000E+00 0. -1.
         11    1    3    3    0    0  0.32555677531E+01  0.32010233286E+01  0.27050922239E+02  0.27433513555E+02  0.51100000000E-03 0.  1.
        -11    1    3    3    0    0  0.35230298009E+01  0.11803096232E+00  0.10523358177E+02  0.11098051084E+02  0.51100000000E-03 0. -1.
        -12    1    3    3    0    0  0.24820578492E+01  0.41598133156E+01  0.58701704612E+01  0.76107528689E+01  0.00000000000E+00 0.  1.
</event>
<event>
 7    1  0.2353206E-008  0.4614232E+02  0.7816164E-02  0.1320468E+00
        -11   -1    0    0    0    0  0.00000000000E+00  0.00000000000E+00  0.45593999997E+02  0.45594000000E+02  0.51100000000E-03 0. -1.
         11   -1    0    0    0    0 -0.00000000000E+00 -0.00000000000E+00 -0.45593999997E+02  0.45594000000E+02  0.51100000000E-03 0.  1.
    9900012    2    1    2    0    0 -0.28863847526E+02  0.34545839876E+02  0.16051875439E+01  0.46142319032E+02  0.10000011593E+02 0.  0.
         12    1    1    2    0    0  0.28863847526E+02 -0.34545839876E+02 -0.16051875439E+01  0.45045680968E+02  0.00000000000E+00 0. -1.
         11    1    3    3    0    0 -0.15098407117E+02  0.22651366222E+02  0.13723322885E+01  0.27256734679E+02  0.51100000000E-03 0. -1.
        -11    1    3    3    0    0 -0.12546755242E+02  0.11073003133E+02  0.16858760535E+01  0.16818877603E+02  0.51100000000E-03 0.  1.
         12    1    3    3    0    0 -0.12186851666E+01  0.82147052207E+00 -0.14530207981E+01  0.20667067507E+01  0.00000000000E+00 0. -1.
</event>
<event>
 7    1  0.2353206E-008  0.4614232E+02  0.7816164E-02  0.1320468E+00
        -11   -1    0    0    0    0  0.00000000000E+00  0.00000000000E+00  0.45593999997E+02  0.45594000000E+02  0.51100000000E-03 0.  1.
         11   -1    0    0    0    0 -0.00000000000E+00 -0.00000000000E+00 -0.45593999997E+02  0.45594000000E+02  0.51100000000E-03 0. -1.
    9900012    2    1    2    0    0 -0.40599081104E+02  0.14766748576E+02  0.12758183190E+02  0.46142317762E+02  0.10000000004E+02 0.  0.
         12    1    1    2    0    0  0.40599081104E+02 -0.14766748576E+02 -0.12758183190E+02  0.45045682238E+02  0.00000000000E+00 0. -1.
         11    1    3    3    0    0 -0.27658257067E+02  0.13724498762E+02  0.82542738703E+01  0.31960508251E+02  0.51100000000E-03 0.  1.
        -11    1    3    3    0    0 -0.22139782978E+00  0.30202375380E+00  0.84755204691E+00  0.92659596386E+00  0.51100000000E-03 0. -1.
        -12    1    3    3    0    0 -0.12719426207E+02  0.74022605966E+00  0.36563572725E+01  0.13255213547E+02  0.00000000000E+00 0.  1.
</event>
<event>
 7    1  0.2353206E-008  0.4614232E+02  0.7816164E-02  0.1320468E+00
        -11   -1    0    0    0    0  0.00000000000E+00  0.00000000000E+00  0.45593999997E+02  0.45594000000E+02  0.51100000000E-03 0.  1.
         11   -1    0    0    0    0 -0.00000000000E+00 -0.00000000000E+00 -0.45593999997E+02  0.45594000000E+02  0.51100000000E-03 0. -1.
    9900012    2    1    2    0    0  0.32410106794E+02  0.26832570178E+02  0.16084515508E+02  0.46142317811E+02  0.10000000457E+02 0.  0.
         12    1    1    2    0    0 -0.32410106794E+02 -0.26832570178E+02 -0.16084515508E+02  0.45045682189E+02  0.00000000000E+00 0. -1.
         11    1    3    3    0    0  0.39501973704E+01  0.57858454297E+00  0.94491159952E+00  0.41026427496E+01  0.51100000000E-03 0. -1.
        -11    1    3    3    0    0  0.21070305849E+01  0.13171082909E+00  0.72177330520E+00  0.22311168937E+01  0.51100000000E-03 0.  1.
        -12    1    3    3    0    0  0.26352878838E+02  0.26122274806E+02  0.14417830603E+02  0.39808558168E+02  0.00000000000E+00 0.  1.
</event>
<event>
 7    1  0.2353206E-008  0.4614232E+02  0.7816164E-02  0.1320468E+00
        -11   -1    0    0    0    0  0.00000000000E+00  0.00000000000E+00  0.45593999997E+02  0.45594000000E+02  0.51100000000E-03 0.  1.
         11   -1    0    0    0    0 -0.00000000000E+00 -0.00000000000E+00 -0.45593999997E+02  0.45594000000E+02  0.51100000000E-03 0. -1.
    9900012    2    1    2    0    0 -0.18770835187E+02  0.29918371605E+02  0.27958188111E+02  0.46142317681E+02  0.99999992724E+01 0.  0.
         12    1    1    2    0    0  0.18770835187E+02 -0.29918371605E+02 -0.27958188111E+02  0.45045682319E+02  0.00000000000E+00 0. -1.
         11    1    3    3    0    0  0.45722746098E+00  0.28929459226E+01  0.40854327193E+01  0.50268234331E+01  0.51100000000E-03 0. -1.
        -11    1    3    3    0    0 -0.17920747345E+02  0.26248316365E+02  0.23560514926E+02  0.39562926601E+02  0.51100000000E-03 0.  1.
         12    1    3    3    0    0 -0.13073153021E+01  0.77710931775E+00  0.31224046599E+00  0.15525676473E+01  0.00000000000E+00 0. -1.
</event>
<event>
 7    1  0.2353206E-008  0.4614232E+02  0.7816164E-02  0.1320468E+00
        -11   -1    0    0    0    0  0.00000000000E+00  0.00000000000E+00  0.45593999997E+02  0.45594000000E+02  0.51100000000E-03 0. -1.
         11   -1    0    0    0    0 -0.00000000000E+00 -0.00000000000E+00 -0.45593999997E+02  0.45594000000E+02  0.51100000000E-03 0.  1.
    9900012    2    1    2    0    0  0.15927295880E+02 -0.12092710434E+02 -0.40363363330E+02  0.46142317643E+02  0.99999989250E+01 0.  0.
         12    1    1    2    0    0 -0.15927295880E+02  0.12092710434E+02  0.40363363330E+02  0.45045682357E+02  0.00000000000E+00 0. -1.
         11    1    3    3    0    0  0.62150422763E+01 -0.76095007125E+01 -0.16962409874E+02  0.19602413132E+02  0.51100000000E-03 0. -1.
        -11    1    3    3    0    0  0.50715705874E+01 -0.54497684215E+01 -0.11179781861E+02  0.13431616686E+02  0.51100000000E-03 0.  1.
         12    1    3    3    0    0  0.46406830162E+01  0.96655869951E+00 -0.12221171595E+02  0.13108287826E+02  0.00000000000E+00 0. -1.
</event>
<event>
 7    1  0.2353206E-008  0.4614231E+02  0.7816164E-02  0.1320468E+00
        -11   -1    0    0    0    0  0.00000000000E+00  0.00000000000E+00  0.45593999997E+02  0.45594000000E+02  0.51100000000E-03 0.  1.
         11   -1    0    0    0    0 -0.00000000000E+00 -0.00000000000E+00 -0.45593999997E+02  0.45594000000E+02  0.51100000000E-03 0. -1.
    9900012    2    1    2    0    0  0.35656860675E+02  0.19893752838E+02  0.19024737570E+02  0.46142314804E+02  0.99999730322E+01 0.  0.
         12    1    1    2    0    0 -0.35656860675E+02 -0.19893752838E+02 -0.19024737570E+02  0.45045685196E+02  0.00000000000E+00 0. -1.
         11    1    3    3    0    0  0.39897293701E+01  0.42551159825E+01  0.23620718134E+01  0.62931181447E+01  0.51100000000E-03 0. -1.
        -11    1    3    3    0    0  0.12363362298E+02  0.81168874548E+01  0.10815492843E+02  0.18322430924E+02  0.51100000000E-03 0.  1.
         12    1    3    3    0    0  0.19303769007E+02  0.75217494011E+01  0.58471729135E+01  0.21526765735E+02  0.00000000000E+00 0. -1.
</event>
<event>
 7    1  0.2353206E-008  0.4614232E+02  0.7816164E-02  0.1320468E+00
        -11   -1    0    0    0    0  0.00000000000E+00  0.00000000000E+00  0.45593999997E+02  0.45594000000E+02  0.51100000000E-03 0.  1.
         11   -1    0    0    0    0 -0.00000000000E+00 -0.00000000000E+00 -0.45593999997E+02  0.45594000000E+02  0.51100000000E-03 0. -1.
    9900012    2    1    2    0    0  0.31357276404E+02 -0.31192928117E+02  0.85344086572E+01  0.46142315643E+02  0.99999806879E+01 0.  0.
         12    1    1    2    0    0 -0.31357276404E+02  0.31192928117E+02 -0.85344086572E+01  0.45045684357E+02  0.00000000000E+00 0. -1.
         11    1    3    3    0    0  0.93962796475E+01 -0.73608597087E+01  0.25899866852E+01  0.12213941139E+02  0.51100000000E-03 0.  1.
        -11    1    3    3    0    0  0.75527324960E+01 -0.13242707893E+02  0.49145409062E+01  0.16017671275E+02  0.51100000000E-03 0. -1.
         12    1    3    3    0    0  0.14408264261E+02 -0.10589360516E+02  0.10298810659E+01  0.17910703229E+02  0.00000000000E+00 0. -1.
</event>
<event>
 7    1  0.2353206E-008  0.4614232E+02  0.7816164E-02  0.1320468E+00
        -11   -1    0    0    0    0  0.00000000000E+00  0.00000000000E+00  0.45593999997E+02  0.45594000000E+02  0.51100000000E-03 0.  1.
         11   -1    0    0    0    0 -0.00000000000E+00 -0.00000000000E+00 -0.45593999997E+02  0.45594000000E+02  0.51100000000E-03 0. -1.
    9900012    2    1    2    0    0  0.20609973091E+01 -0.33740144850E+02  0.29773619275E+02  0.46142317752E+02  0.99999999194E+01 0.  0.
         12    1    1    2    0    0 -0.20609973091E+01  0.33740144850E+02 -0.29773619275E+02  0.45045682248E+02  0.00000000000E+00 0. -1.
         11    1    3    3    0    0  0.34187027379E+01 -0.17917258866E+02  0.14185403560E+02  0.23107171357E+02  0.51100000000E-03 0. -1.
        -11    1    3    3    0    0 -0.59827500000E+00 -0.10982315285E+02  0.66797474663E+01  0.12868108193E+02  0.51100000000E-03 0.  1.
         12    1    3    3    0    0 -0.75943042887E+00 -0.48405706989E+01  0.89084682488E+01  0.10167038202E+02  0.00000000000E+00 0. -1.
</event>
<event>
 7    1  0.2353206E-008  0.4614232E+02  0.7816164E-02  0.1320468E+00
        -11   -1    0    0    0    0  0.00000000000E+00  0.00000000000E+00  0.45593999997E+02  0.45594000000E+02  0.51100000000E-03 0.  1.
         11   -1    0    0    0    0 -0.00000000000E+00 -0.00000000000E+00 -0.45593999997E+02  0.45594000000E+02  0.51100000000E-03 0. -1.
    9900012    2    1    2    0    0  0.25862911289E+00  0.40895337251E+02  0.18884335782E+02  0.46142316124E+02  0.99999850760E+01 0.  0.
         12    1    1    2    0    0 -0.25862911289E+00 -0.40895337251E+02 -0.18884335782E+02  0.45045683876E+02  0.00000000000E+00 0. -1.
         11    1    3    3    0    0  0.67372898464E+00  0.35478006554E+01  0.40066234834E+01  0.53938698755E+01  0.51100000000E-03 0. -1.
        -11    1    3    3    0    0 -0.30166726150E+01  0.13603563362E+02  0.39620227436E+01  0.14486368569E+02  0.51100000000E-03 0.  1.
         12    1    3    3    0    0  0.26015727433E+01  0.23743973233E+02  0.10915689555E+02  0.26262077680E+02  0.00000000000E+00 0. -1.
</event>
<event>
 7    1  0.2353206E-008  0.4614232E+02  0.7816164E-02  0.1320468E+00
        -11   -1    0    0    0    0  0.00000000000E+00  0.00000000000E+00  0.45593999997E+02  0.45594000000E+02  0.51100000000E-03 0.  1.
         11   -1    0    0    0    0 -0.00000000000E+00 -0.00000000000E+00 -0.45593999997E+02  0.45594000000E+02  0.51100000000E-03 0. -1.
    9900012    2    1    2    0    0 -0.23764834790E+01 -0.21243342595E+02  0.39650802865E+02  0.46142318229E+02  0.10000004268E+02 0.  0.
         12    1    1    2    0    0  0.23764834790E+01  0.21243342595E+02 -0.39650802865E+02  0.45045681771E+02  0.00000000000E+00 0. -1.
         11    1    3    3    0    0 -0.41618127974E+01 -0.52904237603E+01  0.12147694423E+02  0.13887971392E+02  0.51100000000E-03 0. -1.
        -11    1    3    3    0    0 -0.16069817478E+01 -0.59331329022E+01  0.82728311563E+01  0.10306512115E+02  0.51100000000E-03 0.  1.
        -12    1    3    3    0    0  0.33923110662E+01 -0.10019785933E+02  0.19230277286E+02  0.21947834723E+02  0.00000000000E+00 0.  1.
</event>
<event>
 7    1  0.2353206E-008  0.4614232E+02  0.7816164E-02  0.1320468E+00
        -11   -1    0    0    0    0  0.00000000000E+00  0.00000000000E+00  0.45593999997E+02  0.45594000000E+02  0.51100000000E-03 0.  1.
         11   -1    0    0    0    0 -0.00000000000E+00 -0.00000000000E+00 -0.45593999997E+02  0.45594000000E+02  0.51100000000E-03 0. -1.
    9900012    2    1    2    0    0 -0.33224463009E+02 -0.10296793440E+02  0.28622099209E+02  0.46142318070E+02  0.10000002820E+02 0.  0.
         12    1    1    2    0    0  0.33224463009E+02  0.10296793440E+02 -0.28622099209E+02  0.45045681930E+02  0.00000000000E+00 0. -1.
         11    1    3    3    0    0 -0.14631961975E+02 -0.71883020740E+01  0.10186824900E+02  0.19223355580E+02  0.51100000000E-03 0. -1.
        -11    1    3    3    0    0 -0.59250841184E+01 -0.35685579533E+01  0.71385567379E+01  0.99398299903E+01  0.51100000000E-03 0.  1.
        -12    1    3    3    0    0 -0.12667416915E+02  0.46006658716E+00  0.11296717571E+02  0.16979132500E+02  0.00000000000E+00 0.  1.
</event>
<event>
 7    1  0.2353206E-008  0.4614232E+02  0.7816164E-02  0.1320468E+00
        -11   -1    0    0    0    0  0.00000000000E+00  0.00000000000E+00  0.45593999997E+02  0.45594000000E+02  0.51100000000E-03 0.  1.
         11   -1    0    0    0    0 -0.00000000000E+00 -0.00000000000E+00 -0.45593999997E+02  0.45594000000E+02  0.51100000000E-03 0. -1.
    9900012    2    1    2    0    0 -0.29525801073E+01  0.51130956576E+01  0.44657048342E+02  0.46142318264E+02  0.10000004582E+02 0.  0.
         12    1    1    2    0    0  0.29525801073E+01 -0.51130956576E+01 -0.44657048342E+02  0.45045681736E+02  0.00000000000E+00 0. -1.
         11    1    3    3    0    0  0.28972539881E+00 -0.11061928315E+00  0.24685146272E-01  0.31110617173E+00  0.51100000000E-03 0. -1.
        -11    1    3    3    0    0 -0.55296035740E+01  0.10695853668E+01  0.22223344479E+02  0.22925914783E+02  0.51100000000E-03 0.  1.
        -12    1    3    3    0    0  0.22872980680E+01  0.41541295739E+01  0.22409018717E+02  0.22905297309E+02  0.00000000000E+00 0.  1.
</event>
<event>
 7    1  0.2353206E-008  0.4614232E+02  0.7816164E-02  0.1320468E+00
        -11   -1    0    0    0    0  0.00000000000E+00  0.00000000000E+00  0.45593999997E+02  0.45594000000E+02  0.51100000000E-03 0.  1.
         11   -1    0    0    0    0 -0.00000000000E+00 -0.00000000000E+00 -0.45593999997E+02  0.45594000000E+02  0.51100000000E-03 0. -1.
    9900012    2    1    2    0    0  0.35193561823E+02 -0.28113309559E+02  0.41054587731E+00  0.46142317453E+02  0.99999971919E+01 0.  0.
         12    1    1    2    0    0 -0.35193561823E+02  0.28113309559E+02 -0.41054587731E+00  0.45045682547E+02  0.00000000000E+00 0. -1.
         11    1    3    3    0    0  0.60224683123E+01 -0.12037996628E+01  0.43505154428E+00  0.61569901988E+01  0.51100000000E-03 0. -1.
        -11    1    3    3    0    0  0.73127005837E+01 -0.42414820520E+01 -0.74897671392E+00  0.84868560848E+01  0.51100000000E-03 0.  1.
         12    1    3    3    0    0  0.21858392927E+02 -0.22668027844E+02  0.72447104695E+00  0.31498471170E+02  0.00000000000E+00 0. -1.
</event>
<event>
 7    1  0.2353206E-008  0.4614232E+02  0.7816164E-02  0.1320468E+00
        -11   -1    0    0    0    0  0.00000000000E+00  0.00000000000E+00  0.45593999997E+02  0.45594000000E+02  0.51100000000E-03 0.  1.
         11   -1    0    0    0    0 -0.00000000000E+00 -0.00000000000E+00 -0.45593999997E+02  0.45594000000E+02  0.51100000000E-03 0. -1.
    9900012    2    1    2    0    0  0.66686998978E+01  0.44498943379E+02  0.21180186082E+01  0.46142317377E+02  0.99999964950E+01 0.  0.
         12    1    1    2    0    0 -0.66686998978E+01 -0.44498943379E+02 -0.21180186082E+01  0.45045682623E+02  0.00000000000E+00 0. -1.
         11    1    3    3    0    0 -0.13280877794E+01  0.15726943233E+02  0.23595955912E+01  0.15958328616E+02  0.51100000000E-03 0. -1.
        -11    1    3    3    0    0  0.65676405287E+01  0.27480853792E+02 -0.13594862884E+00  0.28255082897E+02  0.51100000000E-03 0.  1.
        -12    1    3    3    0    0  0.14291471485E+01  0.12911463535E+01 -0.10562835419E+00  0.19289058628E+01  0.00000000000E+00 0.  1.
</event>
<event>
 7    1  0.2353206E-008  0.4614232E+02  0.7816164E-02  0.1320468E+00
        -11   -1    0    0    0    0  0.00000000000E+00  0.00000000000E+00  0.45593999997E+02  0.45594000000E+02  0.51100000000E-03 0.  1.
         11   -1    0    0    0    0 -0.00000000000E+00 -0.00000000000E+00 -0.45593999997E+02  0.45594000000E+02  0.51100000000E-03 0. -1.
    9900012    2    1    2    0    0  0.19792658514E+02  0.44556883661E+01  0.40218292062E+02  0.46142317563E+02  0.99999981903E+01 0.  0.
         12    1    1    2    0    0 -0.19792658514E+02 -0.44556883661E+01 -0.40218292062E+02  0.45045682437E+02  0.00000000000E+00 0. -1.
         11    1    3    3    0    0  0.10314944427E+01 -0.69976112218E+00  0.81570307616E+01  0.82517148230E+01  0.51100000000E-03 0. -1.
        -11    1    3    3    0    0  0.58680410575E+01 -0.64667392198E+00  0.11656062002E+02  0.13065828510E+02  0.51100000000E-03 0.  1.
        -12    1    3    3    0    0  0.12893123014E+02  0.58021234103E+01  0.20405199298E+02  0.24824774229E+02  0.00000000000E+00 0.  1.
</event>
<event>
 7    1  0.2353206E-008  0.4614232E+02  0.7816164E-02  0.1320468E+00
        -11   -1    0    0    0    0  0.00000000000E+00  0.00000000000E+00  0.45593999997E+02  0.45594000000E+02  0.51100000000E-03 0. -1.
         11   -1    0    0    0    0 -0.00000000000E+00 -0.00000000000E+00 -0.45593999997E+02  0.45594000000E+02  0.51100000000E-03 0.  1.
    9900012    2    1    2    0    0 -0.20244539497E+02  0.24941549769E+02 -0.31578335196E+02  0.46142317209E+02  0.99999949680E+01 0.  0.
         12    1    1    2    0    0  0.20244539497E+02 -0.24941549769E+02  0.31578335196E+02  0.45045682791E+02  0.00000000000E+00 0. -1.
         11    1    3    3    0    0 -0.10784626370E+02  0.15197009859E+02 -0.12104711525E+02  0.22221190696E+02  0.51100000000E-03 0.  1.
        -11    1    3    3    0    0  0.73486646478E-01  0.85178072432E+00 -0.11608851175E+01  0.14417299354E+01  0.51100000000E-03 0. -1.
        -12    1    3    3    0    0 -0.95333997740E+01  0.88927591864E+01 -0.18312738553E+02  0.22479396578E+02  0.00000000000E+00 0.  1.
</event>
<event>
 7    1  0.2353206E-008  0.4614232E+02  0.7816164E-02  0.1320468E+00
        -11   -1    0    0    0    0  0.00000000000E+00  0.00000000000E+00  0.45593999997E+02  0.45594000000E+02  0.51100000000E-03 0.  1.
         11   -1    0    0    0    0 -0.00000000000E+00 -0.00000000000E+00 -0.45593999997E+02  0.45594000000E+02  0.51100000000E-03 0. -1.
    9900012    2    1    2    0    0 -0.32052703767E+02 -0.30414288424E+01  0.31503768061E+02  0.46142317519E+02  0.99999977880E+01 0.  0.
         12    1    1    2    0    0  0.32052703767E+02  0.30414288424E+01 -0.31503768061E+02  0.45045682481E+02  0.00000000000E+00 0. -1.
         11    1    3    3    0    0 -0.53584527350E+01  0.21237131626E+01  0.72942682699E+01  0.92967479886E+01  0.51100000000E-03 0. -1.
        -11    1    3    3    0    0 -0.59411844739E+01  0.68642108650E+00  0.34005251274E+01  0.68798559770E+01  0.51100000000E-03 0.  1.
         12    1    3    3    0    0 -0.20753066559E+02 -0.58515630915E+01  0.20808974663E+02  0.29965713553E+02  0.00000000000E+00 0. -1.
</event>
<event>
 7    1  0.2353206E-008  0.4614232E+02  0.7816164E-02  0.1320468E+00
        -11   -1    0    0    0    0  0.00000000000E+00  0.00000000000E+00  0.45593999997E+02  0.45594000000E+02  0.51100000000E-03 0.  1.
         11   -1    0    0    0    0 -0.00000000000E+00 -0.00000000000E+00 -0.45593999997E+02  0.45594000000E+02  0.51100000000E-03 0. -1.
    9900012    2    1    2    0    0  0.29944809668E+02  0.32382966269E+02 -0.91523422054E+01  0.46142317651E+02  0.99999990002E+01 0.  0.
         12    1    1    2    0    0 -0.29944809668E+02 -0.32382966269E+02  0.91523422054E+01  0.45045682349E+02  0.00000000000E+00 0. -1.
         11    1    3    3    0    0  0.14601360434E+02  0.16205623657E+02  0.11908176065E+00  0.21813668774E+02  0.51100000000E-03 0. -1.
        -11    1    3    3    0    0  0.11361236147E+02  0.10008422525E+02 -0.65700614177E+01  0.16504905802E+02  0.51100000000E-03 0.  1.
        -12    1    3    3    0    0  0.39822130864E+01  0.61689200871E+01 -0.27013625483E+01  0.78237430763E+01  0.00000000000E+00 0.  1.
</event>
<event>
 7    1  0.2353206E-008  0.4614232E+02  0.7816164E-02  0.1320468E+00
        -11   -1    0    0    0    0  0.00000000000E+00  0.00000000000E+00  0.45593999997E+02  0.45594000000E+02  0.51100000000E-03 0.  1.
         11   -1    0    0    0    0 -0.00000000000E+00 -0.00000000000E+00 -0.45593999997E+02  0.45594000000E+02  0.51100000000E-03 0. -1.
    9900012    2    1    2    0    0  0.87619611283E+01  0.41682799824E+02  0.14658960067E+02  0.46142324578E+02  0.10000062160E+02 0.  0.
         12    1    1    2    0    0 -0.87619611283E+01 -0.41682799824E+02 -0.14658960067E+02  0.45045675422E+02  0.00000000000E+00 0. -1.
         11    1    3    3    0    0  0.44587412587E+01  0.81924472238E+01  0.15761074544E+01  0.94594228205E+01  0.51100000000E-03 0. -1.
        -11    1    3    3    0    0  0.48159187770E+01  0.24516841709E+02  0.74372510177E+01  0.26068780255E+02  0.51100000000E-03 0.  1.
         12    1    3    3    0    0 -0.51269890736E+00  0.89735108917E+01  0.56456015949E+01  0.10614121502E+02  0.00000000000E+00 0. -1.
</event>
<event>
 7    1  0.2353206E-008  0.4614232E+02  0.7816164E-02  0.1320468E+00
        -11   -1    0    0    0    0  0.00000000000E+00  0.00000000000E+00  0.45593999997E+02  0.45594000000E+02  0.51100000000E-03 0. -1.
         11   -1    0    0    0    0 -0.00000000000E+00 -0.00000000000E+00 -0.45593999997E+02  0.45594000000E+02  0.51100000000E-03 0.  1.
    9900012    2    1    2    0    0 -0.11929519544E+02  0.16742987595E+01 -0.43405031753E+02  0.46142317695E+02  0.99999993937E+01 0.  0.
         12    1    1    2    0    0  0.11929519544E+02 -0.16742987595E+01  0.43405031753E+02  0.45045682305E+02  0.00000000000E+00 0. -1.
         11    1    3    3    0    0  0.42120513008E+00  0.34447377408E+00  0.94931809979E-01  0.55234794496E+00  0.51100000000E-03 0. -1.
        -11    1    3    3    0    0 -0.42932023859E+01  0.22390734440E+01 -0.23780481629E+02  0.24268422763E+02  0.51100000000E-03 0.  1.
         12    1    3    3    0    0 -0.80575222877E+01 -0.90924845860E+00 -0.19719481934E+02  0.21321546987E+02  0.00000000000E+00 0. -1.
</event>
<event>
 7    1  0.2353206E-008  0.4614232E+02  0.7816164E-02  0.1320468E+00
        -11   -1    0    0    0    0  0.00000000000E+00  0.00000000000E+00  0.45593999997E+02  0.45594000000E+02  0.51100000000E-03 0.  1.
         11   -1    0    0    0    0 -0.00000000000E+00 -0.00000000000E+00 -0.45593999997E+02  0.45594000000E+02  0.51100000000E-03 0. -1.
    9900012    2    1    2    0    0  0.83998529893E+01 -0.37043553347E+02  0.24214273586E+02  0.46142318519E+02  0.10000006908E+02 0.  0.
         12    1    1    2    0    0 -0.83998529893E+01  0.37043553347E+02 -0.24214273586E+02  0.45045681481E+02  0.00000000000E+00 0. -1.
         11    1    3    3    0    0 -0.78689536754E+00 -0.17297865198E+02  0.11994562827E+02  0.21064303511E+02  0.51100000000E-03 0. -1.
        -11    1    3    3    0    0  0.32800857779E+01 -0.97073100966E+01  0.60051205263E+01  0.11876544313E+02  0.51100000000E-03 0.  1.
         12    1    3    3    0    0  0.59066625790E+01 -0.10038378052E+02  0.62145902328E+01  0.13201470695E+02  0.00000000000E+00 0. -1.
</event>
<event>
 7    1  0.2353206E-008  0.4614232E+02  0.7816164E-02  0.1320468E+00
        -11   -1    0    0    0    0  0.00000000000E+00  0.00000000000E+00  0.45593999997E+02  0.45594000000E+02  0.51100000000E-03 0.  1.
         11   -1    0    0    0    0 -0.00000000000E+00 -0.00000000000E+00 -0.45593999997E+02  0.45594000000E+02  0.51100000000E-03 0. -1.
    9900012    2    1    2    0    0  0.56672772533E+01  0.14501419762E+02  0.42269425129E+02  0.46142317551E+02  0.99999980844E+01 0.  0.
         12    1    1    2    0    0 -0.56672772533E+01 -0.14501419762E+02 -0.42269425129E+02  0.45045682449E+02  0.00000000000E+00 0. -1.
         11    1    3    3    0    0  0.62629411839E+01  0.74239767865E+01  0.30024680136E+02  0.31556636087E+02  0.51100000000E-03 0. -1.
        -11    1    3    3    0    0 -0.16223898426E+00  0.58183684456E+01  0.11840919092E+02  0.13194206989E+02  0.51100000000E-03 0.  1.
         12    1    3    3    0    0 -0.43342494641E+00  0.12590745301E+01  0.40382590019E+00  0.13914744748E+01  0.00000000000E+00 0. -1.
</event>
<event>
 7    1  0.2353206E-008  0.4614232E+02  0.7816164E-02  0.1320468E+00
        -11   -1    0    0    0    0  0.00000000000E+00  0.00000000000E+00  0.45593999997E+02  0.45594000000E+02  0.51100000000E-03 0. -1.
         11   -1    0    0    0    0 -0.00000000000E+00 -0.00000000000E+00 -0.45593999997E+02  0.45594000000E+02  0.51100000000E-03 0.  1.
    9900012    2    1    2    0    0 -0.14616850468E+02 -0.42499048501E+02  0.30482654575E+01  0.46142319149E+02  0.10000012652E+02 0.  0.
         12    1    1    2    0    0  0.14616850468E+02  0.42499048501E+02 -0.30482654575E+01  0.45045680851E+02  0.00000000000E+00 0. -1.
         11    1    3    3    0    0 -0.62128681756E+01 -0.88144595955E+01 -0.10915386451E+00  0.10784541889E+02  0.51100000000E-03 0. -1.
        -11    1    3    3    0    0 -0.21531372743E+01 -0.31904069833E+01  0.16652605252E+01  0.41937798844E+01  0.51100000000E-03 0.  1.
         12    1    3    3    0    0 -0.62508450178E+01 -0.30494181922E+02  0.14921587969E+01  0.31163997375E+02  0.00000000000E+00 0. -1.
</event>
<event>
 7    1  0.2353206E-008  0.4614232E+02  0.7816164E-02  0.1320468E+00
        -11   -1    0    0    0    0  0.00000000000E+00  0.00000000000E+00  0.45593999997E+02  0.45594000000E+02  0.51100000000E-03 0.  1.
         11   -1    0    0    0    0 -0.00000000000E+00 -0.00000000000E+00 -0.45593999997E+02  0.45594000000E+02  0.51100000000E-03 0. -1.
    9900012    2    1    2    0    0  0.28231013829E+02 -0.40725696927E+01  0.34864558880E+02  0.46142318391E+02  0.10000005741E+02 0.  0.
         12    1    1    2    0    0 -0.28231013829E+02  0.40725696927E+01 -0.34864558880E+02  0.45045681609E+02  0.00000000000E+00 0. -1.
         11    1    3    3    0    0  0.13409579888E+02 -0.30340016559E+00  0.12736505172E+02  0.18496687506E+02  0.51100000000E-03 0. -1.
        -11    1    3    3    0    0  0.15396380140E+02 -0.40444384086E+01  0.21023195289E+02  0.26370072883E+02  0.51100000000E-03 0.  1.
         12    1    3    3    0    0 -0.57494619847E+00  0.27526888145E+00  0.11048584199E+01  0.12755580019E+01  0.00000000000E+00 0. -1.
</event>
<event>
 7    1  0.2353206E-008  0.4614231E+02  0.7816164E-02  0.1320468E+00
        -11   -1    0    0    0    0  0.00000000000E+00  0.00000000000E+00  0.45593999997E+02  0.45594000000E+02  0.51100000000E-03 0.  1.
         11   -1    0    0    0    0 -0.00000000000E+00 -0.00000000000E+00 -0.45593999997E+02  0.45594000000E+02  0.51100000000E-03 0. -1.
    9900012    2    1    2    0    0 -0.67746678046E+01  0.10322700410E+02  0.43320431175E+02  0.46142311807E+02  0.99999457042E+01 0.  0.
         12    1    1    2    0    0  0.67746678046E+01 -0.10322700410E+02 -0.43320431175E+02  0.45045688193E+02  0.00000000000E+00 0. -1.
         11    1    3    3    0    0 -0.24036682321E+01  0.48449760050E+01  0.11086028599E+02  0.12334968335E+02  0.51100000000E-03 0. -1.
        -11    1    3    3    0    0  0.11149750280E+01  0.43785170047E+01  0.16514859836E+02  0.17121774912E+02  0.51100000000E-03 0.  1.
        -12    1    3    3    0    0 -0.54859746006E+01  0.10992074006E+01  0.15719542740E+02  0.16685568560E+02  0.00000000000E+00 0.  1.
</event>
<event>
 7    1  0.2353206E-008  0.4614231E+02  0.7816164E-02  0.1320468E+00
        -11   -1    0    0    0    0  0.00000000000E+00  0.00000000000E+00  0.45593999997E+02  0.45594000000E+02  0.51100000000E-03 0.  1.
         11   -1    0    0    0    0 -0.00000000000E+00 -0.00000000000E+00 -0.45593999997E+02  0.45594000000E+02  0.51100000000E-03 0. -1.
    9900012    2    1    2    0    0  0.44143605094E+02  0.45952731154E+01 -0.77032162117E+01  0.46142312685E+02  0.99999537094E+01 0.  0.
         12    1    1    2    0    0 -0.44143605094E+02 -0.45952731154E+01  0.77032162117E+01  0.45045687315E+02  0.00000000000E+00 0. -1.
         11    1    3    3    0    0  0.84099040886E+01  0.25495471392E+00 -0.52790571519E+01  0.99327706789E+01  0.51100000000E-03 0. -1.
        -11    1    3    3    0    0  0.16830680014E+02  0.10345080288E+01  0.36753460339E-01  0.16862483437E+02  0.51100000000E-03 0.  1.
         12    1    3    3    0    0  0.18903020992E+02  0.33058103727E+01 -0.24609125201E+01  0.19347058569E+02  0.00000000000E+00 0. -1.
</event>
<event>
 7    1  0.2353206E-008  0.4614232E+02  0.7816164E-02  0.1320468E+00
        -11   -1    0    0    0    0  0.00000000000E+00  0.00000000000E+00  0.45593999997E+02  0.45594000000E+02  0.51100000000E-03 0.  1.
         11   -1    0    0    0    0 -0.00000000000E+00 -0.00000000000E+00 -0.45593999997E+02  0.45594000000E+02  0.51100000000E-03 0. -1.
    9900012    2    1    2    0    0 -0.12052228648E+02  0.32915768930E+02  0.28291511619E+02  0.46142315530E+02  0.99999796588E+01 0.  0.
         12    1    1    2    0    0  0.12052228648E+02 -0.32915768930E+02 -0.28291511619E+02  0.45045684470E+02  0.00000000000E+00 0. -1.
         11    1    3    3    0    0 -0.18863180827E+01  0.28898837717E+01  0.46707143579E+01  0.58073399244E+01  0.51100000000E-03 0. -1.
        -11    1    3    3    0    0  0.66818942250E+00  0.91213195740E+01  0.63237741877E+01  0.11119130726E+02  0.51100000000E-03 0.  1.
        -12    1    3    3    0    0 -0.10834099988E+02  0.20904565584E+02  0.17297023074E+02  0.29215844880E+02  0.00000000000E+00 0.  1.
</event>
<event>
 7    1  0.2353206E-008  0.4614231E+02  0.7816164E-02  0.1320468E+00
        -11   -1    0    0    0    0  0.00000000000E+00  0.00000000000E+00  0.45593999997E+02  0.45594000000E+02  0.51100000000E-03 0. -1.
         11   -1    0    0    0    0 -0.00000000000E+00 -0.00000000000E+00 -0.45593999997E+02  0.45594000000E+02  0.51100000000E-03 0.  1.
    9900012    2    1    2    0    0  0.18313511558E+02  0.33554644481E+02 -0.23828871165E+02  0.46142312384E+02  0.99999509691E+01 0.  0.
         12    1    1    2    0    0 -0.18313511558E+02 -0.33554644481E+02  0.23828871165E+02  0.45045687616E+02  0.00000000000E+00 0. -1.
         11    1    3    3    0    0  0.44644875999E+00  0.37050580080E+01 -0.89247623250E+00  0.38370933563E+01  0.51100000000E-03 0. -1.
        -11    1    3    3    0    0  0.41821966498E+01  0.28636721787E+01 -0.17280943218E+01  0.53551561519E+01  0.51100000000E-03 0.  1.
        -12    1    3    3    0    0  0.13684866148E+02  0.26985914294E+02 -0.21208300610E+02  0.36950062876E+02  0.00000000000E+00 0.  1.
</event>
<event>
 7    1  0.2353206E-008  0.4614232E+02  0.7816164E-02  0.1320468E+00
        -11   -1    0    0    0    0  0.00000000000E+00  0.00000000000E+00  0.45593999997E+02  0.45594000000E+02  0.51100000000E-03 0.  1.
         11   -1    0    0    0    0 -0.00000000000E+00 -0.00000000000E+00 -0.45593999997E+02  0.45594000000E+02  0.51100000000E-03 0. -1.
    9900012    2    1    2    0    0  0.31664352616E+02  0.19213250527E+02  0.25638513803E+02  0.46142316384E+02  0.99999874428E+01 0.  0.
         12    1    1    2    0    0 -0.31664352616E+02 -0.19213250527E+02 -0.25638513803E+02  0.45045683616E+02  0.00000000000E+00 0. -1.
         11    1    3    3    0    0  0.44419264367E+00  0.20616576057E+01  0.19693277463E+01  0.28854793746E+01  0.51100000000E-03 0. -1.
        -11    1    3    3    0    0  0.14709659625E+02  0.77875568936E+01  0.72297077458E+01  0.18146316513E+02  0.51100000000E-03 0.  1.
        -12    1    3    3    0    0  0.16510500347E+02  0.93640360279E+01  0.16439478311E+02  0.25110520496E+02  0.00000000000E+00 0.  1.
</event>
<event>
 7    1  0.2353206E-008  0.4614232E+02  0.7816164E-02  0.1320468E+00
        -11   -1    0    0    0    0  0.00000000000E+00  0.00000000000E+00  0.45593999997E+02  0.45594000000E+02  0.51100000000E-03 0.  1.
         11   -1    0    0    0    0 -0.00000000000E+00 -0.00000000000E+00 -0.45593999997E+02  0.45594000000E+02  0.51100000000E-03 0. -1.
    9900012    2    1    2    0    0  0.10136025597E+02 -0.36445176240E+02  0.24456565455E+02  0.46142317855E+02  0.10000000857E+02 0.  0.
         12    1    1    2    0    0 -0.10136025597E+02  0.36445176240E+02 -0.24456565455E+02  0.45045682145E+02  0.00000000000E+00 0. -1.
         11    1    3    3    0    0  0.26672236167E+01 -0.46133000500E+01  0.67621703965E+01  0.86095045099E+01  0.51100000000E-03 0. -1.
        -11    1    3    3    0    0  0.27236063287E+01 -0.69873011672E+01  0.19845436371E+01  0.77575010631E+01  0.51100000000E-03 0.  1.
        -12    1    3    3    0    0  0.47451956511E+01 -0.24844575023E+02  0.15709851421E+02  0.29775312282E+02  0.00000000000E+00 0.  1.
</event>
<event>
 7    1  0.2353206E-008  0.4614232E+02  0.7816164E-02  0.1320468E+00
        -11   -1    0    0    0    0  0.00000000000E+00  0.00000000000E+00  0.45593999997E+02  0.45594000000E+02  0.51100000000E-03 0. -1.
         11   -1    0    0    0    0 -0.00000000000E+00 -0.00000000000E+00 -0.45593999997E+02  0.45594000000E+02  0.51100000000E-03 0.  1.
    9900012    2    1    2    0    0 -0.39740636358E+02 -0.17103039532E+02 -0.12541183766E+02  0.46142318413E+02  0.10000005948E+02 0.  0.
         12    1    1    2    0    0  0.39740636358E+02  0.17103039532E+02  0.12541183766E+02  0.45045681587E+02  0.00000000000E+00 0. -1.
         11    1    3    3    0    0 -0.36946133944E+02 -0.13487274342E+02 -0.10705790817E+02  0.40761959470E+02  0.51100000000E-03 0.  1.
        -11    1    3    3    0    0 -0.11469703161E+01 -0.56421138772E+00 -0.13827379857E+01  0.18830400936E+01  0.51100000000E-03 0. -1.
        -12    1    3    3    0    0 -0.16475320976E+01 -0.30515538019E+01 -0.45265496358E+00  0.34973188494E+01  0.00000000000E+00 0.  1.
</event>
<event>
 7    1  0.2353206E-008  0.4614232E+02  0.7816164E-02  0.1320468E+00
        -11   -1    0    0    0    0  0.00000000000E+00  0.00000000000E+00  0.45593999997E+02  0.45594000000E+02  0.51100000000E-03 0. -1.
         11   -1    0    0    0    0 -0.00000000000E+00 -0.00000000000E+00 -0.45593999997E+02  0.45594000000E+02  0.51100000000E-03 0.  1.
    9900012    2    1    2    0    0 -0.16438984374E+02 -0.36965509290E+02 -0.19809707604E+02  0.46142316526E+02  0.99999887353E+01 0.  0.
         12    1    1    2    0    0  0.16438984374E+02  0.36965509290E+02  0.19809707604E+02  0.45045683474E+02  0.00000000000E+00 0. -1.
         11    1    3    3    0    0 -0.52986340647E+01 -0.93115182213E+01 -0.69276685244E+01  0.12758232087E+02  0.51100000000E-03 0. -1.
        -11    1    3    3    0    0 -0.93257142007E+01 -0.27331420863E+02 -0.11516594247E+02  0.31090311273E+02  0.51100000000E-03 0.  1.
         12    1    3    3    0    0 -0.18146361082E+01 -0.32257020498E+00 -0.13654448332E+01  0.22937731655E+01  0.00000000000E+00 0. -1.
</event>
<event>
 7    1  0.2353206E-008  0.4614231E+02  0.7816164E-02  0.1320468E+00
        -11   -1    0    0    0    0  0.00000000000E+00  0.00000000000E+00  0.45593999997E+02  0.45594000000E+02  0.51100000000E-03 0.  1.
         11   -1    0    0    0    0 -0.00000000000E+00 -0.00000000000E+00 -0.45593999997E+02  0.45594000000E+02  0.51100000000E-03 0. -1.
    9900012    2    1    2    0    0  0.28652718989E+02  0.33203685466E+02  0.10278686948E+02  0.46142307206E+02  0.99999037477E+01 0.  0.
         12    1    1    2    0    0 -0.28652718989E+02 -0.33203685466E+02 -0.10278686948E+02  0.45045692794E+02  0.00000000000E+00 0. -1.
         11    1    3    3    0    0  0.18709782008E+02  0.20154349223E+02  0.24451024596E+01  0.27608554139E+02  0.51100000000E-03 0. -1.
        -11    1    3    3    0    0  0.94007653338E+01  0.11192846796E+02  0.57950988377E+01  0.15723783866E+02  0.51100000000E-03 0.  1.
         12    1    3    3    0    0  0.54217164712E+00  0.18564894465E+01  0.20384856503E+01  0.28099692003E+01  0.00000000000E+00 0. -1.
</event>
<event>
 7    1  0.2353206E-008  0.4614231E+02  0.7816164E-02  0.1320468E+00
        -11   -1    0    0    0    0  0.00000000000E+00  0.00000000000E+00  0.45593999997E+02  0.45594000000E+02  0.51100000000E-03 0.  1.
         11   -1    0    0    0    0 -0.00000000000E+00 -0.00000000000E+00 -0.45593999997E+02  0.45594000000E+02  0.51100000000E-03 0. -1.
    9900012    2    1    2    0    0  0.26766619992E+02 -0.91679832662E+01  0.35051535204E+02  0.46142312269E+02  0.99999499199E+01 0.  0.
         12    1    1    2    0    0 -0.26766619992E+02  0.91679832662E+01 -0.35051535204E+02  0.45045687731E+02  0.00000000000E+00 0. -1.
         11    1    3    3    0    0  0.79117392339E+01  0.59326388709E+00  0.13927219752E+02  0.16028569182E+02  0.51100000000E-03 0. -1.
        -11    1    3    3    0    0  0.13537573170E+02 -0.53654958749E+01  0.14236417107E+02  0.20364920958E+02  0.51100000000E-03 0.  1.
        -12    1    3    3    0    0  0.53173075877E+01 -0.43957512784E+01  0.68878983449E+01  0.97488221285E+01  0.00000000000E+00 0.  1.
</event>
<event>
 7    1  0.2353206E-008  0.4614232E+02  0.7816164E-02  0.1320468E+00
        -11   -1    0    0    0    0  0.00000000000E+00  0.00000000000E+00  0.45593999997E+02  0.45594000000E+02  0.51100000000E-03 0.  1.
         11   -1    0    0    0    0 -0.00000000000E+00 -0.00000000000E+00 -0.45593999997E+02  0.45594000000E+02  0.51100000000E-03 0. -1.
    9900012    2    1    2    0    0 -0.15747930407E+02 -0.34147023223E+01  0.42064902062E+02  0.46142317748E+02  0.99999998770E+01 0.  0.
         12    1    1    2    0    0  0.15747930407E+02  0.34147023223E+01 -0.42064902062E+02  0.45045682252E+02  0.00000000000E+00 0. -1.
         11    1    3    3    0    0 -0.46552663075E+01 -0.63099658055E+00  0.43582950151E+01  0.64081508080E+01  0.51100000000E-03 0. -1.
        -11    1    3    3    0    0 -0.68427491131E+01 -0.42259444530E+01  0.24114941768E+02  0.25420704921E+02  0.51100000000E-03 0.  1.
        -12    1    3    3    0    0 -0.42499149866E+01  0.14422387113E+01  0.13591665280E+02  0.14313462019E+02  0.00000000000E+00 0.  1.
</event>
<event>
 7    1  0.2353206E-008  0.4614232E+02  0.7816164E-02  0.1320468E+00
        -11   -1    0    0    0    0  0.00000000000E+00  0.00000000000E+00  0.45593999997E+02  0.45594000000E+02  0.51100000000E-03 0. -1.
         11   -1    0    0    0    0 -0.00000000000E+00 -0.00000000000E+00 -0.45593999997E+02  0.45594000000E+02  0.51100000000E-03 0.  1.
    9900012    2    1    2    0    0 -0.43244801556E+02  0.11241253438E+02 -0.57126913841E+01  0.46142317817E+02  0.10000000508E+02 0.  0.
         12    1    1    2    0    0  0.43244801556E+02 -0.11241253438E+02  0.57126913841E+01  0.45045682183E+02  0.00000000000E+00 0. -1.
         11    1    3    3    0    0 -0.10411745276E+02  0.67907411702E+01 -0.12096152547E+01  0.12489266378E+02  0.51100000000E-03 0. -1.
        -11    1    3    3    0    0 -0.23619663597E+02  0.25103909774E+01 -0.48003536572E+01  0.24232910819E+02  0.51100000000E-03 0.  1.
         12    1    3    3    0    0 -0.92133926837E+01  0.19401212901E+01  0.29727752781E+00  0.94201406196E+01  0.00000000000E+00 0. -1.
</event>
<event>
 7    1  0.2353206E-008  0.4614232E+02  0.7816164E-02  0.1320468E+00
        -11   -1    0    0    0    0  0.00000000000E+00  0.00000000000E+00  0.45593999997E+02  0.45594000000E+02  0.51100000000E-03 0.  1.
         11   -1    0    0    0    0 -0.00000000000E+00 -0.00000000000E+00 -0.45593999997E+02  0.45594000000E+02  0.51100000000E-03 0. -1.
    9900012    2    1    2    0    0 -0.22684611515E+02 -0.22596610889E+02  0.31684620851E+02  0.46142316281E+02  0.99999865000E+01 0.  0.
         12    1    1    2    0    0  0.22684611515E+02  0.22596610889E+02 -0.31684620851E+02  0.45045683719E+02  0.00000000000E+00 0. -1.
         11    1    3    3    0    0 -0.59912794898E+01 -0.35014430988E+01  0.11916545045E+02  0.13789836104E+02  0.51100000000E-03 0. -1.
        -11    1    3    3    0    0 -0.14421171680E+01 -0.16700187836E+01  0.58658450798E+00  0.22831439530E+01  0.51100000000E-03 0.  1.
        -12    1    3    3    0    0 -0.15251214857E+02 -0.17425149007E+02  0.19181491299E+02  0.30069336224E+02  0.00000000000E+00 0.  1.
</event>
<event>
 7    1  0.2353206E-008  0.4614232E+02  0.7816164E-02  0.1320468E+00
        -11   -1    0    0    0    0  0.00000000000E+00  0.00000000000E+00  0.45593999997E+02  0.45594000000E+02  0.51100000000E-03 0. -1.
         11   -1    0    0    0    0 -0.00000000000E+00 -0.00000000000E+00 -0.45593999997E+02  0.45594000000E+02  0.51100000000E-03 0.  1.
    9900012    2    1    2    0    0 -0.59162316422E+00 -0.32779946632E+02 -0.30890751192E+02  0.46142318427E+02  0.10000006075E+02 0.  0.
         12    1    1    2    0    0  0.59162316422E+00  0.32779946632E+02  0.30890751192E+02  0.45045681573E+02  0.00000000000E+00 0. -1.
         11    1    3    3    0    0 -0.14752662051E+01 -0.21401367577E+01 -0.12162780581E+01  0.28698307081E+01  0.51100000000E-03 0. -1.
        -11    1    3    3    0    0  0.11814481899E+00 -0.23215519119E+02 -0.17829977100E+02  0.29272553182E+02  0.51100000000E-03 0.  1.
        -12    1    3    3    0    0  0.76549822185E+00 -0.74242907552E+01 -0.11844496034E+02  0.13999934537E+02  0.00000000000E+00 0.  1.
</event>
<event>
 7    1  0.2353206E-008  0.4614232E+02  0.7816164E-02  0.1320468E+00
        -11   -1    0    0    0    0  0.00000000000E+00  0.00000000000E+00  0.45593999997E+02  0.45594000000E+02  0.51100000000E-03 0.  1.
         11   -1    0    0    0    0 -0.00000000000E+00 -0.00000000000E+00 -0.45593999997E+02  0.45594000000E+02  0.51100000000E-03 0. -1.
    9900012    2    1    2    0    0  0.11489154440E+01  0.10717515799E+02  0.43737035905E+02  0.46142318061E+02  0.10000002734E+02 0.  0.
         12    1    1    2    0    0 -0.11489154440E+01 -0.10717515799E+02 -0.43737035905E+02  0.45045681939E+02  0.00000000000E+00 0. -1.
         11    1    3    3    0    0  0.18757446244E+00 -0.15538613185E-01  0.70681236693E+00  0.73144351157E+00  0.51100000000E-03 0. -1.
        -11    1    3    3    0    0  0.18854640183E+01 -0.13840740672E+01  0.78388716358E+01  0.81803755642E+01  0.51100000000E-03 0.  1.
         12    1    3    3    0    0 -0.92412303673E+00  0.12117128479E+02  0.35191351902E+02  0.37230498985E+02  0.00000000000E+00 0. -1.
</event>
<event>
 7    1  0.2353206E-008  0.4614232E+02  0.7816164E-02  0.1320468E+00
        -11   -1    0    0    0    0  0.00000000000E+00  0.00000000000E+00  0.45593999997E+02  0.45594000000E+02  0.51100000000E-03 0.  1.
         11   -1    0    0    0    0 -0.00000000000E+00 -0.00000000000E+00 -0.45593999997E+02  0.45594000000E+02  0.51100000000E-03 0. -1.
    9900012    2    1    2    0    0  0.24114674876E+02  0.25601679927E+02  0.28145159708E+02  0.46142316805E+02  0.99999912841E+01 0.  0.
         12    1    1    2    0    0 -0.24114674876E+02 -0.25601679927E+02 -0.28145159708E+02  0.45045683195E+02  0.00000000000E+00 0. -1.
         11    1    3    3    0    0  0.10790758539E+02  0.14239361035E+02  0.18659270439E+02  0.25833471430E+02  0.51100000000E-03 0. -1.
        -11    1    3    3    0    0  0.65185820698E+01  0.54228418703E+01  0.68467112725E+01  0.10898466941E+02  0.51100000000E-03 0.  1.
        -12    1    3    3    0    0  0.68053342678E+01  0.59394770215E+01  0.26391779965E+01  0.94103784346E+01  0.00000000000E+00 0.  1.
</event>
<event>
 7    1  0.2353206E-008  0.4614232E+02  0.7816164E-02  0.1320468E+00
        -11   -1    0    0    0    0  0.00000000000E+00  0.00000000000E+00  0.45593999997E+02  0.45594000000E+02  0.51100000000E-03 0.  1.
         11   -1    0    0    0    0 -0.00000000000E+00 -0.00000000000E+00 -0.45593999997E+02  0.45594000000E+02  0.51100000000E-03 0. -1.
    9900012    2    1    2    0    0  0.24468608001E+02  0.33864989345E+01  0.37668719220E+02  0.46142316964E+02  0.99999927286E+01 0.  0.
         12    1    1    2    0    0 -0.24468608001E+02 -0.33864989345E+01 -0.37668719220E+02  0.45045683036E+02  0.00000000000E+00 0. -1.
         11    1    3    3    0    0  0.38791342606E+01  0.43758758231E+01  0.94638911761E+01  0.11124801494E+02  0.51100000000E-03 0. -1.
        -11    1    3    3    0    0  0.17994946525E+02 -0.53328598127E-01  0.24381136664E+02  0.30302817850E+02  0.51100000000E-03 0.  1.
         12    1    3    3    0    0  0.25945272151E+01 -0.93604829039E+00  0.38236913802E+01  0.47146976195E+01  0.00000000000E+00 0. -1.
</event>
<event>
 7    1  0.2353206E-008  0.4614232E+02  0.7816164E-02  0.1320468E+00
        -11   -1    0    0    0    0  0.00000000000E+00  0.00000000000E+00  0.45593999997E+02  0.45594000000E+02  0.51100000000E-03 0.  1.
         11   -1    0    0    0    0 -0.00000000000E+00 -0.00000000000E+00 -0.45593999997E+02  0.45594000000E+02  0.51100000000E-03 0. -1.
    9900012    2    1    2    0    0  0.28858847182E+02 -0.14400845448E+02  0.31446713767E+02  0.46142320773E+02  0.10000027462E+02 0.  0.
         12    1    1    2    0    0 -0.28858847182E+02  0.14400845448E+02 -0.31446713767E+02  0.45045679227E+02  0.00000000000E+00 0. -1.
         11    1    3    3    0    0  0.86839231316E+01 -0.56314397700E+01  0.84417919555E+01  0.13356177841E+02  0.51100000000E-03 0. -1.
        -11    1    3    3    0    0  0.10490142897E+02 -0.82823014062E+01  0.15862185626E+02  0.20742433504E+02  0.51100000000E-03 0.  1.
         12    1    3    3    0    0  0.96847811526E+01 -0.48710427213E+00  0.71427361862E+01  0.12043709427E+02  0.00000000000E+00 0. -1.
</event>
<event>
 7    1  0.2353206E-008  0.4614232E+02  0.7816164E-02  0.1320468E+00
        -11   -1    0    0    0    0  0.00000000000E+00  0.00000000000E+00  0.45593999997E+02  0.45594000000E+02  0.51100000000E-03 0.  1.
         11   -1    0    0    0    0 -0.00000000000E+00 -0.00000000000E+00 -0.45593999997E+02  0.45594000000E+02  0.51100000000E-03 0. -1.
    9900012    2    1    2    0    0 -0.34136017982E+02 -0.29359709794E+02 -0.13613045181E+01  0.46142318377E+02  0.10000005620E+02 0.  0.
         12    1    1    2    0    0  0.34136017982E+02  0.29359709794E+02  0.13613045181E+01  0.45045681623E+02  0.00000000000E+00 0. -1.
         11    1    3    3    0    0 -0.24360221030E+01 -0.47066158684E+01  0.15670140565E+01  0.55264789815E+01  0.51100000000E-03 0. -1.
        -11    1    3    3    0    0 -0.53953707657E+00  0.27212290241E+00  0.15811453473E-01  0.60448440359E+00  0.51100000000E-03 0.  1.
        -12    1    3    3    0    0 -0.31160458802E+02 -0.24925216828E+02 -0.29441300281E+01  0.40011354992E+02  0.00000000000E+00 0.  1.
</event>
<event>
 7    1  0.2353206E-008  0.4614232E+02  0.7816164E-02  0.1320468E+00
        -11   -1    0    0    0    0  0.00000000000E+00  0.00000000000E+00  0.45593999997E+02  0.45594000000E+02  0.51100000000E-03 0.  1.
         11   -1    0    0    0    0 -0.00000000000E+00 -0.00000000000E+00 -0.45593999997E+02  0.45594000000E+02  0.51100000000E-03 0. -1.
    9900012    2    1    2    0    0  0.39030030830E+02  0.22205967889E+02 -0.35588073891E+01  0.46142318448E+02  0.10000006265E+02 0.  0.
         12    1    1    2    0    0 -0.39030030830E+02 -0.22205967889E+02  0.35588073891E+01  0.45045681552E+02  0.00000000000E+00 0. -1.
         11    1    3    3    0    0  0.99991987281E+01  0.48212443199E+01 -0.28457181159E+01  0.11459776780E+02  0.51100000000E-03 0. -1.
        -11    1    3    3    0    0  0.99389864872E+00  0.12608849071E+01 -0.16821579046E+01  0.23253646488E+01  0.51100000000E-03 0.  1.
        -12    1    3    3    0    0  0.28036933453E+02  0.16123838662E+02  0.96906863148E+00  0.32357177019E+02  0.00000000000E+00 0.  1.
</event>
<event>
 7    1  0.2353206E-008  0.4614232E+02  0.7816164E-02  0.1320468E+00
        -11   -1    0    0    0    0  0.00000000000E+00  0.00000000000E+00  0.45593999997E+02  0.45594000000E+02  0.51100000000E-03 0. -1.
         11   -1    0    0    0    0 -0.00000000000E+00 -0.00000000000E+00 -0.45593999997E+02  0.45594000000E+02  0.51100000000E-03 0.  1.
    9900012    2    1    2    0    0 -0.39847787700E+02 -0.44842419569E+01 -0.20522155113E+02  0.46142318065E+02  0.10000002770E+02 0.  0.
         12    1    1    2    0    0  0.39847787700E+02  0.44842419569E+01  0.20522155113E+02  0.45045681935E+02  0.00000000000E+00 0. -1.
         11    1    3    3    0    0 -0.13368064741E+02 -0.94698370245E+00 -0.79645788536E+01  0.15589626347E+02  0.51100000000E-03 0.  1.
        -11    1    3    3    0    0 -0.19943738445E+02 -0.39585168082E-01 -0.11616348133E+02  0.23080160623E+02  0.51100000000E-03 0. -1.
         12    1    3    3    0    0 -0.65359845140E+01 -0.34976730864E+01 -0.94122812584E+00  0.74725310953E+01  0.00000000000E+00 0. -1.
</event>
<event>
 7    1  0.2353206E-008  0.4614232E+02  0.7816164E-02  0.1320468E+00
        -11   -1    0    0    0    0  0.00000000000E+00  0.00000000000E+00  0.45593999997E+02  0.45594000000E+02  0.51100000000E-03 0.  1.
         11   -1    0    0    0    0 -0.00000000000E+00 -0.00000000000E+00 -0.45593999997E+02  0.45594000000E+02  0.51100000000E-03 0. -1.
    9900012    2    1    2    0    0 -0.18885688712E+01  0.11668188585E+02  0.43467231875E+02  0.46142316920E+02  0.99999923296E+01 0.  0.
         12    1    1    2    0    0  0.18885688712E+01 -0.11668188585E+02 -0.43467231875E+02  0.45045683080E+02  0.00000000000E+00 0. -1.
         11    1    3    3    0    0  0.73807309253E+00  0.11169191655E+01  0.14728996937E+02  0.14789713025E+02  0.51100000000E-03 0.  1.
        -11    1    3    3    0    0  0.12498854722E+01  0.31688261118E+01  0.14104097605E+02  0.14509625844E+02  0.51100000000E-03 0. -1.
         12    1    3    3    0    0 -0.38765274359E+01  0.73824433076E+01  0.14634137334E+02  0.16842978052E+02  0.00000000000E+00 0. -1.
</event>
<event>
 7    1  0.2353206E-008  0.4614232E+02  0.7816164E-02  0.1320468E+00
        -11   -1    0    0    0    0  0.00000000000E+00  0.00000000000E+00  0.45593999997E+02  0.45594000000E+02  0.51100000000E-03 0.  1.
         11   -1    0    0    0    0 -0.00000000000E+00 -0.00000000000E+00 -0.45593999997E+02  0.45594000000E+02  0.51100000000E-03 0. -1.
    9900012    2    1    2    0    0 -0.20483218382E+02 -0.39832622933E+02 -0.47868175110E+01  0.46142315335E+02  0.99999778799E+01 0.  0.
         12    1    1    2    0    0  0.20483218382E+02  0.39832622933E+02  0.47868175110E+01  0.45045684665E+02  0.00000000000E+00 0. -1.
         11    1    3    3    0    0 -0.13049220543E+02 -0.20805897341E+02 -0.11118956589E+00  0.24559720771E+02  0.51100000000E-03 0. -1.
        -11    1    3    3    0    0 -0.23577741757E+01 -0.92230417922E+01  0.18160948935E+00  0.95213749655E+01  0.51100000000E-03 0.  1.
         12    1    3    3    0    0 -0.50762236635E+01 -0.98036837999E+01 -0.48572374344E+01  0.12061219599E+02  0.00000000000E+00 0. -1.
</event>
<event>
 7    1  0.2353206E-008  0.4614232E+02  0.7816164E-02  0.1320468E+00
        -11   -1    0    0    0    0  0.00000000000E+00  0.00000000000E+00  0.45593999997E+02  0.45594000000E+02  0.51100000000E-03 0.  1.
         11   -1    0    0    0    0 -0.00000000000E+00 -0.00000000000E+00 -0.45593999997E+02  0.45594000000E+02  0.51100000000E-03 0. -1.
    9900012    2    1    2    0    0  0.26494276282E+02 -0.19686135562E+02  0.30653268419E+02  0.46142317922E+02  0.10000001470E+02 0.  0.
         12    1    1    2    0    0 -0.26494276282E+02  0.19686135562E+02 -0.30653268419E+02  0.45045682078E+02  0.00000000000E+00 0. -1.
         11    1    3    3    0    0  0.12923962285E-01 -0.28772898963E+01  0.24609812644E+01  0.37862109319E+01  0.51100000000E-03 0. -1.
        -11    1    3    3    0    0  0.13286053121E+02 -0.89733461271E+01  0.16959468802E+02  0.23338031848E+02  0.51100000000E-03 0.  1.
         12    1    3    3    0    0  0.13195299199E+02 -0.78354995387E+01  0.11232818353E+02  0.19018075142E+02  0.00000000000E+00 0. -1.
</event>
<event>
 7    1  0.2353206E-008  0.4614232E+02  0.7816164E-02  0.1320468E+00
        -11   -1    0    0    0    0  0.00000000000E+00  0.00000000000E+00  0.45593999997E+02  0.45594000000E+02  0.51100000000E-03 0. -1.
         11   -1    0    0    0    0 -0.00000000000E+00 -0.00000000000E+00 -0.45593999997E+02  0.45594000000E+02  0.51100000000E-03 0.  1.
    9900012    2    1    2    0    0  0.10773197001E+02  0.11484094911E+02 -0.42203877188E+02  0.46142318084E+02  0.10000002947E+02 0.  0.
         12    1    1    2    0    0 -0.10773197001E+02 -0.11484094911E+02  0.42203877188E+02  0.45045681916E+02  0.00000000000E+00 0. -1.
         11    1    3    3    0    0  0.96912224826E+00 -0.36961813499E+00 -0.58079852834E+01  0.58998736267E+01  0.51100000000E-03 0. -1.
        -11    1    3    3    0    0  0.77773727068E+00  0.67112134117E+01 -0.15413705836E+02  0.16829366850E+02  0.51100000000E-03 0.  1.
        -12    1    3    3    0    0  0.90263374824E+01  0.51424996345E+01 -0.20982186069E+02  0.23413077608E+02  0.00000000000E+00 0.  1.
</event>
<event>
 7    1  0.2353206E-008  0.4614232E+02  0.7816164E-02  0.1320468E+00
        -11   -1    0    0    0    0  0.00000000000E+00  0.00000000000E+00  0.45593999997E+02  0.45594000000E+02  0.51100000000E-03 0.  1.
         11   -1    0    0    0    0 -0.00000000000E+00 -0.00000000000E+00 -0.45593999997E+02  0.45594000000E+02  0.51100000000E-03 0. -1.
    9900012    2    1    2    0    0 -0.46804416391E+01  0.32735651640E+02  0.30587319489E+02  0.46142317235E+02  0.99999952067E+01 0.  0.
         12    1    1    2    0    0  0.46804416391E+01 -0.32735651640E+02 -0.30587319489E+02  0.45045682765E+02  0.00000000000E+00 0. -1.
         11    1    3    3    0    0 -0.69524796092E+01  0.19188499130E+02  0.18218862822E+02  0.27358041494E+02  0.51100000000E-03 0.  1.
        -11    1    3    3    0    0  0.19072845182E+01  0.13120172008E+02  0.10742065402E+02  0.17063663648E+02  0.51100000000E-03 0. -1.
        -12    1    3    3    0    0  0.36475345195E+00  0.42698050182E+00  0.16263912645E+01  0.17206120931E+01  0.00000000000E+00 0.  1.
</event>
<event>
 7    1  0.2353206E-008  0.4614232E+02  0.7816164E-02  0.1320468E+00
        -11   -1    0    0    0    0  0.00000000000E+00  0.00000000000E+00  0.45593999997E+02  0.45594000000E+02  0.51100000000E-03 0.  1.
         11   -1    0    0    0    0 -0.00000000000E+00 -0.00000000000E+00 -0.45593999997E+02  0.45594000000E+02  0.51100000000E-03 0. -1.
    9900012    2    1    2    0    0  0.37830394588E+01  0.35186594293E+02  0.27869439935E+02  0.46142317768E+02  0.10000000058E+02 0.  0.
         12    1    1    2    0    0 -0.37830394588E+01 -0.35186594293E+02 -0.27869439935E+02  0.45045682232E+02  0.00000000000E+00 0. -1.
         11    1    3    3    0    0  0.18019291542E+01  0.14366150356E+02  0.79668080533E+01  0.16525836002E+02  0.51100000000E-03 0. -1.
        -11    1    3    3    0    0  0.20829767738E+01  0.13408236983E+02  0.84853138480E+01  0.16003754641E+02  0.51100000000E-03 0.  1.
         12    1    3    3    0    0 -0.10186646916E+00  0.74122069538E+01  0.11417318034E+02  0.13612727125E+02  0.00000000000E+00 0. -1.
</event>
<event>
 7    1  0.2353206E-008  0.4614232E+02  0.7816164E-02  0.1320468E+00
        -11   -1    0    0    0    0  0.00000000000E+00  0.00000000000E+00  0.45593999997E+02  0.45594000000E+02  0.51100000000E-03 0.  1.
         11   -1    0    0    0    0 -0.00000000000E+00 -0.00000000000E+00 -0.45593999997E+02  0.45594000000E+02  0.51100000000E-03 0. -1.
    9900012    2    1    2    0    0 -0.26997740922E+02 -0.82418733372E+01  0.35104230137E+02  0.46142318026E+02  0.10000002414E+02 0.  0.
         12    1    1    2    0    0  0.26997740922E+02  0.82418733372E+01 -0.35104230137E+02  0.45045681974E+02  0.00000000000E+00 0. -1.
         11    1    3    3    0    0 -0.28890296374E+01 -0.18230363440E+01  0.20162877659E+01  0.39667833787E+01  0.51100000000E-03 0. -1.
        -11    1    3    3    0    0 -0.15203657853E+02 -0.78733081951E+01  0.21159744025E+02  0.27219018379E+02  0.51100000000E-03 0.  1.
         12    1    3    3    0    0 -0.89050534312E+01  0.14544712019E+01  0.11928198346E+02  0.14956516268E+02  0.00000000000E+00 0. -1.
</event>
<event>
 7    1  0.2353206E-008  0.4614231E+02  0.7816164E-02  0.1320468E+00
        -11   -1    0    0    0    0  0.00000000000E+00  0.00000000000E+00  0.45593999997E+02  0.45594000000E+02  0.51100000000E-03 0. -1.
         11   -1    0    0    0    0 -0.00000000000E+00 -0.00000000000E+00 -0.45593999997E+02  0.45594000000E+02  0.51100000000E-03 0.  1.
    9900012    2    1    2    0    0  0.70011937148E+01 -0.15480678978E+02 -0.41718653814E+02  0.46142309739E+02  0.99999268445E+01 0.  0.
         12    1    1    2    0    0 -0.70011937148E+01  0.15480678978E+02  0.41718653814E+02  0.45045690261E+02  0.00000000000E+00 0. -1.
         11    1    3    3    0    0  0.10258684282E+00 -0.55827936751E+00  0.18913964293E+00  0.59830926631E+00  0.51100000000E-03 0. -1.
        -11    1    3    3    0    0  0.38434455409E+01 -0.64686629635E+01 -0.10793771401E+02  0.13157552032E+02  0.51100000000E-03 0.  1.
        -12    1    3    3    0    0  0.30551613311E+01 -0.84537366470E+01 -0.31114022056E+02  0.32386448440E+02  0.00000000000E+00 0.  1.
</event>
<event>
 7    1  0.2353206E-008  0.4614232E+02  0.7816164E-02  0.1320468E+00
        -11   -1    0    0    0    0  0.00000000000E+00  0.00000000000E+00  0.45593999997E+02  0.45594000000E+02  0.51100000000E-03 0.  1.
         11   -1    0    0    0    0 -0.00000000000E+00 -0.00000000000E+00 -0.45593999997E+02  0.45594000000E+02  0.51100000000E-03 0. -1.
    9900012    2    1    2    0    0  0.98609430672E+01 -0.68132599750E+01  0.43421822777E+02  0.46142318709E+02  0.10000008647E+02 0.  0.
         12    1    1    2    0    0 -0.98609430672E+01  0.68132599750E+01 -0.43421822777E+02  0.45045681291E+02  0.00000000000E+00 0. -1.
         11    1    3    3    0    0  0.28951758425E+01 -0.97217536092E+00  0.39745135717E+01  0.50123773286E+01  0.51100000000E-03 0. -1.
        -11    1    3    3    0    0  0.76310847044E+01 -0.26271754908E+01  0.31798581215E+02  0.32806786987E+02  0.51100000000E-03 0.  1.
        -12    1    3    3    0    0 -0.66531747976E+00 -0.32139091233E+01  0.76487279898E+01  0.83231543938E+01  0.00000000000E+00 0.  1.
</event>
<event>
 7    1  0.2353206E-008  0.4614232E+02  0.7816164E-02  0.1320468E+00
        -11   -1    0    0    0    0  0.00000000000E+00  0.00000000000E+00  0.45593999997E+02  0.45594000000E+02  0.51100000000E-03 0.  1.
         11   -1    0    0    0    0 -0.00000000000E+00 -0.00000000000E+00 -0.45593999997E+02  0.45594000000E+02  0.51100000000E-03 0. -1.
    9900012    2    1    2    0    0 -0.44520625385E+02 -0.29054275264E+01  0.62117539749E+01  0.46142317841E+02  0.10000000726E+02 0.  0.
         12    1    1    2    0    0  0.44520625385E+02  0.29054275264E+01 -0.62117539749E+01  0.45045682159E+02  0.00000000000E+00 0. -1.
         11    1    3    3    0    0 -0.35295433747E+02 -0.14578879292E+01  0.43831469954E+01  0.35596419180E+02  0.51100000000E-03 0. -1.
        -11    1    3    3    0    0 -0.59036207091E+01 -0.40385678752E+00  0.32893489635E+01  0.67702034420E+01  0.51100000000E-03 0.  1.
         12    1    3    3    0    0 -0.33215709290E+01 -0.10436828096E+01 -0.14607419840E+01  0.37756952191E+01  0.00000000000E+00 0. -1.
</event>
<event>
 7    1  0.2353206E-008  0.4614232E+02  0.7816164E-02  0.1320468E+00
        -11   -1    0    0    0    0  0.00000000000E+00  0.00000000000E+00  0.45593999997E+02  0.45594000000E+02  0.51100000000E-03 0. -1.
         11   -1    0    0    0    0 -0.00000000000E+00 -0.00000000000E+00 -0.45593999997E+02  0.45594000000E+02  0.51100000000E-03 0.  1.
    9900012    2    1    2    0    0  0.13211512516E+02 -0.29972160337E+02 -0.30923115688E+02  0.46142317165E+02  0.99999945674E+01 0.  0.
         12    1    1    2    0    0 -0.13211512516E+02  0.29972160337E+02  0.30923115688E+02  0.45045682835E+02  0.00000000000E+00 0. -1.
         11    1    3    3    0    0  0.54509000307E+00 -0.12357521739E+02 -0.95564924229E+01  0.15631123259E+02  0.51100000000E-03 0. -1.
        -11    1    3    3    0    0  0.26751293423E+01 -0.46166068479E+01 -0.61680703484E+01  0.81556402489E+01  0.51100000000E-03 0.  1.
         12    1    3    3    0    0  0.99912931702E+01 -0.12998031750E+02 -0.15198552917E+02  0.22355553658E+02  0.00000000000E+00 0. -1.
</event>
<event>
 7    1  0.2353206E-008  0.4614232E+02  0.7816164E-02  0.1320468E+00
        -11   -1    0    0    0    0  0.00000000000E+00  0.00000000000E+00  0.45593999997E+02  0.45594000000E+02  0.51100000000E-03 0. -1.
         11   -1    0    0    0    0 -0.00000000000E+00 -0.00000000000E+00 -0.45593999997E+02  0.45594000000E+02  0.51100000000E-03 0.  1.
    9900012    2    1    2    0    0  0.15736340364E+02 -0.21754715619E+02 -0.36169234831E+02  0.46142316434E+02  0.99999878942E+01 0.  0.
         12    1    1    2    0    0 -0.15736340364E+02  0.21754715619E+02  0.36169234831E+02  0.45045683566E+02  0.00000000000E+00 0. -1.
         11    1    3    3    0    0  0.14055657499E+01 -0.59891252274E+01 -0.11676921779E+02  0.13198323324E+02  0.51100000000E-03 0. -1.
        -11    1    3    3    0    0  0.57201110292E+01 -0.78057261295E+01 -0.15031138061E+02  0.17876916464E+02  0.51100000000E-03 0.  1.
         12    1    3    3    0    0  0.86106635846E+01 -0.79598642617E+01 -0.94611749918E+01  0.15067076646E+02  0.00000000000E+00 0. -1.
</event>
<event>
 7    1  0.2353206E-008  0.4614231E+02  0.7816164E-02  0.1320468E+00
        -11   -1    0    0    0    0  0.00000000000E+00  0.00000000000E+00  0.45593999997E+02  0.45594000000E+02  0.51100000000E-03 0.  1.
         11   -1    0    0    0    0 -0.00000000000E+00 -0.00000000000E+00 -0.45593999997E+02  0.45594000000E+02  0.51100000000E-03 0. -1.
    9900012    2    1    2    0    0  0.33096153265E+02 -0.90054292789E+01  0.29200356940E+02  0.46142312495E+02  0.99999519755E+01 0.  0.
         12    1    1    2    0    0 -0.33096153265E+02  0.90054292789E+01 -0.29200356940E+02  0.45045687505E+02  0.00000000000E+00 0. -1.
         11    1    3    3    0    0  0.44021068608E+01 -0.16126333772E+01  0.17775989684E+01  0.50138796931E+01  0.51100000000E-03 0. -1.
        -11    1    3    3    0    0  0.24779720152E+02 -0.89729819614E+01  0.24591067701E+02  0.36045381771E+02  0.51100000000E-03 0.  1.
        -12    1    3    3    0    0  0.39143262517E+01  0.15801860597E+01  0.28316902711E+01  0.50830510306E+01  0.00000000000E+00 0.  1.
</event>
<event>
 7    1  0.2353206E-008  0.4614232E+02  0.7816164E-02  0.1320468E+00
        -11   -1    0    0    0    0  0.00000000000E+00  0.00000000000E+00  0.45593999997E+02  0.45594000000E+02  0.51100000000E-03 0.  1.
         11   -1    0    0    0    0 -0.00000000000E+00 -0.00000000000E+00 -0.45593999997E+02  0.45594000000E+02  0.51100000000E-03 0. -1.
    9900012    2    1    2    0    0 -0.11953070156E+02  0.32569189003E+02  0.28731263967E+02  0.46142317769E+02  0.10000000074E+02 0.  0.
         12    1    1    2    0    0  0.11953070156E+02 -0.32569189003E+02 -0.28731263967E+02  0.45045682231E+02  0.00000000000E+00 0. -1.
         11    1    3    3    0    0 -0.52248323523E+01  0.12675627647E+02  0.78513415292E+01  0.15799176353E+02  0.51100000000E-03 0. -1.
        -11    1    3    3    0    0 -0.78838989499E+01  0.16544438155E+02  0.18700115789E+02  0.26183365469E+02  0.51100000000E-03 0.  1.
         12    1    3    3    0    0  0.11556611464E+01  0.33491232012E+01  0.21798066489E+01  0.41597759470E+01  0.00000000000E+00 0. -1.
</event>
<event>
 7    1  0.2353206E-008  0.4614232E+02  0.7816164E-02  0.1320468E+00
        -11   -1    0    0    0    0  0.00000000000E+00  0.00000000000E+00  0.45593999997E+02  0.45594000000E+02  0.51100000000E-03 0. -1.
         11   -1    0    0    0    0 -0.00000000000E+00 -0.00000000000E+00 -0.45593999997E+02  0.45594000000E+02  0.51100000000E-03 0.  1.
    9900012    2    1    2    0    0  0.38447910389E+02  0.10866740026E+02  0.20803499986E+02  0.46142318035E+02  0.10000002494E+02 0.  0.
         12    1    1    2    0    0 -0.38447910389E+02 -0.10866740026E+02 -0.20803499986E+02  0.45045681965E+02  0.00000000000E+00 0. -1.
         11    1    3    3    0    0  0.74708720472E+01  0.28930583072E+01  0.43588038306E+01  0.91204652627E+01  0.51100000000E-03 0. -1.
        -11    1    3    3    0    0  0.17153239608E+02  0.61345706273E+01  0.13736462024E+02  0.22815717719E+02  0.51100000000E-03 0.  1.
         12    1    3    3    0    0  0.13823798733E+02  0.18391110913E+01  0.27082341313E+01  0.14206135053E+02  0.00000000000E+00 0. -1.
</event>
<event>
 7    1  0.2353206E-008  0.4614232E+02  0.7816164E-02  0.1320468E+00
        -11   -1    0    0    0    0  0.00000000000E+00  0.00000000000E+00  0.45593999997E+02  0.45594000000E+02  0.51100000000E-03 0.  1.
         11   -1    0    0    0    0 -0.00000000000E+00 -0.00000000000E+00 -0.45593999997E+02  0.45594000000E+02  0.51100000000E-03 0. -1.
    9900012    2    1    2    0    0  0.32763291859E+02  0.42086210267E+01  0.30626258244E+02  0.46142317872E+02  0.10000001008E+02 0.  0.
         12    1    1    2    0    0 -0.32763291859E+02 -0.42086210267E+01 -0.30626258244E+02  0.45045682128E+02  0.00000000000E+00 0. -1.
         11    1    3    3    0    0  0.84995447038E+01 -0.24282824352E+00  0.10326670678E+02  0.13376896250E+02  0.51100000000E-03 0. -1.
        -11    1    3    3    0    0  0.67920526773E+01  0.46493041182E+01  0.70424326044E+01  0.10832537358E+02  0.51100000000E-03 0.  1.
         12    1    3    3    0    0  0.17471694478E+02 -0.19785484798E+00  0.13257154961E+02  0.21932884264E+02  0.00000000000E+00 0. -1.
</event>
<event>
 7    1  0.2353206E-008  0.4614232E+02  0.7816164E-02  0.1320468E+00
        -11   -1    0    0    0    0  0.00000000000E+00  0.00000000000E+00  0.45593999997E+02  0.45594000000E+02  0.51100000000E-03 0.  1.
         11   -1    0    0    0    0 -0.00000000000E+00 -0.00000000000E+00 -0.45593999997E+02  0.45594000000E+02  0.51100000000E-03 0. -1.
    9900012    2    1    2    0    0 -0.14790407805E+02 -0.18352188856E+02  0.38386904915E+02  0.46142317990E+02  0.10000002084E+02 0.  0.
         12    1    1    2    0    0  0.14790407805E+02  0.18352188856E+02 -0.38386904915E+02  0.45045682010E+02  0.00000000000E+00 0. -1.
         11    1    3    3    0    0  0.26507826798E+00 -0.50433802045E-01  0.10543544849E+00  0.28970148681E+00  0.51100000000E-03 0. -1.
        -11    1    3    3    0    0 -0.82464816262E+01 -0.14320656699E+02  0.20011366400E+02  0.25952657917E+02  0.51100000000E-03 0.  1.
         12    1    3    3    0    0 -0.68090044463E+01 -0.39810983549E+01  0.18270103067E+02  0.19899958586E+02  0.00000000000E+00 0. -1.
</event>
<event>
 7    1  0.2353206E-008  0.4614232E+02  0.7816164E-02  0.1320468E+00
        -11   -1    0    0    0    0  0.00000000000E+00  0.00000000000E+00  0.45593999997E+02  0.45594000000E+02  0.51100000000E-03 0.  1.
         11   -1    0    0    0    0 -0.00000000000E+00 -0.00000000000E+00 -0.45593999997E+02  0.45594000000E+02  0.51100000000E-03 0. -1.
    9900012    2    1    2    0    0  0.26100585729E+02 -0.28776272551E+01  0.36600440365E+02  0.46142317089E+02  0.99999938711E+01 0.  0.
         12    1    1    2    0    0 -0.26100585729E+02  0.28776272551E+01 -0.36600440365E+02  0.45045682911E+02  0.00000000000E+00 0. -1.
         11    1    3    3    0    0  0.16996233599E+02 -0.37200468643E+01  0.18040269462E+02  0.25063160769E+02  0.51100000000E-03 0. -1.
        -11    1    3    3    0    0  0.69720449561E+01 -0.11154134328E+01  0.12310537611E+02  0.14191648760E+02  0.51100000000E-03 0.  1.
         12    1    3    3    0    0  0.21323071745E+01  0.19578330419E+01  0.62496332917E+01  0.68875075598E+01  0.00000000000E+00 0. -1.
</event>
<event>
 7    1  0.2353206E-008  0.4614232E+02  0.7816164E-02  0.1320468E+00
        -11   -1    0    0    0    0  0.00000000000E+00  0.00000000000E+00  0.45593999997E+02  0.45594000000E+02  0.51100000000E-03 0.  1.
         11   -1    0    0    0    0 -0.00000000000E+00 -0.00000000000E+00 -0.45593999997E+02  0.45594000000E+02  0.51100000000E-03 0. -1.
    9900012    2    1    2    0    0 -0.17331462848E+02  0.14465755049E+02  0.38980453311E+02  0.46142318587E+02  0.10000007536E+02 0.  0.
         12    1    1    2    0    0  0.17331462848E+02 -0.14465755049E+02 -0.38980453311E+02  0.45045681413E+02  0.00000000000E+00 0. -1.
         11    1    3    3    0    0 -0.69016302770E+01  0.30447273188E+01  0.13131165355E+02  0.15143657708E+02  0.51100000000E-03 0. -1.
        -11    1    3    3    0    0 -0.67313408561E+01  0.20532602978E+01  0.10739939784E+02  0.12840293392E+02  0.51100000000E-03 0.  1.
        -12    1    3    3    0    0 -0.36984917148E+01  0.93677674324E+01  0.15109348171E+02  0.18158367487E+02  0.00000000000E+00 0.  1.
</event>
<event>
 7    1  0.2353206E-008  0.4614232E+02  0.7816164E-02  0.1320468E+00
        -11   -1    0    0    0    0  0.00000000000E+00  0.00000000000E+00  0.45593999997E+02  0.45594000000E+02  0.51100000000E-03 0. -1.
         11   -1    0    0    0    0 -0.00000000000E+00 -0.00000000000E+00 -0.45593999997E+02  0.45594000000E+02  0.51100000000E-03 0.  1.
    9900012    2    1    2    0    0  0.35739574650E+02 -0.95840408750E+01  0.25689345931E+02  0.46142317299E+02  0.99999957825E+01 0.  0.
         12    1    1    2    0    0 -0.35739574650E+02  0.95840408750E+01 -0.25689345931E+02  0.45045682701E+02  0.00000000000E+00 0. -1.
         11    1    3    3    0    0  0.15378450323E+02 -0.69677762334E+01  0.87535647282E+01  0.19017663781E+02  0.51100000000E-03 0. -1.
        -11    1    3    3    0    0  0.10353566321E+02 -0.30683375936E+00  0.11597214909E+02  0.15549465470E+02  0.51100000000E-03 0.  1.
        -12    1    3    3    0    0  0.10007558007E+02 -0.23094308822E+01  0.53385662942E+01  0.11575188047E+02  0.00000000000E+00 0.  1.
</event>
<event>
 7    1  0.2353206E-008  0.4614232E+02  0.7816164E-02  0.1320468E+00
        -11   -1    0    0    0    0  0.00000000000E+00  0.00000000000E+00  0.45593999997E+02  0.45594000000E+02  0.51100000000E-03 0.  1.
         11   -1    0    0    0    0 -0.00000000000E+00 -0.00000000000E+00 -0.45593999997E+02  0.45594000000E+02  0.51100000000E-03 0. -1.
    9900012    2    1    2    0    0  0.43751071915E+02 -0.10716503229E+02  0.33731436188E+00  0.46142317453E+02  0.99999971900E+01 0.  0.
         12    1    1    2    0    0 -0.43751071915E+02  0.10716503229E+02 -0.33731436188E+00  0.45045682547E+02  0.00000000000E+00 0. -1.
         11    1    3    3    0    0  0.20371008084E+02 -0.58256867591E+01 -0.89532554288E+00  0.21206560415E+02  0.51100000000E-03 0. -1.
        -11    1    3    3    0    0  0.17477362631E+02 -0.24543942274E+01 -0.20292283876E+01  0.17765135059E+02  0.51100000000E-03 0.  1.
         12    1    3    3    0    0  0.59027012001E+01 -0.24364222424E+01  0.32618682924E+01  0.71706219784E+01  0.00000000000E+00 0. -1.
</event>
<event>
 7    1  0.2353206E-008  0.4614232E+02  0.7816164E-02  0.1320468E+00
        -11   -1    0    0    0    0  0.00000000000E+00  0.00000000000E+00  0.45593999997E+02  0.45594000000E+02  0.51100000000E-03 0. -1.
         11   -1    0    0    0    0 -0.00000000000E+00 -0.00000000000E+00 -0.45593999997E+02  0.45594000000E+02  0.51100000000E-03 0.  1.
    9900012    2    1    2    0    0  0.43880684341E+02 -0.81001748498E+01  0.61632929501E+01  0.46142317956E+02  0.10000001775E+02 0.  0.
         12    1    1    2    0    0 -0.43880684341E+02  0.81001748498E+01 -0.61632929501E+01  0.45045682044E+02  0.00000000000E+00 0. -1.
         11    1    3    3    0    0  0.37590577388E+01  0.13272402239E+01  0.17855994412E+01  0.43681171369E+01  0.51100000000E-03 0. -1.
        -11    1    3    3    0    0  0.22725752925E+02 -0.55102200954E+01 -0.11885569029E+00  0.23384535455E+02  0.51100000000E-03 0.  1.
        -12    1    3    3    0    0  0.17395873677E+02 -0.39171949782E+01  0.44965491992E+01  0.18389665363E+02  0.00000000000E+00 0.  1.
</event>
<event>
 7    1  0.2353206E-008  0.4614232E+02  0.7816164E-02  0.1320468E+00
        -11   -1    0    0    0    0  0.00000000000E+00  0.00000000000E+00  0.45593999997E+02  0.45594000000E+02  0.51100000000E-03 0. -1.
         11   -1    0    0    0    0 -0.00000000000E+00 -0.00000000000E+00 -0.45593999997E+02  0.45594000000E+02  0.51100000000E-03 0.  1.
    9900012    2    1    2    0    0 -0.22327934569E+02  0.35515726700E+02 -0.16407618184E+02  0.46142318302E+02  0.10000004936E+02 0.  0.
         12    1    1    2    0    0  0.22327934569E+02 -0.35515726700E+02  0.16407618184E+02  0.45045681698E+02  0.00000000000E+00 0. -1.
         11    1    3    3    0    0 -0.15787978736E+02  0.21320130236E+02 -0.11292586425E+02  0.28832806562E+02  0.51100000000E-03 0. -1.
        -11    1    3    3    0    0 -0.18733669340E+01  0.11824873006E+01 -0.23150748294E+01  0.32042708394E+01  0.51100000000E-03 0.  1.
         12    1    3    3    0    0 -0.46665888988E+01  0.13013109164E+02 -0.27999569295E+01  0.14105240901E+02  0.00000000000E+00 0. -1.
</event>
<event>
 7    1  0.2353206E-008  0.4614232E+02  0.7816164E-02  0.1320468E+00
        -11   -1    0    0    0    0  0.00000000000E+00  0.00000000000E+00  0.45593999997E+02  0.45594000000E+02  0.51100000000E-03 0. -1.
         11   -1    0    0    0    0 -0.00000000000E+00 -0.00000000000E+00 -0.45593999997E+02  0.45594000000E+02  0.51100000000E-03 0.  1.
    9900012    2    1    2    0    0 -0.23957091738E+02 -0.21025256927E+02 -0.31829385964E+02  0.46142317807E+02  0.10000000418E+02 0.  0.
         12    1    1    2    0    0  0.23957091738E+02  0.21025256927E+02  0.31829385964E+02  0.45045682193E+02  0.00000000000E+00 0. -1.
         11    1    3    3    0    0 -0.11886774693E+02 -0.10750418480E+02 -0.19448873382E+02  0.25201698081E+02  0.51100000000E-03 0. -1.
        -11    1    3    3    0    0 -0.19805431971E+01  0.56601987140E+00 -0.18503085911E+01  0.27688575250E+01  0.51100000000E-03 0.  1.
        -12    1    3    3    0    0 -0.10089773848E+02 -0.10840858319E+02 -0.10530203991E+02  0.18171762201E+02  0.00000000000E+00 0.  1.
</event>
<event>
 7    1  0.2353206E-008  0.4614232E+02  0.7816164E-02  0.1320468E+00
        -11   -1    0    0    0    0  0.00000000000E+00  0.00000000000E+00  0.45593999997E+02  0.45594000000E+02  0.51100000000E-03 0.  1.
         11   -1    0    0    0    0 -0.00000000000E+00 -0.00000000000E+00 -0.45593999997E+02  0.45594000000E+02  0.51100000000E-03 0. -1.
    9900012    2    1    2    0    0 -0.35471926666E+02  0.21062539646E+02 -0.18089377360E+02  0.46142315067E+02  0.99999754368E+01 0.  0.
         12    1    1    2    0    0  0.35471926666E+02 -0.21062539646E+02  0.18089377360E+02  0.45045684933E+02  0.00000000000E+00 0. -1.
         11    1    3    3    0    0 -0.10170977772E+02  0.29287721448E+01 -0.68950608087E+01  0.12632037006E+02  0.51100000000E-03 0. -1.
        -11    1    3    3    0    0 -0.33780687195E+00 -0.13907450399E+00 -0.79151219762E+00  0.87174940235E+00  0.51100000000E-03 0.  1.
        -12    1    3    3    0    0 -0.24963142023E+02  0.18272842005E+02 -0.10402804354E+02  0.32638528659E+02  0.00000000000E+00 0.  1.
</event>
<event>
 7    1  0.2353206E-008  0.4614232E+02  0.7816164E-02  0.1320468E+00
        -11   -1    0    0    0    0  0.00000000000E+00  0.00000000000E+00  0.45593999997E+02  0.45594000000E+02  0.51100000000E-03 0.  1.
         11   -1    0    0    0    0 -0.00000000000E+00 -0.00000000000E+00 -0.45593999997E+02  0.45594000000E+02  0.51100000000E-03 0. -1.
    9900012    2    1    2    0    0  0.34093184714E+02 -0.29035354318E+02 -0.48699551362E+01  0.46142317550E+02  0.99999980765E+01 0.  0.
         12    1    1    2    0    0 -0.34093184714E+02  0.29035354318E+02  0.48699551362E+01  0.45045682450E+02  0.00000000000E+00 0. -1.
         11    1    3    3    0    0  0.15702152481E+02 -0.12972767840E+02 -0.28009637172E+01  0.20559564586E+02  0.51100000000E-03 0. -1.
        -11    1    3    3    0    0  0.99559186260E+01 -0.13214606737E+02 -0.21134576633E+01  0.16679713740E+02  0.51100000000E-03 0.  1.
         12    1    3    3    0    0  0.84351136072E+01 -0.28479797413E+01  0.44466244378E-01  0.89030392237E+01  0.00000000000E+00 0. -1.
</event>
<event>
 7    1  0.2353206E-008  0.4614232E+02  0.7816164E-02  0.1320468E+00
        -11   -1    0    0    0    0  0.00000000000E+00  0.00000000000E+00  0.45593999997E+02  0.45594000000E+02  0.51100000000E-03 0.  1.
         11   -1    0    0    0    0 -0.00000000000E+00 -0.00000000000E+00 -0.45593999997E+02  0.45594000000E+02  0.51100000000E-03 0. -1.
    9900012    2    1    2    0    0  0.45522038259E+01 -0.94599235939E+01  0.43805258858E+02  0.46142318546E+02  0.10000007156E+02 0.  0.
         12    1    1    2    0    0 -0.45522038259E+01  0.94599235939E+01 -0.43805258858E+02  0.45045681454E+02  0.00000000000E+00 0. -1.
         11    1    3    3    0    0 -0.56786866181E+00 -0.20410481844E+01  0.33688452076E+01  0.39796319933E+01  0.51100000000E-03 0. -1.
        -11    1    3    3    0    0  0.12878016742E+01 -0.14575587639E+01  0.26079465699E+02  0.26151891750E+02  0.51100000000E-03 0.  1.
         12    1    3    3    0    0  0.38322708135E+01 -0.59613166457E+01  0.14356947951E+02  0.16010794803E+02  0.00000000000E+00 0. -1.
</event>
<event>
 7    1  0.2353206E-008  0.4614232E+02  0.7816164E-02  0.1320468E+00
        -11   -1    0    0    0    0  0.00000000000E+00  0.00000000000E+00  0.45593999997E+02  0.45594000000E+02  0.51100000000E-03 0.  1.
         11   -1    0    0    0    0 -0.00000000000E+00 -0.00000000000E+00 -0.45593999997E+02  0.45594000000E+02  0.51100000000E-03 0. -1.
    9900012    2    1    2    0    0  0.11765547101E+02  0.42467927579E+02 -0.93359772230E+01  0.46142318274E+02  0.10000004679E+02 0.  0.
         12    1    1    2    0    0 -0.11765547101E+02 -0.42467927579E+02  0.93359772230E+01  0.45045681726E+02  0.00000000000E+00 0. -1.
         11    1    3    3    0    0  0.73320547563E+01  0.29136003285E+02 -0.70517537290E+01  0.30860864299E+02  0.51100000000E-03 0. -1.
        -11    1    3    3    0    0  0.23805713234E+01  0.12756241188E+02 -0.18950200757E+01  0.13114111118E+02  0.51100000000E-03 0.  1.
         12    1    3    3    0    0  0.20529210217E+01  0.57568310612E+00 -0.38920341828E+00  0.21673428572E+01  0.00000000000E+00 0. -1.
</event>
<event>
 7    1  0.2353206E-008  0.4614232E+02  0.7816164E-02  0.1320468E+00
        -11   -1    0    0    0    0  0.00000000000E+00  0.00000000000E+00  0.45593999997E+02  0.45594000000E+02  0.51100000000E-03 0.  1.
         11   -1    0    0    0    0 -0.00000000000E+00 -0.00000000000E+00 -0.45593999997E+02  0.45594000000E+02  0.51100000000E-03 0. -1.
    9900012    2    1    2    0    0 -0.98639925478E+01 -0.64813123282E+01  0.43471919296E+02  0.46142317346E+02  0.99999962132E+01 0.  0.
         12    1    1    2    0    0  0.98639925478E+01  0.64813123282E+01 -0.43471919296E+02  0.45045682654E+02  0.00000000000E+00 0. -1.
         11    1    3    3    0    0 -0.29291443144E+00  0.49424399488E+00  0.13804014558E+01  0.14951870889E+01  0.51100000000E-03 0. -1.
        -11    1    3    3    0    0 -0.25053698332E+01 -0.25301634379E+01  0.29459935295E+01  0.46214157095E+01  0.51100000000E-03 0.  1.
        -12    1    3    3    0    0 -0.70657082832E+01 -0.44453928852E+01  0.39145524311E+02  0.40025714547E+02  0.00000000000E+00 0.  1.
</event>
<event>
 7    1  0.2353206E-008  0.4614232E+02  0.7816164E-02  0.1320468E+00
        -11   -1    0    0    0    0  0.00000000000E+00  0.00000000000E+00  0.45593999997E+02  0.45594000000E+02  0.51100000000E-03 0.  1.
         11   -1    0    0    0    0 -0.00000000000E+00 -0.00000000000E+00 -0.45593999997E+02  0.45594000000E+02  0.51100000000E-03 0. -1.
    9900012    2    1    2    0    0  0.67690460621E+01 -0.19935501398E+02  0.39822972986E+02  0.46142318986E+02  0.10000011168E+02 0.  0.
         12    1    1    2    0    0 -0.67690460621E+01  0.19935501398E+02 -0.39822972986E+02  0.45045681014E+02  0.00000000000E+00 0. -1.
         11    1    3    3    0    0 -0.11691855752E+01 -0.14826819923E+01  0.39966180316E+01  0.44202145594E+01  0.51100000000E-03 0. -1.
        -11    1    3    3    0    0 -0.36851780504E+00 -0.59000688531E+01  0.66926077327E+01  0.89295921726E+01  0.51100000000E-03 0.  1.
         12    1    3    3    0    0  0.83067494423E+01 -0.12552750553E+02  0.29133747222E+02  0.32792512254E+02  0.00000000000E+00 0. -1.
</event>
<event>
 7    1  0.2353206E-008  0.4614232E+02  0.7816164E-02  0.1320468E+00
        -11   -1    0    0    0    0  0.00000000000E+00  0.00000000000E+00  0.45593999997E+02  0.45594000000E+02  0.51100000000E-03 0.  1.
         11   -1    0    0    0    0 -0.00000000000E+00 -0.00000000000E+00 -0.45593999997E+02  0.45594000000E+02  0.51100000000E-03 0. -1.
    9900012    2    1    2    0    0 -0.11266715357E+02 -0.19547834443E+02  0.38987903777E+02  0.46142319327E+02  0.10000014282E+02 0.  0.
         12    1    1    2    0    0  0.11266715357E+02  0.19547834443E+02 -0.38987903777E+02  0.45045680673E+02  0.00000000000E+00 0. -1.
         11    1    3    3    0    0 -0.17418838936E+00 -0.40759998885E+00  0.38116894799E-01  0.44489606054E+00  0.51100000000E-03 0.  1.
        -11    1    3    3    0    0 -0.93185268032E+01 -0.18946075841E+02  0.38414141355E+02  0.43834176026E+02  0.51100000000E-03 0. -1.
         12    1    3    3    0    0 -0.17740001644E+01 -0.19415861231E+00  0.53564552767E+00  0.18632472410E+01  0.00000000000E+00 0. -1.
</event>
<event>
 7    1  0.2353206E-008  0.4614232E+02  0.7816164E-02  0.1320468E+00
        -11   -1    0    0    0    0  0.00000000000E+00  0.00000000000E+00  0.45593999997E+02  0.45594000000E+02  0.51100000000E-03 0. -1.
         11   -1    0    0    0    0 -0.00000000000E+00 -0.00000000000E+00 -0.45593999997E+02  0.45594000000E+02  0.51100000000E-03 0.  1.
    9900012    2    1    2    0    0  0.33626876333E+02  0.13469135471E+02 -0.26775530325E+02  0.46142318227E+02  0.10000004245E+02 0.  0.
         12    1    1    2    0    0 -0.33626876333E+02 -0.13469135471E+02  0.26775530325E+02  0.45045681773E+02  0.00000000000E+00 0. -1.
         11    1    3    3    0    0  0.27056598609E+01  0.14909812718E+01 -0.52340125512E+01  0.60777058240E+01  0.51100000000E-03 0. -1.
        -11    1    3    3    0    0  0.19700300434E+02  0.10571440422E+02 -0.12724509798E+02  0.25724897272E+02  0.51100000000E-03 0.  1.
         12    1    3    3    0    0  0.11220916038E+02  0.14067137769E+01 -0.88170079761E+01  0.14339715131E+02  0.00000000000E+00 0. -1.
</event>
<event>
 7    1  0.2353206E-008  0.4614232E+02  0.7816164E-02  0.1320468E+00
        -11   -1    0    0    0    0  0.00000000000E+00  0.00000000000E+00  0.45593999997E+02  0.45594000000E+02  0.51100000000E-03 0.  1.
         11   -1    0    0    0    0 -0.00000000000E+00 -0.00000000000E+00 -0.45593999997E+02  0.45594000000E+02  0.51100000000E-03 0. -1.
    9900012    2    1    2    0    0 -0.50075348407E+01 -0.44019677598E+02  0.81428552293E+01  0.46142317496E+02  0.99999975811E+01 0.  0.
         12    1    1    2    0    0  0.50075348407E+01  0.44019677598E+02 -0.81428552293E+01  0.45045682504E+02  0.00000000000E+00 0. -1.
         11    1    3    3    0    0  0.45340725298E-01 -0.55231602896E+00  0.15185262688E+01  0.16164872618E+01  0.51100000000E-03 0. -1.
        -11    1    3    3    0    0 -0.57415117105E+00 -0.25685965758E+02  0.40246169199E+01  0.26005692225E+02  0.51100000000E-03 0.  1.
         12    1    3    3    0    0 -0.44787243949E+01 -0.17781395811E+02  0.25997120406E+01  0.18520138009E+02  0.00000000000E+00 0. -1.
</event>
<event>
 7    1  0.2353206E-008  0.4614232E+02  0.7816164E-02  0.1320468E+00
        -11   -1    0    0    0    0  0.00000000000E+00  0.00000000000E+00  0.45593999997E+02  0.45594000000E+02  0.51100000000E-03 0.  1.
         11   -1    0    0    0    0 -0.00000000000E+00 -0.00000000000E+00 -0.45593999997E+02  0.45594000000E+02  0.51100000000E-03 0. -1.
    9900012    2    1    2    0    0 -0.12168099095E+02  0.30575164412E+01  0.43263176518E+02  0.46142317800E+02  0.10000000356E+02 0.  0.
         12    1    1    2    0    0  0.12168099095E+02 -0.30575164412E+01 -0.43263176518E+02  0.45045682200E+02  0.00000000000E+00 0. -1.
         11    1    3    3    0    0 -0.16644693824E+01  0.35732583936E+01  0.97889378673E+01  0.10552816624E+02  0.51100000000E-03 0. -1.
        -11    1    3    3    0    0 -0.29916904563E+01 -0.50409857275E+00  0.19402155271E+02  0.19637921392E+02  0.51100000000E-03 0.  1.
        -12    1    3    3    0    0 -0.75119392565E+01 -0.11643379645E-01  0.14072083380E+02  0.15951579784E+02  0.00000000000E+00 0.  1.
</event>
<event>
 7    1  0.2353206E-008  0.4614232E+02  0.7816164E-02  0.1320468E+00
        -11   -1    0    0    0    0  0.00000000000E+00  0.00000000000E+00  0.45593999997E+02  0.45594000000E+02  0.51100000000E-03 0.  1.
         11   -1    0    0    0    0 -0.00000000000E+00 -0.00000000000E+00 -0.45593999997E+02  0.45594000000E+02  0.51100000000E-03 0. -1.
    9900012    2    1    2    0    0  0.38162612186E+02 -0.17460692680E+02  0.16366202977E+02  0.46142319212E+02  0.10000013233E+02 0.  0.
         12    1    1    2    0    0 -0.38162612186E+02  0.17460692680E+02 -0.16366202977E+02  0.45045680788E+02  0.00000000000E+00 0. -1.
         11    1    3    3    0    0  0.25406476427E+02 -0.15974592728E+02  0.12021389661E+02  0.32329405607E+02  0.51100000000E-03 0. -1.
        -11    1    3    3    0    0  0.12704929102E+01  0.41141877118E+00 -0.12869351764E+00  0.13416333041E+01  0.51100000000E-03 0.  1.
        -12    1    3    3    0    0  0.11485642849E+02 -0.18975187238E+01  0.44735068330E+01  0.12471280301E+02  0.00000000000E+00 0.  1.
</event>
<event>
 7    1  0.2353206E-008  0.4614232E+02  0.7816164E-02  0.1320468E+00
        -11   -1    0    0    0    0  0.00000000000E+00  0.00000000000E+00  0.45593999997E+02  0.45594000000E+02  0.51100000000E-03 0.  1.
         11   -1    0    0    0    0 -0.00000000000E+00 -0.00000000000E+00 -0.45593999997E+02  0.45594000000E+02  0.51100000000E-03 0. -1.
    9900012    2    1    2    0    0 -0.18991233482E+02 -0.16055229423E+02  0.37558969540E+02  0.46142317256E+02  0.99999953951E+01 0.  0.
         12    1    1    2    0    0  0.18991233482E+02  0.16055229423E+02 -0.37558969540E+02  0.45045682744E+02  0.00000000000E+00 0. -1.
         11    1    3    3    0    0 -0.45023810509E+01 -0.88741615263E+01  0.11453554169E+02  0.15172543665E+02  0.51100000000E-03 0. -1.
        -11    1    3    3    0    0 -0.11557874146E+02 -0.66270595670E+01  0.23477758334E+02  0.26994582974E+02  0.51100000000E-03 0.  1.
         12    1    3    3    0    0 -0.29309782852E+01 -0.55400832955E+00  0.26276570370E+01  0.39751906170E+01  0.00000000000E+00 0. -1.
</event>
<event>
 7    1  0.2353206E-008  0.4614232E+02  0.7816164E-02  0.1320468E+00
        -11   -1    0    0    0    0  0.00000000000E+00  0.00000000000E+00  0.45593999997E+02  0.45594000000E+02  0.51100000000E-03 0. -1.
         11   -1    0    0    0    0 -0.00000000000E+00 -0.00000000000E+00 -0.45593999997E+02  0.45594000000E+02  0.51100000000E-03 0.  1.
    9900012    2    1    2    0    0  0.93761961704E+01 -0.40421520785E+02 -0.17530004234E+02  0.46142318236E+02  0.10000004328E+02 0.  0.
         12    1    1    2    0    0 -0.93761961704E+01  0.40421520785E+02  0.17530004234E+02  0.45045681764E+02  0.00000000000E+00 0. -1.
         11    1    3    3    0    0  0.73513734891E+00 -0.13818123651E+00 -0.15428321437E+01  0.17145997377E+01  0.51100000000E-03 0. -1.
        -11    1    3    3    0    0  0.23015115767E+01 -0.21285361583E+02 -0.88437521965E+01  0.23164099949E+02  0.51100000000E-03 0.  1.
        -12    1    3    3    0    0  0.63395472448E+01 -0.18997977965E+02 -0.71434198934E+01  0.21263618549E+02  0.00000000000E+00 0.  1.
</event>
<event>
 7    1  0.2353206E-008  0.4614232E+02  0.7816164E-02  0.1320468E+00
        -11   -1    0    0    0    0  0.00000000000E+00  0.00000000000E+00  0.45593999997E+02  0.45594000000E+02  0.51100000000E-03 0.  1.
         11   -1    0    0    0    0 -0.00000000000E+00 -0.00000000000E+00 -0.45593999997E+02  0.45594000000E+02  0.51100000000E-03 0. -1.
    9900012    2    1    2    0    0 -0.73771909462E+01 -0.41739290038E+02  0.15248678142E+02  0.46142318029E+02  0.10000002440E+02 0.  0.
         12    1    1    2    0    0  0.73771909462E+01  0.41739290038E+02 -0.15248678142E+02  0.45045681971E+02  0.00000000000E+00 0. -1.
         11    1    3    3    0    0 -0.19724896415E+01 -0.49334955518E+01  0.40601129629E+01  0.66868984797E+01  0.51100000000E-03 0. -1.
        -11    1    3    3    0    0 -0.45840958130E+01 -0.15443738378E+02  0.74669627336E+01  0.17756084090E+02  0.51100000000E-03 0.  1.
         12    1    3    3    0    0 -0.82060549165E+00 -0.21362056109E+02  0.37216024458E+01  0.21699335459E+02  0.00000000000E+00 0. -1.
</event>
<event>
 7    1  0.2353206E-008  0.4614232E+02  0.7816164E-02  0.1320468E+00
        -11   -1    0    0    0    0  0.00000000000E+00  0.00000000000E+00  0.45593999997E+02  0.45594000000E+02  0.51100000000E-03 0. -1.
         11   -1    0    0    0    0 -0.00000000000E+00 -0.00000000000E+00 -0.45593999997E+02  0.45594000000E+02  0.51100000000E-03 0.  1.
    9900012    2    1    2    0    0 -0.35181516205E+02  0.24777910651E+02  0.13320268925E+02  0.46142317599E+02  0.99999985236E+01 0.  0.
         12    1    1    2    0    0  0.35181516205E+02 -0.24777910651E+02 -0.13320268925E+02  0.45045682401E+02  0.00000000000E+00 0. -1.
         11    1    3    3    0    0 -0.28968055161E+01  0.50056899236E+00  0.10350535268E+01  0.31166308056E+01  0.51100000000E-03 0.  1.
        -11    1    3    3    0    0 -0.19189842996E+02  0.17250594982E+02  0.11186113467E+02  0.28124050850E+02  0.51100000000E-03 0. -1.
        -12    1    3    3    0    0 -0.13094867692E+02  0.70267466773E+01  0.10991019318E+01  0.14901635944E+02  0.00000000000E+00 0.  1.
</event>
<event>
 7    1  0.2353206E-008  0.4614232E+02  0.7816164E-02  0.1320468E+00
        -11   -1    0    0    0    0  0.00000000000E+00  0.00000000000E+00  0.45593999997E+02  0.45594000000E+02  0.51100000000E-03 0.  1.
         11   -1    0    0    0    0 -0.00000000000E+00 -0.00000000000E+00 -0.45593999997E+02  0.45594000000E+02  0.51100000000E-03 0. -1.
    9900012    2    1    2    0    0 -0.28571932356E+02  0.19030049690E+02  0.29165310053E+02  0.46142318517E+02  0.10000006896E+02 0.  0.
         12    1    1    2    0    0  0.28571932356E+02 -0.19030049690E+02 -0.29165310053E+02  0.45045681483E+02  0.00000000000E+00 0. -1.
         11    1    3    3    0    0 -0.27165943209E-01 -0.19957039616E+00  0.25009485501E-01  0.20295828877E+00  0.51100000000E-03 0. -1.
        -11    1    3    3    0    0 -0.29782218695E+01  0.33039850728E+01  0.68064389286E+00  0.44999332479E+01  0.51100000000E-03 0.  1.
        -12    1    3    3    0    0 -0.25566544543E+02  0.15925635014E+02  0.28459656674E+02  0.41439426981E+02  0.00000000000E+00 0.  1.
</event>
<event>
 7    1  0.2353206E-008  0.4614232E+02  0.7816164E-02  0.1320468E+00
        -11   -1    0    0    0    0  0.00000000000E+00  0.00000000000E+00  0.45593999997E+02  0.45594000000E+02  0.51100000000E-03 0.  1.
         11   -1    0    0    0    0 -0.00000000000E+00 -0.00000000000E+00 -0.45593999997E+02  0.45594000000E+02  0.51100000000E-03 0. -1.
    9900012    2    1    2    0    0 -0.18912628565E+02  0.28670829411E+02  0.29144630891E+02  0.46142317763E+02  0.10000000022E+02 0.  0.
         12    1    1    2    0    0  0.18912628565E+02 -0.28670829411E+02 -0.29144630891E+02  0.45045682237E+02  0.00000000000E+00 0. -1.
         11    1    3    3    0    0 -0.12925657595E+01  0.19308777862E+01 -0.22616384256E+00  0.23345589761E+01  0.51100000000E-03 0. -1.
        -11    1    3    3    0    0 -0.49442668344E+01  0.87156829825E+01  0.12698731465E+02  0.16176114659E+02  0.51100000000E-03 0.  1.
        -12    1    3    3    0    0 -0.12675795971E+02  0.18024268643E+02  0.16672063269E+02  0.27631644128E+02  0.00000000000E+00 0.  1.
</event>
<event>
 7    1  0.2353206E-008  0.4614232E+02  0.7816164E-02  0.1320468E+00
        -11   -1    0    0    0    0  0.00000000000E+00  0.00000000000E+00  0.45593999997E+02  0.45594000000E+02  0.51100000000E-03 0.  1.
         11   -1    0    0    0    0 -0.00000000000E+00 -0.00000000000E+00 -0.45593999997E+02  0.45594000000E+02  0.51100000000E-03 0. -1.
    9900012    2    1    2    0    0  0.40436601894E+02  0.17045963185E+02  0.10170043940E+02  0.46142318438E+02  0.10000006174E+02 0.  0.
         12    1    1    2    0    0 -0.40436601894E+02 -0.17045963185E+02 -0.10170043940E+02  0.45045681562E+02  0.00000000000E+00 0. -1.
         11    1    3    3    0    0  0.54035560048E+00 -0.77022177277E+00  0.77147943052E-01  0.94402215041E+00  0.51100000000E-03 0. -1.
        -11    1    3    3    0    0  0.25574932324E+02  0.12128583392E+02  0.92013925646E+01  0.29763153796E+02  0.51100000000E-03 0.  1.
         12    1    3    3    0    0  0.14321313969E+02  0.56876015660E+01  0.89150343254E+00  0.15435142492E+02  0.00000000000E+00 0. -1.
</event>
<event>
 7    1  0.2353206E-008  0.4614232E+02  0.7816164E-02  0.1320468E+00
        -11   -1    0    0    0    0  0.00000000000E+00  0.00000000000E+00  0.45593999997E+02  0.45594000000E+02  0.51100000000E-03 0.  1.
         11   -1    0    0    0    0 -0.00000000000E+00 -0.00000000000E+00 -0.45593999997E+02  0.45594000000E+02  0.51100000000E-03 0. -1.
    9900012    2    1    2    0    0 -0.15604530427E+02 -0.42254164029E+02  0.44474402122E+00  0.46142317133E+02  0.99999942761E+01 0.  0.
         12    1    1    2    0    0  0.15604530427E+02  0.42254164029E+02 -0.44474402122E+00  0.45045682867E+02  0.00000000000E+00 0. -1.
         11    1    3    3    0    0 -0.11210226451E+00 -0.15014818464E+00 -0.71995714521E+00  0.74394216651E+00  0.51100000000E-03 0. -1.
        -11    1    3    3    0    0 -0.17569869544E+01 -0.12702836629E+02 -0.10819080846E+01  0.12869327370E+02  0.51100000000E-03 0.  1.
        -12    1    3    3    0    0 -0.13735441208E+02 -0.29401179216E+02  0.22466092510E+01  0.32529047597E+02  0.00000000000E+00 0.  1.
</event>
<event>
 7    1  0.2353206E-008  0.4614232E+02  0.7816164E-02  0.1320468E+00
        -11   -1    0    0    0    0  0.00000000000E+00  0.00000000000E+00  0.45593999997E+02  0.45594000000E+02  0.51100000000E-03 0. -1.
         11   -1    0    0    0    0 -0.00000000000E+00 -0.00000000000E+00 -0.45593999997E+02  0.45594000000E+02  0.51100000000E-03 0.  1.
    9900012    2    1    2    0    0  0.32967150179E+01  0.65365145723E+01 -0.44446812665E+02  0.46142317535E+02  0.99999979404E+01 0.  0.
         12    1    1    2    0    0 -0.32967150179E+01 -0.65365145723E+01  0.44446812665E+02  0.45045682465E+02  0.00000000000E+00 0. -1.
         11    1    3    3    0    0  0.18818887851E+01  0.43965254943E+01 -0.10902160841E+02  0.11904959180E+02  0.51100000000E-03 0. -1.
        -11    1    3    3    0    0  0.18848255750E+01  0.36997002648E+01 -0.30527127995E+02  0.30808211460E+02  0.51100000000E-03 0.  1.
         12    1    3    3    0    0 -0.46999934213E+00 -0.15597111869E+01 -0.30175238289E+01  0.34291468948E+01  0.00000000000E+00 0. -1.
</event>
<event>
 7    1  0.2353206E-008  0.4614232E+02  0.7816164E-02  0.1320468E+00
        -11   -1    0    0    0    0  0.00000000000E+00  0.00000000000E+00  0.45593999997E+02  0.45594000000E+02  0.51100000000E-03 0.  1.
         11   -1    0    0    0    0 -0.00000000000E+00 -0.00000000000E+00 -0.45593999997E+02  0.45594000000E+02  0.51100000000E-03 0. -1.
    9900012    2    1    2    0    0 -0.18800950997E+02 -0.12438632729E+02  0.38998950902E+02  0.46142317476E+02  0.99999974047E+01 0.  0.
         12    1    1    2    0    0  0.18800950997E+02  0.12438632729E+02 -0.38998950902E+02  0.45045682524E+02  0.00000000000E+00 0. -1.
         11    1    3    3    0    0 -0.40531431859E+01  0.81856780354E+00  0.38659965314E+01  0.56607377944E+01  0.51100000000E-03 0. -1.
        -11    1    3    3    0    0 -0.83259556990E+01 -0.83284707400E+01  0.17686018048E+02  0.21248063390E+02  0.51100000000E-03 0.  1.
         12    1    3    3    0    0 -0.64218521117E+01 -0.49287297926E+01  0.17446936323E+02  0.19233516292E+02  0.00000000000E+00 0. -1.
</event>
<event>
 7    1  0.2353206E-008  0.4614232E+02  0.7816164E-02  0.1320468E+00
        -11   -1    0    0    0    0  0.00000000000E+00  0.00000000000E+00  0.45593999997E+02  0.45594000000E+02  0.51100000000E-03 0. -1.
         11   -1    0    0    0    0 -0.00000000000E+00 -0.00000000000E+00 -0.45593999997E+02  0.45594000000E+02  0.51100000000E-03 0.  1.
    9900012    2    1    2    0    0  0.10974241116E+02 -0.22228558574E+02 -0.37610778727E+02  0.46142318067E+02  0.10000002787E+02 0.  0.
         12    1    1    2    0    0 -0.10974241116E+02  0.22228558574E+02  0.37610778727E+02  0.45045681933E+02  0.00000000000E+00 0. -1.
         11    1    3    3    0    0  0.36312650004E+01 -0.83473701628E+01 -0.11803073384E+02  0.14905610209E+02  0.51100000000E-03 0. -1.
        -11    1    3    3    0    0  0.78944999600E+01 -0.10980588922E+02 -0.24547703882E+02  0.28026527235E+02  0.51100000000E-03 0.  1.
         12    1    3    3    0    0 -0.55152384422E+00 -0.29005994893E+01 -0.12600014608E+01  0.32101806225E+01  0.00000000000E+00 0. -1.
</event>
<event>
 7    1  0.2353206E-008  0.4614232E+02  0.7816164E-02  0.1320468E+00
        -11   -1    0    0    0    0  0.00000000000E+00  0.00000000000E+00  0.45593999997E+02  0.45594000000E+02  0.51100000000E-03 0.  1.
         11   -1    0    0    0    0 -0.00000000000E+00 -0.00000000000E+00 -0.45593999997E+02  0.45594000000E+02  0.51100000000E-03 0. -1.
    9900012    2    1    2    0    0  0.34297028509E+02  0.24037864315E+02 -0.16583375967E+02  0.46142318256E+02  0.10000004508E+02 0.  0.
         12    1    1    2    0    0 -0.34297028509E+02 -0.24037864315E+02  0.16583375967E+02  0.45045681744E+02  0.00000000000E+00 0. -1.
         11    1    3    3    0    0  0.17824063074E+02  0.12962335885E+02 -0.92395673456E+01  0.23897468088E+02  0.51100000000E-03 0. -1.
        -11    1    3    3    0    0  0.66995993203E+01  0.85433238411E+01 -0.30801752111E+01  0.11285410622E+02  0.51100000000E-03 0.  1.
         12    1    3    3    0    0  0.97733661146E+01  0.25322045897E+01 -0.42636334105E+01  0.10959439546E+02  0.00000000000E+00 0. -1.
</event>
<event>
 7    1  0.2353206E-008  0.4614232E+02  0.7816164E-02  0.1320468E+00
        -11   -1    0    0    0    0  0.00000000000E+00  0.00000000000E+00  0.45593999997E+02  0.45594000000E+02  0.51100000000E-03 0.  1.
         11   -1    0    0    0    0 -0.00000000000E+00 -0.00000000000E+00 -0.45593999997E+02  0.45594000000E+02  0.51100000000E-03 0. -1.
    9900012    2    1    2    0    0  0.17693518329E+02  0.28031056288E+02  0.30501029150E+02  0.46142317779E+02  0.10000000166E+02 0.  0.
         12    1    1    2    0    0 -0.17693518329E+02 -0.28031056288E+02 -0.30501029150E+02  0.45045682221E+02  0.00000000000E+00 0. -1.
         11    1    3    3    0    0  0.55054056405E+01  0.10417755157E+02  0.56645071721E+01  0.13073857715E+02  0.51100000000E-03 0. -1.
        -11    1    3    3    0    0  0.71232352999E+01  0.11104186360E+02  0.12139594537E+02  0.17928000213E+02  0.51100000000E-03 0.  1.
         12    1    3    3    0    0  0.50648773887E+01  0.65091147711E+01  0.12696927441E+02  0.15140459851E+02  0.00000000000E+00 0. -1.
</event>
<event>
 7    1  0.2353206E-008  0.4614232E+02  0.7816164E-02  0.1320468E+00
        -11   -1    0    0    0    0  0.00000000000E+00  0.00000000000E+00  0.45593999997E+02  0.45594000000E+02  0.51100000000E-03 0.  1.
         11   -1    0    0    0    0 -0.00000000000E+00 -0.00000000000E+00 -0.45593999997E+02  0.45594000000E+02  0.51100000000E-03 0. -1.
    9900012    2    1    2    0    0 -0.19914401795E+02  0.27392614539E+02  0.29701426233E+02  0.46142318183E+02  0.10000003844E+02 0.  0.
         12    1    1    2    0    0  0.19914401795E+02 -0.27392614539E+02 -0.29701426233E+02  0.45045681817E+02  0.00000000000E+00 0. -1.
         11    1    3    3    0    0 -0.32731106414E+01  0.66046787165E+01  0.11982423083E+02  0.14068173209E+02  0.51100000000E-03 0.  1.
        -11    1    3    3    0    0 -0.10557243248E+01  0.24551191932E+01  0.17087369361E+01  0.31720571055E+01  0.51100000000E-03 0. -1.
        -12    1    3    3    0    0 -0.15585566829E+02  0.18332816629E+02  0.16010266213E+02  0.28902087869E+02  0.00000000000E+00 0.  1.
</event>
<event>
 7    1  0.2353206E-008  0.4614232E+02  0.7816164E-02  0.1320468E+00
        -11   -1    0    0    0    0  0.00000000000E+00  0.00000000000E+00  0.45593999997E+02  0.45594000000E+02  0.51100000000E-03 0. -1.
         11   -1    0    0    0    0 -0.00000000000E+00 -0.00000000000E+00 -0.45593999997E+02  0.45594000000E+02  0.51100000000E-03 0.  1.
    9900012    2    1    2    0    0  0.29230536662E+02  0.33881670868E+02 -0.51692920019E+01  0.46142317919E+02  0.10000001439E+02 0.  0.
         12    1    1    2    0    0 -0.29230536662E+02 -0.33881670868E+02  0.51692920019E+01  0.45045682081E+02  0.00000000000E+00 0. -1.
         11    1    3    3    0    0  0.50517103916E+01  0.45015661881E+01 -0.94415536540E+00  0.68319327896E+01  0.51100000000E-03 0.  1.
        -11    1    3    3    0    0  0.23093112226E+02  0.23218719338E+02 -0.44589517033E+01  0.33049705150E+02  0.51100000000E-03 0. -1.
         12    1    3    3    0    0  0.10857140450E+01  0.61613853415E+01  0.23381506675E+00  0.62606799790E+01  0.00000000000E+00 0. -1.
</event>
<event>
 7    1  0.2353206E-008  0.4614231E+02  0.7816164E-02  0.1320468E+00
        -11   -1    0    0    0    0  0.00000000000E+00  0.00000000000E+00  0.45593999997E+02  0.45594000000E+02  0.51100000000E-03 0.  1.
         11   -1    0    0    0    0 -0.00000000000E+00 -0.00000000000E+00 -0.45593999997E+02  0.45594000000E+02  0.51100000000E-03 0. -1.
    9900012    2    1    2    0    0 -0.26447537497E+02 -0.20865119644E+02 -0.29904653240E+02  0.46142314936E+02  0.99999742424E+01 0.  0.
         12    1    1    2    0    0  0.26447537497E+02  0.20865119644E+02  0.29904653240E+02  0.45045685064E+02  0.00000000000E+00 0. -1.
         11    1    3    3    0    0 -0.15320522032E+02 -0.11416391800E+02 -0.17202188826E+02  0.25709292050E+02  0.51100000000E-03 0. -1.
        -11    1    3    3    0    0 -0.67630514129E+01 -0.89334767201E+01 -0.69164140975E+01  0.13167484762E+02  0.51100000000E-03 0.  1.
         12    1    3    3    0    0 -0.43639640518E+01 -0.51525112441E+00 -0.57860503169E+01  0.72655381244E+01  0.00000000000E+00 0. -1.
</event>
<event>
 7    1  0.2353206E-008  0.4614232E+02  0.7816164E-02  0.1320468E+00
        -11   -1    0    0    0    0  0.00000000000E+00  0.00000000000E+00  0.45593999997E+02  0.45594000000E+02  0.51100000000E-03 0.  1.
         11   -1    0    0    0    0 -0.00000000000E+00 -0.00000000000E+00 -0.45593999997E+02  0.45594000000E+02  0.51100000000E-03 0. -1.
    9900012    2    1    2    0    0  0.40720581803E+02 -0.10438815626E+02 -0.16185759004E+02  0.46142318203E+02  0.10000004026E+02 0.  0.
         12    1    1    2    0    0 -0.40720581803E+02  0.10438815626E+02  0.16185759004E+02  0.45045681797E+02  0.00000000000E+00 0. -1.
         11    1    3    3    0    0  0.12771934477E+02 -0.22810792223E+01 -0.71661268911E+01  0.14821572372E+02  0.51100000000E-03 0.  1.
        -11    1    3    3    0    0  0.40234918646E+01 -0.38961667380E+01 -0.75131147681E+00  0.56509354298E+01  0.51100000000E-03 0. -1.
         12    1    3    3    0    0  0.23925155461E+02 -0.42615696661E+01 -0.82683206365E+01  0.25669810400E+02  0.00000000000E+00 0. -1.
</event>
<event>
 7    1  0.2353206E-008  0.4614232E+02  0.7816164E-02  0.1320468E+00
        -11   -1    0    0    0    0  0.00000000000E+00  0.00000000000E+00  0.45593999997E+02  0.45594000000E+02  0.51100000000E-03 0. -1.
         11   -1    0    0    0    0 -0.00000000000E+00 -0.00000000000E+00 -0.45593999997E+02  0.45594000000E+02  0.51100000000E-03 0.  1.
    9900012    2    1    2    0    0  0.30920242148E+02 -0.31924114486E+02 -0.73418641655E+01  0.46142318413E+02  0.10000005947E+02 0.  0.
         12    1    1    2    0    0 -0.30920242148E+02  0.31924114486E+02  0.73418641655E+01  0.45045681587E+02  0.00000000000E+00 0. -1.
         11    1    3    3    0    0  0.22718468498E+02 -0.21789313699E+02 -0.48220310597E+01  0.31845800134E+02  0.51100000000E-03 0. -1.
        -11    1    3    3    0    0  0.74209740170E+01 -0.58048123457E+01 -0.44525116888E+00  0.94321233344E+01  0.51100000000E-03 0.  1.
         12    1    3    3    0    0  0.78079963268E+00 -0.43299884407E+01 -0.20745819369E+01  0.48643949445E+01  0.00000000000E+00 0. -1.
</event>
<event>
 7    1  0.2353206E-008  0.4614232E+02  0.7816164E-02  0.1320468E+00
        -11   -1    0    0    0    0  0.00000000000E+00  0.00000000000E+00  0.45593999997E+02  0.45594000000E+02  0.51100000000E-03 0. -1.
         11   -1    0    0    0    0 -0.00000000000E+00 -0.00000000000E+00 -0.45593999997E+02  0.45594000000E+02  0.51100000000E-03 0.  1.
    9900012    2    1    2    0    0 -0.15866819326E+02 -0.41890803916E+02 -0.47453234691E+01  0.46142317598E+02  0.99999985129E+01 0.  0.
         12    1    1    2    0    0  0.15866819326E+02  0.41890803916E+02  0.47453234691E+01  0.45045682402E+02  0.00000000000E+00 0. -1.
         11    1    3    3    0    0 -0.51816974949E+01 -0.69747354392E+01 -0.12128238115E+00  0.86897429796E+01  0.51100000000E-03 0. -1.
        -11    1    3    3    0    0 -0.93321566451E+00 -0.10140592869E+02  0.10229919681E+01  0.10234697262E+02  0.51100000000E-03 0.  1.
        -12    1    3    3    0    0 -0.97519061663E+01 -0.24775475607E+02 -0.56470330561E+01  0.27217877356E+02  0.00000000000E+00 0.  1.
</event>
<event>
 7    1  0.2353206E-008  0.4614231E+02  0.7816164E-02  0.1320468E+00
        -11   -1    0    0    0    0  0.00000000000E+00  0.00000000000E+00  0.45593999997E+02  0.45594000000E+02  0.51100000000E-03 0.  1.
         11   -1    0    0    0    0 -0.00000000000E+00 -0.00000000000E+00 -0.45593999997E+02  0.45594000000E+02  0.51100000000E-03 0. -1.
    9900012    2    1    2    0    0 -0.42631836395E+02 -0.75569895306E+01 -0.12431108128E+02  0.46142311922E+02  0.99999467512E+01 0.  0.
         12    1    1    2    0    0  0.42631836395E+02  0.75569895306E+01  0.12431108128E+02  0.45045688078E+02  0.00000000000E+00 0. -1.
         11    1    3    3    0    0 -0.67940945156E+00 -0.15457647873E+01 -0.41029665325E+00  0.17376218188E+01  0.51100000000E-03 0. -1.
        -11    1    3    3    0    0 -0.21968582802E+02 -0.59384940732E+01 -0.60414258546E+01  0.23545342826E+02  0.51100000000E-03 0.  1.
        -12    1    3    3    0    0 -0.19983844142E+02 -0.72730670149E-01 -0.59793856201E+01  0.20859347277E+02  0.00000000000E+00 0.  1.
</event>
<event>
 7    1  0.2353206E-008  0.4614232E+02  0.7816164E-02  0.1320468E+00
        -11   -1    0    0    0    0  0.00000000000E+00  0.00000000000E+00  0.45593999997E+02  0.45594000000E+02  0.51100000000E-03 0.  1.
         11   -1    0    0    0    0 -0.00000000000E+00 -0.00000000000E+00 -0.45593999997E+02  0.45594000000E+02  0.51100000000E-03 0. -1.
    9900012    2    1    2    0    0  0.39083544296E+02  0.21860464872E+02  0.48693081704E+01  0.46142317396E+02  0.99999966749E+01 0.  0.
         12    1    1    2    0    0 -0.39083544296E+02 -0.21860464872E+02 -0.48693081704E+01  0.45045682604E+02  0.00000000000E+00 0. -1.
         11    1    3    3    0    0  0.19970381052E+02  0.13215000839E+02 -0.84592661398E+00  0.23961802074E+02  0.51100000000E-03 0. -1.
        -11    1    3    3    0    0  0.14140587181E+02  0.72510869090E+01  0.24726488287E+01  0.16082551404E+02  0.51100000000E-03 0.  1.
        -12    1    3    3    0    0  0.49725760628E+01  0.13943771243E+01  0.32425859557E+01  0.60979639180E+01  0.00000000000E+00 0.  1.
</event>
<event>
 7    1  0.2353206E-008  0.4614232E+02  0.7816164E-02  0.1320468E+00
        -11   -1    0    0    0    0  0.00000000000E+00  0.00000000000E+00  0.45593999997E+02  0.45594000000E+02  0.51100000000E-03 0. -1.
         11   -1    0    0    0    0 -0.00000000000E+00 -0.00000000000E+00 -0.45593999997E+02  0.45594000000E+02  0.51100000000E-03 0.  1.
    9900012    2    1    2    0    0  0.11721688890E+02 -0.25006015680E+02 -0.35586720653E+02  0.46142317660E+02  0.99999990816E+01 0.  0.
         12    1    1    2    0    0 -0.11721688890E+02  0.25006015680E+02  0.35586720653E+02  0.45045682340E+02  0.00000000000E+00 0. -1.
         11    1    3    3    0    0  0.22672077665E+01 -0.70074597233E+00 -0.51967955070E+01  0.57129641848E+01  0.51100000000E-03 0. -1.
        -11    1    3    3    0    0  0.74802031423E+01 -0.17785312242E+02 -0.25793431901E+02  0.32211362903E+02  0.51100000000E-03 0.  1.
         12    1    3    3    0    0  0.19742779816E+01 -0.65199574649E+01 -0.45964932451E+01  0.82179905722E+01  0.00000000000E+00 0. -1.
</event>
<event>
 7    1  0.2353206E-008  0.4614232E+02  0.7816164E-02  0.1320468E+00
        -11   -1    0    0    0    0  0.00000000000E+00  0.00000000000E+00  0.45593999997E+02  0.45594000000E+02  0.51100000000E-03 0.  1.
         11   -1    0    0    0    0 -0.00000000000E+00 -0.00000000000E+00 -0.45593999997E+02  0.45594000000E+02  0.51100000000E-03 0. -1.
    9900012    2    1    2    0    0  0.23458291090E+02 -0.38248772536E+02 -0.39816525947E+01  0.46142316758E+02  0.99999908533E+01 0.  0.
         12    1    1    2    0    0 -0.23458291090E+02  0.38248772536E+02  0.39816525947E+01  0.45045683242E+02  0.00000000000E+00 0. -1.
         11    1    3    3    0    0  0.74140088298E+01 -0.12595726733E+02  0.86645432931E-01  0.14615996940E+02  0.51100000000E-03 0. -1.
        -11    1    3    3    0    0  0.38879186637E+01 -0.77334384335E+01  0.22987443765E+01  0.89557918416E+01  0.51100000000E-03 0.  1.
        -12    1    3    3    0    0  0.12156363597E+02 -0.17919607369E+02 -0.63670424041E+01  0.22570527976E+02  0.00000000000E+00 0.  1.
</event>
<event>
 7    1  0.2353206E-008  0.4614232E+02  0.7816164E-02  0.1320468E+00
        -11   -1    0    0    0    0  0.00000000000E+00  0.00000000000E+00  0.45593999997E+02  0.45594000000E+02  0.51100000000E-03 0.  1.
         11   -1    0    0    0    0 -0.00000000000E+00 -0.00000000000E+00 -0.45593999997E+02  0.45594000000E+02  0.51100000000E-03 0. -1.
    9900012    2    1    2    0    0 -0.22197699461E+02 -0.28438029143E+02  0.26975063674E+02  0.46142318485E+02  0.10000006602E+02 0.  0.
         12    1    1    2    0    0  0.22197699461E+02  0.28438029143E+02 -0.26975063674E+02  0.45045681515E+02  0.00000000000E+00 0. -1.
         11    1    3    3    0    0 -0.98003637965E+01 -0.15873439891E+02  0.10070895327E+02  0.21199909374E+02  0.51100000000E-03 0. -1.
        -11    1    3    3    0    0 -0.12247190366E+01 -0.42227362244E+01  0.41298021978E+01  0.60321392883E+01  0.51100000000E-03 0.  1.
         12    1    3    3    0    0 -0.11172616628E+02 -0.83418530276E+01  0.12774366149E+02  0.18910269822E+02  0.00000000000E+00 0. -1.
</event>
<event>
 7    1  0.2353206E-008  0.4614232E+02  0.7816164E-02  0.1320468E+00
        -11   -1    0    0    0    0  0.00000000000E+00  0.00000000000E+00  0.45593999997E+02  0.45594000000E+02  0.51100000000E-03 0.  1.
         11   -1    0    0    0    0 -0.00000000000E+00 -0.00000000000E+00 -0.45593999997E+02  0.45594000000E+02  0.51100000000E-03 0. -1.
    9900012    2    1    2    0    0 -0.24081661178E+02  0.37737267331E+02  0.50085737141E+01  0.46142316951E+02  0.99999926121E+01 0.  0.
         12    1    1    2    0    0  0.24081661178E+02 -0.37737267331E+02 -0.50085737141E+01  0.45045683049E+02  0.00000000000E+00 0. -1.
         11    1    3    3    0    0 -0.94744120792E+01  0.11368280241E+02  0.10160298317E+01  0.14833563185E+02  0.51100000000E-03 0. -1.
        -11    1    3    3    0    0 -0.15191653361E+02  0.26344969819E+02  0.36463101054E+01  0.30629060453E+02  0.51100000000E-03 0.  1.
         12    1    3    3    0    0  0.58440426211E+00  0.24017270971E-01  0.34623377695E+00  0.67969331258E+00  0.00000000000E+00 0. -1.
</event>
<event>
 7    1  0.2353206E-008  0.4614232E+02  0.7816164E-02  0.1320468E+00
        -11   -1    0    0    0    0  0.00000000000E+00  0.00000000000E+00  0.45593999997E+02  0.45594000000E+02  0.51100000000E-03 0. -1.
         11   -1    0    0    0    0 -0.00000000000E+00 -0.00000000000E+00 -0.45593999997E+02  0.45594000000E+02  0.51100000000E-03 0.  1.
    9900012    2    1    2    0    0  0.44029412199E+02  0.89256062612E+01 -0.32951250410E+01  0.46142318356E+02  0.10000005426E+02 0.  0.
         12    1    1    2    0    0 -0.44029412199E+02 -0.89256062612E+01  0.32951250410E+01  0.45045681644E+02  0.00000000000E+00 0. -1.
         11    1    3    3    0    0  0.24888290704E+02  0.81176247103E+01 -0.46168402891E+01  0.26582664645E+02  0.51100000000E-03 0. -1.
        -11    1    3    3    0    0  0.47303856179E+01 -0.40304443929E-01 -0.12587168241E+01  0.48951548338E+01  0.51100000000E-03 0.  1.
         12    1    3    3    0    0  0.14410735877E+02  0.84828599480E+00  0.25804320722E+01  0.14664498878E+02  0.00000000000E+00 0. -1.
</event>
<event>
 7    1  0.2353206E-008  0.4614232E+02  0.7816164E-02  0.1320468E+00
        -11   -1    0    0    0    0  0.00000000000E+00  0.00000000000E+00  0.45593999997E+02  0.45594000000E+02  0.51100000000E-03 0. -1.
         11   -1    0    0    0    0 -0.00000000000E+00 -0.00000000000E+00 -0.45593999997E+02  0.45594000000E+02  0.51100000000E-03 0.  1.
    9900012    2    1    2    0    0 -0.23688668630E+02 -0.37320745466E+02  0.86673191088E+01  0.46142317808E+02  0.10000000427E+02 0.  0.
         12    1    1    2    0    0  0.23688668630E+02  0.37320745466E+02 -0.86673191088E+01  0.45045682192E+02  0.00000000000E+00 0. -1.
         11    1    3    3    0    0 -0.45296245188E+00 -0.26542593612E+00  0.10951756401E+01  0.12145105410E+01  0.51100000000E-03 0. -1.
        -11    1    3    3    0    0 -0.71249898008E+01 -0.17450795246E+02  0.43925852046E+01  0.19354341617E+02  0.51100000000E-03 0.  1.
         12    1    3    3    0    0 -0.16110716378E+02 -0.19604524284E+02  0.31795582640E+01  0.25573465650E+02  0.00000000000E+00 0. -1.
</event>
<event>
 7    1  0.2353206E-008  0.4614232E+02  0.7816164E-02  0.1320468E+00
        -11   -1    0    0    0    0  0.00000000000E+00  0.00000000000E+00  0.45593999997E+02  0.45594000000E+02  0.51100000000E-03 0.  1.
         11   -1    0    0    0    0 -0.00000000000E+00 -0.00000000000E+00 -0.45593999997E+02  0.45594000000E+02  0.51100000000E-03 0. -1.
    9900012    2    1    2    0    0 -0.88360127061E+01  0.10772983415E+02  0.42836680587E+02  0.46142317677E+02  0.99999992366E+01 0.  0.
         12    1    1    2    0    0  0.88360127061E+01 -0.10772983415E+02 -0.42836680587E+02  0.45045682323E+02  0.00000000000E+00 0. -1.
         11    1    3    3    0    0 -0.13836618441E+01 -0.20028574938E+00  0.19671450057E+00  0.14118538650E+01  0.51100000000E-03 0. -1.
        -11    1    3    3    0    0 -0.56238040322E+01  0.63331419307E+01  0.24796999197E+02  0.26203568993E+02  0.51100000000E-03 0.  1.
        -12    1    3    3    0    0 -0.18285468299E+01  0.46401272338E+01  0.17842966889E+02  0.18526894820E+02  0.00000000000E+00 0.  1.
</event>
<event>
 7    1  0.2353206E-008  0.4614232E+02  0.7816164E-02  0.1320468E+00
        -11   -1    0    0    0    0  0.00000000000E+00  0.00000000000E+00  0.45593999997E+02  0.45594000000E+02  0.51100000000E-03 0.  1.
         11   -1    0    0    0    0 -0.00000000000E+00 -0.00000000000E+00 -0.45593999997E+02  0.45594000000E+02  0.51100000000E-03 0. -1.
    9900012    2    1    2    0    0 -0.30993593916E+02  0.22831255832E+02  0.23393255326E+02  0.46142317616E+02  0.99999986729E+01 0.  0.
         12    1    1    2    0    0  0.30993593916E+02 -0.22831255832E+02 -0.23393255326E+02  0.45045682384E+02  0.00000000000E+00 0. -1.
         11    1    3    3    0    0 -0.11956616394E+02  0.77838969416E+01  0.12163343528E+02  0.18748244004E+02  0.51100000000E-03 0. -1.
        -11    1    3    3    0    0 -0.12512946426E+02  0.65518887311E+01  0.48902512445E+01  0.14947094424E+02  0.51100000000E-03 0.  1.
        -12    1    3    3    0    0 -0.65240310956E+01  0.84954701593E+01  0.63396605542E+01  0.12446979188E+02  0.00000000000E+00 0.  1.
</event>
<event>
 7    1  0.2353206E-008  0.4614232E+02  0.7816164E-02  0.1320468E+00
        -11   -1    0    0    0    0  0.00000000000E+00  0.00000000000E+00  0.45593999997E+02  0.45594000000E+02  0.51100000000E-03 0.  1.
         11   -1    0    0    0    0 -0.00000000000E+00 -0.00000000000E+00 -0.45593999997E+02  0.45594000000E+02  0.51100000000E-03 0. -1.
    9900012    2    1    2    0    0 -0.71393026669E+01 -0.11369058547E+02  0.42998701778E+02  0.46142317749E+02  0.99999998925E+01 0.  0.
         12    1    1    2    0    0  0.71393026669E+01  0.11369058547E+02 -0.42998701778E+02  0.45045682251E+02  0.00000000000E+00 0. -1.
         11    1    3    3    0    0  0.71746162617E+00 -0.10954153083E+00  0.18801213482E+01  0.20153429180E+01  0.51100000000E-03 0.  1.
        -11    1    3    3    0    0 -0.27993336727E+01 -0.34114323091E+01  0.43686889273E+01  0.62096362708E+01  0.51100000000E-03 0. -1.
        -12    1    3    3    0    0 -0.50574306203E+01 -0.78480847069E+01  0.36749891503E+02  0.37917338561E+02  0.00000000000E+00 0.  1.
</event>
<event>
 7    1  0.2353206E-008  0.4614232E+02  0.7816164E-02  0.1320468E+00
        -11   -1    0    0    0    0  0.00000000000E+00  0.00000000000E+00  0.45593999997E+02  0.45594000000E+02  0.51100000000E-03 0.  1.
         11   -1    0    0    0    0 -0.00000000000E+00 -0.00000000000E+00 -0.45593999997E+02  0.45594000000E+02  0.51100000000E-03 0. -1.
    9900012    2    1    2    0    0 -0.50812459855E+01 -0.39003963963E+02  0.21954165183E+02  0.46142316139E+02  0.99999852116E+01 0.  0.
         12    1    1    2    0    0  0.50812459855E+01  0.39003963963E+02 -0.21954165183E+02  0.45045683861E+02  0.00000000000E+00 0. -1.
         11    1    3    3    0    0 -0.18251584932E+00  0.22063417679E+00  0.48392005330E+00  0.56229027587E+00  0.51100000000E-03 0. -1.
        -11    1    3    3    0    0 -0.45503932007E+01 -0.20009118519E+02  0.76135937108E+01  0.21886930155E+02  0.51100000000E-03 0.  1.
         12    1    3    3    0    0 -0.34833693553E+00 -0.19215479621E+02  0.13856651419E+02  0.23693095708E+02  0.00000000000E+00 0. -1.
</event>
<event>
 7    1  0.2353206E-008  0.4614232E+02  0.7816164E-02  0.1320468E+00
        -11   -1    0    0    0    0  0.00000000000E+00  0.00000000000E+00  0.45593999997E+02  0.45594000000E+02  0.51100000000E-03 0.  1.
         11   -1    0    0    0    0 -0.00000000000E+00 -0.00000000000E+00 -0.45593999997E+02  0.45594000000E+02  0.51100000000E-03 0. -1.
    9900012    2    1    2    0    0 -0.41196062980E+02 -0.14052803625E+02  0.11598129923E+02  0.46142317493E+02  0.99999975548E+01 0.  0.
         12    1    1    2    0    0  0.41196062980E+02  0.14052803625E+02 -0.11598129923E+02  0.45045682507E+02  0.00000000000E+00 0. -1.
         11    1    3    3    0    0 -0.20987276031E+02 -0.93509475798E+01  0.30799518935E+01  0.23181718654E+02  0.51100000000E-03 0. -1.
        -11    1    3    3    0    0 -0.13005177508E+02 -0.27758330849E+01  0.28649722675E+01  0.13603233354E+02  0.51100000000E-03 0.  1.
         12    1    3    3    0    0 -0.72036094422E+01 -0.19260229606E+01  0.56532057618E+01  0.93573654853E+01  0.00000000000E+00 0. -1.
</event>
<event>
 7    1  0.2353206E-008  0.4614232E+02  0.7816164E-02  0.1320468E+00
        -11   -1    0    0    0    0  0.00000000000E+00  0.00000000000E+00  0.45593999997E+02  0.45594000000E+02  0.51100000000E-03 0. -1.
         11   -1    0    0    0    0 -0.00000000000E+00 -0.00000000000E+00 -0.45593999997E+02  0.45594000000E+02  0.51100000000E-03 0.  1.
    9900012    2    1    2    0    0  0.19322293830E+02 -0.24828824677E+02 -0.32238050152E+02  0.46142318172E+02  0.10000003751E+02 0.  0.
         12    1    1    2    0    0 -0.19322293830E+02  0.24828824677E+02  0.32238050152E+02  0.45045681828E+02  0.00000000000E+00 0. -1.
         11    1    3    3    0    0  0.93381117576E+01 -0.57220587608E+01 -0.12409324722E+02  0.16550940396E+02  0.51100000000E-03 0. -1.
        -11    1    3    3    0    0  0.58424123785E+01 -0.87497363962E+01 -0.72379507224E+01  0.12770262344E+02  0.51100000000E-03 0.  1.
        -12    1    3    3    0    0  0.41417696939E+01 -0.10357029520E+02 -0.12590774707E+02  0.16821115433E+02  0.00000000000E+00 0.  1.
</event>
<event>
 7    1  0.2353206E-008  0.4614232E+02  0.7816164E-02  0.1320468E+00
        -11   -1    0    0    0    0  0.00000000000E+00  0.00000000000E+00  0.45593999997E+02  0.45594000000E+02  0.51100000000E-03 0.  1.
         11   -1    0    0    0    0 -0.00000000000E+00 -0.00000000000E+00 -0.45593999997E+02  0.45594000000E+02  0.51100000000E-03 0. -1.
    9900012    2    1    2    0    0  0.14260647053E+02  0.40983271113E+02  0.12087965313E+02  0.46142317955E+02  0.10000001768E+02 0.  0.
         12    1    1    2    0    0 -0.14260647053E+02 -0.40983271113E+02 -0.12087965313E+02  0.45045682045E+02  0.00000000000E+00 0. -1.
         11    1    3    3    0    0  0.68111043938E+01  0.14328585108E+02  0.49280713096E+01  0.16612807750E+02  0.51100000000E-03 0. -1.
        -11    1    3    3    0    0  0.89525849073E+01  0.21938663479E+02  0.57454387586E+01  0.24381628300E+02  0.51100000000E-03 0.  1.
        -12    1    3    3    0    0 -0.15030422479E+01  0.47160225263E+01  0.14144552450E+01  0.51478819050E+01  0.00000000000E+00 0.  1.
</event>
<event>
 7    1  0.2353206E-008  0.4614232E+02  0.7816164E-02  0.1320468E+00
        -11   -1    0    0    0    0  0.00000000000E+00  0.00000000000E+00  0.45593999997E+02  0.45594000000E+02  0.51100000000E-03 0. -1.
         11   -1    0    0    0    0 -0.00000000000E+00 -0.00000000000E+00 -0.45593999997E+02  0.45594000000E+02  0.51100000000E-03 0.  1.
    9900012    2    1    2    0    0 -0.14580821993E+02 -0.36849849227E+02 -0.21414988069E+02  0.46142317942E+02  0.10000001652E+02 0.  0.
         12    1    1    2    0    0  0.14580821993E+02  0.36849849227E+02  0.21414988069E+02  0.45045682058E+02  0.00000000000E+00 0. -1.
         11    1    3    3    0    0  0.35036286118E+00 -0.45703059978E+01 -0.27764359254E+01  0.53590155586E+01  0.51100000000E-03 0. -1.
        -11    1    3    3    0    0 -0.10606897229E+02 -0.28498104401E+02 -0.14405681254E+02  0.33647761827E+02  0.51100000000E-03 0.  1.
         12    1    3    3    0    0 -0.43242876246E+01 -0.37814388284E+01 -0.42328708896E+01  0.71355405570E+01  0.00000000000E+00 0. -1.
</event>
<event>
 7    1  0.2353206E-008  0.4614232E+02  0.7816164E-02  0.1320468E+00
        -11   -1    0    0    0    0  0.00000000000E+00  0.00000000000E+00  0.45593999997E+02  0.45594000000E+02  0.51100000000E-03 0.  1.
         11   -1    0    0    0    0 -0.00000000000E+00 -0.00000000000E+00 -0.45593999997E+02  0.45594000000E+02  0.51100000000E-03 0. -1.
    9900012    2    1    2    0    0  0.14323627089E+02 -0.63388451068E+01  0.42234657189E+02  0.46142317431E+02  0.99999969867E+01 0.  0.
         12    1    1    2    0    0 -0.14323627089E+02  0.63388451068E+01 -0.42234657189E+02  0.45045682569E+02  0.00000000000E+00 0. -1.
         11    1    3    3    0    0  0.40607919177E+00  0.73784393334E+00  0.14613480493E+00  0.85479215151E+00  0.51100000000E-03 0. -1.
        -11    1    3    3    0    0  0.42660729581E+00 -0.15276375219E+01  0.16071312933E+01  0.22579950040E+01  0.51100000000E-03 0.  1.
        -12    1    3    3    0    0  0.13490940601E+02 -0.55490515183E+01  0.40481391091E+02  0.43029530275E+02  0.00000000000E+00 0.  1.
</event>
<event>
 7    1  0.2353206E-008  0.4614232E+02  0.7816164E-02  0.1320468E+00
        -11   -1    0    0    0    0  0.00000000000E+00  0.00000000000E+00  0.45593999997E+02  0.45594000000E+02  0.51100000000E-03 0.  1.
         11   -1    0    0    0    0 -0.00000000000E+00 -0.00000000000E+00 -0.45593999997E+02  0.45594000000E+02  0.51100000000E-03 0. -1.
    9900012    2    1    2    0    0  0.19121581262E+01  0.38743956158E+02  0.22898972172E+02  0.46142318587E+02  0.10000007527E+02 0.  0.
         12    1    1    2    0    0 -0.19121581262E+01 -0.38743956158E+02 -0.22898972172E+02  0.45045681413E+02  0.00000000000E+00 0. -1.
         11    1    3    3    0    0  0.97170482382E+00  0.18112656337E+02  0.10822108017E+02  0.21121802765E+02  0.51100000000E-03 0. -1.
        -11    1    3    3    0    0 -0.35355020890E+00  0.14706698988E+02  0.11953224661E+02  0.18954988076E+02  0.51100000000E-03 0.  1.
         12    1    3    3    0    0  0.12940035113E+01  0.59246008328E+01  0.12363949376E+00  0.60655277461E+01  0.00000000000E+00 0. -1.
</event>
<event>
 7    1  0.2353206E-008  0.4614232E+02  0.7816164E-02  0.1320468E+00
        -11   -1    0    0    0    0  0.00000000000E+00  0.00000000000E+00  0.45593999997E+02  0.45594000000E+02  0.51100000000E-03 0.  1.
         11   -1    0    0    0    0 -0.00000000000E+00 -0.00000000000E+00 -0.45593999997E+02  0.45594000000E+02  0.51100000000E-03 0. -1.
    9900012    2    1    2    0    0 -0.12848708054E+02 -0.23548244232E+02  0.36187074276E+02  0.46142318191E+02  0.10000003916E+02 0.  0.
         12    1    1    2    0    0  0.12848708054E+02  0.23548244232E+02 -0.36187074276E+02  0.45045681809E+02  0.00000000000E+00 0. -1.
         11    1    3    3    0    0 -0.23470752018E+00 -0.28408742917E+01  0.45037949328E+01  0.53300866240E+01  0.51100000000E-03 0.  1.
        -11    1    3    3    0    0 -0.93171424866E+00 -0.94681209892E+01  0.11564619635E+02  0.14975107148E+02  0.51100000000E-03 0. -1.
         12    1    3    3    0    0 -0.11682286285E+02 -0.11239248951E+02  0.20118659707E+02  0.25837124419E+02  0.00000000000E+00 0. -1.
</event>
<event>
 7    1  0.2353206E-008  0.4614232E+02  0.7816164E-02  0.1320468E+00
        -11   -1    0    0    0    0  0.00000000000E+00  0.00000000000E+00  0.45593999997E+02  0.45594000000E+02  0.51100000000E-03 0. -1.
         11   -1    0    0    0    0 -0.00000000000E+00 -0.00000000000E+00 -0.45593999997E+02  0.45594000000E+02  0.51100000000E-03 0.  1.
    9900012    2    1    2    0    0 -0.32578988486E+02 -0.26758991994E+02 -0.15864406841E+02  0.46142317102E+02  0.99999939909E+01 0.  0.
         12    1    1    2    0    0  0.32578988486E+02  0.26758991994E+02  0.15864406841E+02  0.45045682898E+02  0.00000000000E+00 0. -1.
         11    1    3    3    0    0 -0.46555246423E+01 -0.70544754776E-01 -0.20163052201E+01  0.50738913330E+01  0.51100000000E-03 0. -1.
        -11    1    3    3    0    0 -0.67847087065E+01 -0.71595726924E+01 -0.29525054963E+01  0.10296069266E+02  0.51100000000E-03 0.  1.
         12    1    3    3    0    0 -0.21138755137E+02 -0.19528874547E+02 -0.10895596125E+02  0.30772356503E+02  0.00000000000E+00 0. -1.
</event>
<event>
 7    1  0.2353206E-008  0.4614231E+02  0.7816164E-02  0.1320468E+00
        -11   -1    0    0    0    0  0.00000000000E+00  0.00000000000E+00  0.45593999997E+02  0.45594000000E+02  0.51100000000E-03 0.  1.
         11   -1    0    0    0    0 -0.00000000000E+00 -0.00000000000E+00 -0.45593999997E+02  0.45594000000E+02  0.51100000000E-03 0. -1.
    9900012    2    1    2    0    0  0.28310226388E+01 -0.14975228233E+02  0.42389169584E+02  0.46142313771E+02  0.99999636149E+01 0.  0.
         12    1    1    2    0    0 -0.28310226388E+01  0.14975228233E+02 -0.42389169584E+02  0.45045686229E+02  0.00000000000E+00 0. -1.
         11    1    3    3    0    0  0.53122298255E+00 -0.32852136035E+01  0.12020285976E+02  0.12472453707E+02  0.51100000000E-03 0. -1.
        -11    1    3    3    0    0  0.41744314587E+01 -0.67945223877E+01  0.24669164512E+02  0.25926031136E+02  0.51100000000E-03 0.  1.
         12    1    3    3    0    0 -0.18746318024E+01 -0.48954922421E+01  0.56997190960E+01  0.77438289276E+01  0.00000000000E+00 0. -1.
</event>
<event>
 7    1  0.2353206E-008  0.4614232E+02  0.7816164E-02  0.1320468E+00
        -11   -1    0    0    0    0  0.00000000000E+00  0.00000000000E+00  0.45593999997E+02  0.45594000000E+02  0.51100000000E-03 0. -1.
         11   -1    0    0    0    0 -0.00000000000E+00 -0.00000000000E+00 -0.45593999997E+02  0.45594000000E+02  0.51100000000E-03 0.  1.
    9900012    2    1    2    0    0  0.29920412562E+02  0.31004531587E+02  0.13137786612E+02  0.46142317589E+02  0.99999984306E+01 0.  0.
         12    1    1    2    0    0 -0.29920412562E+02 -0.31004531587E+02 -0.13137786612E+02  0.45045682411E+02  0.00000000000E+00 0. -1.
         11    1    3    3    0    0  0.15168349427E+02  0.11540157417E+02  0.27329356124E+01  0.19254168247E+02  0.51100000000E-03 0. -1.
        -11    1    3    3    0    0  0.30759287544E+01  0.53573188817E+01  0.85856326834E+00  0.62369330965E+01  0.51100000000E-03 0.  1.
         12    1    3    3    0    0  0.11676134380E+02  0.14107055289E+02  0.95462877311E+01  0.20651216246E+02  0.00000000000E+00 0. -1.
</event>
<event>
 7    1  0.2353206E-008  0.4614232E+02  0.7816164E-02  0.1320468E+00
        -11   -1    0    0    0    0  0.00000000000E+00  0.00000000000E+00  0.45593999997E+02  0.45594000000E+02  0.51100000000E-03 0.  1.
         11   -1    0    0    0    0 -0.00000000000E+00 -0.00000000000E+00 -0.45593999997E+02  0.45594000000E+02  0.51100000000E-03 0. -1.
    9900012    2    1    2    0    0 -0.36744723680E+02  0.19924562626E+02  0.16791385141E+02  0.46142317309E+02  0.99999958787E+01 0.  0.
         12    1    1    2    0    0  0.36744723680E+02 -0.19924562626E+02 -0.16791385141E+02  0.45045682691E+02  0.00000000000E+00 0. -1.
         11    1    3    3    0    0 -0.15849253936E+02  0.85672966457E+01  0.97959987934E+01  0.20507535561E+02  0.51100000000E-03 0. -1.
        -11    1    3    3    0    0 -0.51024157184E+01  0.62373855358E+01  0.24002006705E+01  0.84083641694E+01  0.51100000000E-03 0.  1.
         12    1    3    3    0    0 -0.15793054025E+02  0.51198804443E+01  0.45951856773E+01  0.17226417579E+02  0.00000000000E+00 0. -1.
</event>
<event>
 7    1  0.2353206E-008  0.4614232E+02  0.7816164E-02  0.1320468E+00
        -11   -1    0    0    0    0  0.00000000000E+00  0.00000000000E+00  0.45593999997E+02  0.45594000000E+02  0.51100000000E-03 0.  1.
         11   -1    0    0    0    0 -0.00000000000E+00 -0.00000000000E+00 -0.45593999997E+02  0.45594000000E+02  0.51100000000E-03 0. -1.
    9900012    2    1    2    0    0  0.86072715702E+01 -0.80972843647E+01  0.43467943777E+02  0.46142320138E+02  0.10000021679E+02 0.  0.
         12    1    1    2    0    0 -0.86072715702E+01  0.80972843647E+01 -0.43467943777E+02  0.45045679862E+02  0.00000000000E+00 0. -1.
         11    1    3    3    0    0  0.19583279736E+01  0.14201324101E+01  0.30436022695E+01  0.38878451038E+01  0.51100000000E-03 0. -1.
        -11    1    3    3    0    0  0.33802711833E+01 -0.19930951260E+01  0.99671690065E+01  0.10711821494E+02  0.51100000000E-03 0.  1.
         12    1    3    3    0    0  0.32686724133E+01 -0.75243216489E+01  0.30457172501E+02  0.31542653541E+02  0.00000000000E+00 0. -1.
</event>
<event>
 7    1  0.2353206E-008  0.4614232E+02  0.7816164E-02  0.1320468E+00
        -11   -1    0    0    0    0  0.00000000000E+00  0.00000000000E+00  0.45593999997E+02  0.45594000000E+02  0.51100000000E-03 0.  1.
         11   -1    0    0    0    0 -0.00000000000E+00 -0.00000000000E+00 -0.45593999997E+02  0.45594000000E+02  0.51100000000E-03 0. -1.
    9900012    2    1    2    0    0 -0.24300363309E+02  0.29463778990E+02  0.23884964462E+02  0.46142318113E+02  0.10000003211E+02 0.  0.
         12    1    1    2    0    0  0.24300363309E+02 -0.29463778990E+02 -0.23884964462E+02  0.45045681887E+02  0.00000000000E+00 0. -1.
         11    1    3    3    0    0 -0.16402077988E+02  0.15263159833E+02  0.96031192926E+01  0.24376466332E+02  0.51100000000E-03 0. -1.
        -11    1    3    3    0    0 -0.18500617021E+00  0.18762959065E+01  0.16983929936E+01  0.25375682520E+01  0.51100000000E-03 0.  1.
         12    1    3    3    0    0 -0.77132791505E+01  0.12324323250E+02  0.12583452176E+02  0.19228283530E+02  0.00000000000E+00 0. -1.
</event>
<event>
 7    1  0.2353206E-008  0.4614232E+02  0.7816164E-02  0.1320468E+00
        -11   -1    0    0    0    0  0.00000000000E+00  0.00000000000E+00  0.45593999997E+02  0.45594000000E+02  0.51100000000E-03 0.  1.
         11   -1    0    0    0    0 -0.00000000000E+00 -0.00000000000E+00 -0.45593999997E+02  0.45594000000E+02  0.51100000000E-03 0. -1.
    9900012    2    1    2    0    0  0.30989046202E+02 -0.70344669990E+01  0.31926612981E+02  0.46142319553E+02  0.10000016337E+02 0.  0.
         12    1    1    2    0    0 -0.30989046202E+02  0.70344669990E+01 -0.31926612981E+02  0.45045680447E+02  0.00000000000E+00 0. -1.
         11    1    3    3    0    0  0.88170275198E+01 -0.35228085068E+01  0.15200142042E+02  0.17921899242E+02  0.51100000000E-03 0.  1.
        -11    1    3    3    0    0  0.85501306335E+01  0.35794897156E+00  0.58820509062E+01  0.10384189157E+02  0.51100000000E-03 0. -1.
        -12    1    3    3    0    0  0.13621888049E+02 -0.38696074638E+01  0.10844420033E+02  0.17836231155E+02  0.00000000000E+00 0.  1.
</event>
<event>
 7    1  0.2353206E-008  0.4614232E+02  0.7816164E-02  0.1320468E+00
        -11   -1    0    0    0    0  0.00000000000E+00  0.00000000000E+00  0.45593999997E+02  0.45594000000E+02  0.51100000000E-03 0.  1.
         11   -1    0    0    0    0 -0.00000000000E+00 -0.00000000000E+00 -0.45593999997E+02  0.45594000000E+02  0.51100000000E-03 0. -1.
    9900012    2    1    2    0    0 -0.33699809797E+02  0.17827230261E+02  0.23992206173E+02  0.46142320116E+02  0.10000021478E+02 0.  0.
         12    1    1    2    0    0  0.33699809797E+02 -0.17827230261E+02 -0.23992206173E+02  0.45045679884E+02  0.00000000000E+00 0. -1.
         11    1    3    3    0    0 -0.17250074921E+02  0.37595637876E+01  0.99707299699E+01  0.20275967574E+02  0.51100000000E-03 0. -1.
        -11    1    3    3    0    0 -0.47063162932E-01  0.27170837811E+00  0.46325233992E-01  0.27961879849E+00  0.51100000000E-03 0.  1.
        -12    1    3    3    0    0 -0.16402671712E+02  0.13795958095E+02  0.13975150970E+02  0.25586733744E+02  0.00000000000E+00 0.  1.
</event>
<event>
 7    1  0.2353206E-008  0.4614232E+02  0.7816164E-02  0.1320468E+00
        -11   -1    0    0    0    0  0.00000000000E+00  0.00000000000E+00  0.45593999997E+02  0.45594000000E+02  0.51100000000E-03 0.  1.
         11   -1    0    0    0    0 -0.00000000000E+00 -0.00000000000E+00 -0.45593999997E+02  0.45594000000E+02  0.51100000000E-03 0. -1.
    9900012    2    1    2    0    0 -0.85226920566E+01  0.23428016907E+02  0.37518062599E+02  0.46142320104E+02  0.10000021366E+02 0.  0.
         12    1    1    2    0    0  0.85226920566E+01 -0.23428016907E+02 -0.37518062599E+02  0.45045679896E+02  0.00000000000E+00 0. -1.
         11    1    3    3    0    0  0.21188439241E+00  0.14099004028E+01  0.42865253652E+00  0.14887771491E+01  0.51100000000E-03 0. -1.
        -11    1    3    3    0    0  0.31465026777E+00  0.77668057189E+01  0.91077750810E+01  0.11973881704E+02  0.51100000000E-03 0.  1.
        -12    1    3    3    0    0 -0.90492267168E+01  0.14251310785E+02  0.27981634981E+02  0.32679661251E+02  0.00000000000E+00 0.  1.
</event>
<event>
 7    1  0.2353206E-008  0.4614232E+02  0.7816164E-02  0.1320468E+00
        -11   -1    0    0    0    0  0.00000000000E+00  0.00000000000E+00  0.45593999997E+02  0.45594000000E+02  0.51100000000E-03 0.  1.
         11   -1    0    0    0    0 -0.00000000000E+00 -0.00000000000E+00 -0.45593999997E+02  0.45594000000E+02  0.51100000000E-03 0. -1.
    9900012    2    1    2    0    0  0.19635591895E+02  0.32412481969E+02  0.24351341603E+02  0.46142319915E+02  0.10000019642E+02 0.  0.
         12    1    1    2    0    0 -0.19635591895E+02 -0.32412481969E+02 -0.24351341603E+02  0.45045680085E+02  0.00000000000E+00 0. -1.
         11    1    3    3    0    0  0.59361988659E+00 -0.21222999068E+00  0.27640034948E-01  0.63102327322E+00  0.51100000000E-03 0. -1.
        -11    1    3    3    0    0 -0.23280286498E+00  0.22230574653E+01  0.27530314626E+01  0.35461759915E+01  0.51100000000E-03 0.  1.
        -12    1    3    3    0    0  0.19274774873E+02  0.30401654494E+02  0.21570670106E+02  0.41965120650E+02  0.00000000000E+00 0.  1.
</event>
<event>
 7    1  0.2353206E-008  0.4614232E+02  0.7816164E-02  0.1320468E+00
        -11   -1    0    0    0    0  0.00000000000E+00  0.00000000000E+00  0.45593999997E+02  0.45594000000E+02  0.51100000000E-03 0.  1.
         11   -1    0    0    0    0 -0.00000000000E+00 -0.00000000000E+00 -0.45593999997E+02  0.45594000000E+02  0.51100000000E-03 0. -1.
    9900012    2    1    2    0    0 -0.20212922224E+02  0.31910682581E+02  0.24540980923E+02  0.46142316164E+02  0.99999854320E+01 0.  0.
         12    1    1    2    0    0  0.20212922224E+02 -0.31910682581E+02 -0.24540980923E+02  0.45045683836E+02  0.00000000000E+00 0. -1.
         11    1    3    3    0    0 -0.13342566841E+01  0.65422995675E+01  0.28190763757E+01  0.72476973173E+01  0.51100000000E-03 0. -1.
        -11    1    3    3    0    0 -0.15898392225E+02  0.16590412501E+02  0.14929581320E+02  0.27402428012E+02  0.51100000000E-03 0.  1.
        -12    1    3    3    0    0 -0.29802733153E+01  0.87779705122E+01  0.67923232270E+01  0.11492190834E+02  0.00000000000E+00 0.  1.
</event>
<event>
 7    1  0.2353206E-008  0.4614232E+02  0.7816164E-02  0.1320468E+00
        -11   -1    0    0    0    0  0.00000000000E+00  0.00000000000E+00  0.45593999997E+02  0.45594000000E+02  0.51100000000E-03 0.  1.
         11   -1    0    0    0    0 -0.00000000000E+00 -0.00000000000E+00 -0.45593999997E+02  0.45594000000E+02  0.51100000000E-03 0. -1.
    9900012    2    1    2    0    0 -0.14318843141E+02  0.32570979501E+02  0.27626354971E+02  0.46142318037E+02  0.10000002516E+02 0.  0.
         12    1    1    2    0    0  0.14318843141E+02 -0.32570979501E+02 -0.27626354971E+02  0.45045681963E+02  0.00000000000E+00 0. -1.
         11    1    3    3    0    0 -0.73791941617E+01  0.87353190137E+01  0.92543130847E+01  0.14710561365E+02  0.51100000000E-03 0. -1.
        -11    1    3    3    0    0 -0.14324476790E+01  0.43947031180E+01  0.87789674182E+00  0.47048937075E+01  0.51100000000E-03 0.  1.
        -12    1    3    3    0    0 -0.55072013007E+01  0.19440957369E+02  0.17494145144E+02  0.26726862964E+02  0.00000000000E+00 0.  1.
</event>
<event>
 7    1  0.2353206E-008  0.4614232E+02  0.7816164E-02  0.1320468E+00
        -11   -1    0    0    0    0  0.00000000000E+00  0.00000000000E+00  0.45593999997E+02  0.45594000000E+02  0.51100000000E-03 0.  1.
         11   -1    0    0    0    0 -0.00000000000E+00 -0.00000000000E+00 -0.45593999997E+02  0.45594000000E+02  0.51100000000E-03 0. -1.
    9900012    2    1    2    0    0  0.13324224687E+01  0.54513557552E+01  0.44694752399E+02  0.46142317397E+02  0.99999966763E+01 0.  0.
         12    1    1    2    0    0 -0.13324224687E+01 -0.54513557552E+01 -0.44694752399E+02  0.45045682603E+02  0.00000000000E+00 0. -1.
         11    1    3    3    0    0  0.19751898638E+00  0.27614016195E+01  0.26922724695E+02  0.27064690242E+02  0.51100000000E-03 0. -1.
        -11    1    3    3    0    0  0.25989390114E+01  0.26500695907E+01  0.17041348774E+02  0.17440897944E+02  0.51100000000E-03 0.  1.
         12    1    3    3    0    0 -0.14640355292E+01  0.39884544957E-01  0.73067893053E+00  0.16367292101E+01  0.00000000000E+00 0. -1.
</event>
<event>
 7    1  0.2353206E-008  0.4614232E+02  0.7816164E-02  0.1320468E+00
        -11   -1    0    0    0    0  0.00000000000E+00  0.00000000000E+00  0.45593999997E+02  0.45594000000E+02  0.51100000000E-03 0.  1.
         11   -1    0    0    0    0 -0.00000000000E+00 -0.00000000000E+00 -0.45593999997E+02  0.45594000000E+02  0.51100000000E-03 0. -1.
    9900012    2    1    2    0    0 -0.31801200385E+02  0.22422714963E+01  0.31824035958E+02  0.46142318831E+02  0.10000009753E+02 0.  0.
         12    1    1    2    0    0  0.31801200385E+02 -0.22422714963E+01 -0.31824035958E+02  0.45045681169E+02  0.00000000000E+00 0. -1.
         11    1    3    3    0    0 -0.45033667631E+01  0.63558451349E+00  0.74036907621E+01  0.86890112808E+01  0.51100000000E-03 0. -1.
        -11    1    3    3    0    0 -0.21194499593E+02  0.37427612296E+01  0.21273910316E+02  0.30262094029E+02  0.51100000000E-03 0.  1.
         12    1    3    3    0    0 -0.61033340284E+01 -0.21360742468E+01  0.31464348799E+01  0.71912135209E+01  0.00000000000E+00 0. -1.
</event>
<event>
 7    1  0.2353206E-008  0.4614232E+02  0.7816164E-02  0.1320468E+00
        -11   -1    0    0    0    0  0.00000000000E+00  0.00000000000E+00  0.45593999997E+02  0.45594000000E+02  0.51100000000E-03 0.  1.
         11   -1    0    0    0    0 -0.00000000000E+00 -0.00000000000E+00 -0.45593999997E+02  0.45594000000E+02  0.51100000000E-03 0. -1.
    9900012    2    1    2    0    0 -0.15745363706E+02 -0.42430005333E+01  0.41990403571E+02  0.46142317367E+02  0.99999964091E+01 0.  0.
         12    1    1    2    0    0  0.15745363706E+02  0.42430005333E+01 -0.41990403571E+02  0.45045682633E+02  0.00000000000E+00 0. -1.
         11    1    3    3    0    0 -0.48056725582E+01  0.50219166530E+00  0.10099740419E+02  0.11196045820E+02  0.51100000000E-03 0. -1.
        -11    1    3    3    0    0 -0.48999038038E+00 -0.30167253778E+01  0.12318601971E+02  0.12692071437E+02  0.51100000000E-03 0.  1.
         12    1    3    3    0    0 -0.10449700767E+02 -0.17284668208E+01  0.19572061181E+02  0.22254200111E+02  0.00000000000E+00 0. -1.
</event>
<event>
 7    1  0.2353206E-008  0.4614232E+02  0.7816164E-02  0.1320468E+00
        -11   -1    0    0    0    0  0.00000000000E+00  0.00000000000E+00  0.45593999997E+02  0.45594000000E+02  0.51100000000E-03 0. -1.
         11   -1    0    0    0    0 -0.00000000000E+00 -0.00000000000E+00 -0.45593999997E+02  0.45594000000E+02  0.51100000000E-03 0.  1.
    9900012    2    1    2    0    0  0.14604769058E+02 -0.29305046621E+02 -0.30935874175E+02  0.46142319322E+02  0.10000014236E+02 0.  0.
         12    1    1    2    0    0 -0.14604769058E+02  0.29305046621E+02  0.30935874175E+02  0.45045680678E+02  0.00000000000E+00 0. -1.
         11    1    3    3    0    0  0.31525642973E+00 -0.20174104677E+01 -0.95775216222E+00  0.22553538696E+01  0.51100000000E-03 0. -1.
        -11    1    3    3    0    0  0.86907214926E+01 -0.97141435419E+01 -0.84276618858E+01  0.15521556299E+02  0.51100000000E-03 0.  1.
        -12    1    3    3    0    0  0.55987911356E+01 -0.17573492612E+02 -0.21550460127E+02  0.28365409154E+02  0.00000000000E+00 0.  1.
</event>
<event>
 7    1  0.2353206E-008  0.4614232E+02  0.7816164E-02  0.1320468E+00
        -11   -1    0    0    0    0  0.00000000000E+00  0.00000000000E+00  0.45593999997E+02  0.45594000000E+02  0.51100000000E-03 0.  1.
         11   -1    0    0    0    0 -0.00000000000E+00 -0.00000000000E+00 -0.45593999997E+02  0.45594000000E+02  0.51100000000E-03 0. -1.
    9900012    2    1    2    0    0 -0.35518005037E+02 -0.62877087166E+01 -0.26982392364E+02  0.46142318072E+02  0.10000002834E+02 0.  0.
         12    1    1    2    0    0  0.35518005037E+02  0.62877087166E+01  0.26982392364E+02  0.45045681928E+02  0.00000000000E+00 0. -1.
         11    1    3    3    0    0 -0.34143023778E+01 -0.15779248599E+01 -0.29043942786E+01  0.47521378323E+01  0.51100000000E-03 0.  1.
        -11    1    3    3    0    0 -0.20595243227E+02  0.87288993234E+00 -0.12312268540E+02  0.24010787935E+02  0.51100000000E-03 0. -1.
         12    1    3    3    0    0 -0.11508459432E+02 -0.55826737890E+01 -0.11765729546E+02  0.17379392305E+02  0.00000000000E+00 0. -1.
</event>
<event>
 7    1  0.2353206E-008  0.4614232E+02  0.7816164E-02  0.1320468E+00
        -11   -1    0    0    0    0  0.00000000000E+00  0.00000000000E+00  0.45593999997E+02  0.45594000000E+02  0.51100000000E-03 0. -1.
         11   -1    0    0    0    0 -0.00000000000E+00 -0.00000000000E+00 -0.45593999997E+02  0.45594000000E+02  0.51100000000E-03 0.  1.
    9900012    2    1    2    0    0  0.11740279068E+02 -0.14931508876E+02 -0.40845187789E+02  0.46142317905E+02  0.10000001311E+02 0.  0.
         12    1    1    2    0    0 -0.11740279068E+02  0.14931508876E+02  0.40845187789E+02  0.45045682095E+02  0.00000000000E+00 0. -1.
         11    1    3    3    0    0 -0.10839861446E+00 -0.38223299897E+00  0.16253712512E+00  0.42926786892E+00  0.51100000000E-03 0. -1.
        -11    1    3    3    0    0  0.56294368444E+01 -0.84651768233E+01 -0.30039750483E+02  0.31713347146E+02  0.51100000000E-03 0.  1.
         12    1    3    3    0    0  0.62192408385E+01 -0.60840990539E+01 -0.10967974431E+02  0.13999702890E+02  0.00000000000E+00 0. -1.
</event>
<event>
 7    1  0.2353206E-008  0.4614232E+02  0.7816164E-02  0.1320468E+00
        -11   -1    0    0    0    0  0.00000000000E+00  0.00000000000E+00  0.45593999997E+02  0.45594000000E+02  0.51100000000E-03 0.  1.
         11   -1    0    0    0    0 -0.00000000000E+00 -0.00000000000E+00 -0.45593999997E+02  0.45594000000E+02  0.51100000000E-03 0. -1.
    9900012    2    1    2    0    0 -0.21984825938E+02 -0.38632657702E+02 -0.73005953828E+01  0.46142317570E+02  0.99999982564E+01 0.  0.
         12    1    1    2    0    0  0.21984825938E+02  0.38632657702E+02  0.73005953828E+01  0.45045682430E+02  0.00000000000E+00 0. -1.
         11    1    3    3    0    0 -0.13098997863E+02 -0.27732384781E+02 -0.39418813902E+01  0.30922602410E+02  0.51100000000E-03 0. -1.
        -11    1    3    3    0    0 -0.87568817901E+01 -0.10597668390E+02 -0.20855985358E+01  0.13904793256E+02  0.51100000000E-03 0.  1.
         12    1    3    3    0    0 -0.12894628428E+00 -0.30260453204E+00 -0.12731154568E+01  0.13149219039E+01  0.00000000000E+00 0. -1.
</event>
<event>
 7    1  0.2353206E-008  0.4614232E+02  0.7816164E-02  0.1320468E+00
        -11   -1    0    0    0    0  0.00000000000E+00  0.00000000000E+00  0.45593999997E+02  0.45594000000E+02  0.51100000000E-03 0.  1.
         11   -1    0    0    0    0 -0.00000000000E+00 -0.00000000000E+00 -0.45593999997E+02  0.45594000000E+02  0.51100000000E-03 0. -1.
    9900012    2    1    2    0    0  0.11245510943E+02 -0.15086623122E+02  0.40927323220E+02  0.46142317637E+02  0.99999988677E+01 0.  0.
         12    1    1    2    0    0 -0.11245510943E+02  0.15086623122E+02 -0.40927323220E+02  0.45045682363E+02  0.00000000000E+00 0. -1.
         11    1    3    3    0    0  0.17344965972E+01  0.60297666300E+00  0.24047229442E+01  0.30256820721E+01  0.51100000000E-03 0. -1.
        -11    1    3    3    0    0  0.68470618715E+01 -0.55241390394E+01  0.19253006615E+02  0.21167820681E+02  0.51100000000E-03 0.  1.
         12    1    3    3    0    0  0.26639524744E+01 -0.10165460746E+02  0.19269593661E+02  0.21948814884E+02  0.00000000000E+00 0. -1.
</event>
<event>
 7    1  0.2353206E-008  0.4614232E+02  0.7816164E-02  0.1320468E+00
        -11   -1    0    0    0    0  0.00000000000E+00  0.00000000000E+00  0.45593999997E+02  0.45594000000E+02  0.51100000000E-03 0.  1.
         11   -1    0    0    0    0 -0.00000000000E+00 -0.00000000000E+00 -0.45593999997E+02  0.45594000000E+02  0.51100000000E-03 0. -1.
    9900012    2    1    2    0    0 -0.25521741198E+01 -0.34927785631E+01  0.44837488346E+02  0.46142318120E+02  0.10000003275E+02 0.  0.
         12    1    1    2    0    0  0.25521741198E+01  0.34927785631E+01 -0.44837488346E+02  0.45045681880E+02  0.00000000000E+00 0. -1.
         11    1    3    3    0    0  0.12821717916E-01  0.28267593818E+01  0.18752314816E+02  0.18964177921E+02  0.51100000000E-03 0. -1.
        -11    1    3    3    0    0 -0.78259975853E+00 -0.34193913721E+01  0.18957594289E+02  0.19279395251E+02  0.51100000000E-03 0.  1.
         12    1    3    3    0    0 -0.17823960792E+01 -0.29001465727E+01  0.71275792402E+01  0.78987449479E+01  0.00000000000E+00 0. -1.
</event>
<event>
 7    1  0.2353206E-008  0.4614232E+02  0.7816164E-02  0.1320468E+00
        -11   -1    0    0    0    0  0.00000000000E+00  0.00000000000E+00  0.45593999997E+02  0.45594000000E+02  0.51100000000E-03 0.  1.
         11   -1    0    0    0    0 -0.00000000000E+00 -0.00000000000E+00 -0.45593999997E+02  0.45594000000E+02  0.51100000000E-03 0. -1.
    9900012    2    1    2    0    0 -0.22521757839E+02 -0.27023173225E+02  0.28135956609E+02  0.46142317393E+02  0.99999966390E+01 0.  0.
         12    1    1    2    0    0  0.22521757839E+02  0.27023173225E+02 -0.28135956609E+02  0.45045682607E+02  0.00000000000E+00 0. -1.
         11    1    3    3    0    0 -0.14727039676E+02 -0.21006375576E+02  0.19927466088E+02  0.32484725910E+02  0.51100000000E-03 0. -1.
        -11    1    3    3    0    0 -0.82930227864E+01 -0.62308842658E+01  0.78227125459E+01  0.12992035156E+02  0.51100000000E-03 0.  1.
         12    1    3    3    0    0  0.49830462374E+00  0.21408661738E+00  0.38577797500E+00  0.66555632652E+00  0.00000000000E+00 0. -1.
</event>
<event>
 7    1  0.2353206E-008  0.4614232E+02  0.7816164E-02  0.1320468E+00
        -11   -1    0    0    0    0  0.00000000000E+00  0.00000000000E+00  0.45593999997E+02  0.45594000000E+02  0.51100000000E-03 0.  1.
         11   -1    0    0    0    0 -0.00000000000E+00 -0.00000000000E+00 -0.45593999997E+02  0.45594000000E+02  0.51100000000E-03 0. -1.
    9900012    2    1    2    0    0  0.19546728288E+02 -0.18289862769E+01  0.40542492704E+02  0.46142317718E+02  0.99999996073E+01 0.  0.
         12    1    1    2    0    0 -0.19546728288E+02  0.18289862769E+01 -0.40542492704E+02  0.45045682282E+02  0.00000000000E+00 0. -1.
         11    1    3    3    0    0  0.48715147483E+01 -0.39265208082E+01  0.10335247575E+02  0.12081662315E+02  0.51100000000E-03 0. -1.
        -11    1    3    3    0    0  0.64998872794E+01  0.28215401243E+01  0.10052268410E+02  0.12298687888E+02  0.51100000000E-03 0.  1.
        -12    1    3    3    0    0  0.81753262600E+01 -0.72400559304E+00  0.20154976720E+02  0.21761967515E+02  0.00000000000E+00 0.  1.
</event>
<event>
 7    1  0.2353206E-008  0.4614232E+02  0.7816164E-02  0.1320468E+00
        -11   -1    0    0    0    0  0.00000000000E+00  0.00000000000E+00  0.45593999997E+02  0.45594000000E+02  0.51100000000E-03 0.  1.
         11   -1    0    0    0    0 -0.00000000000E+00 -0.00000000000E+00 -0.45593999997E+02  0.45594000000E+02  0.51100000000E-03 0. -1.
    9900012    2    1    2    0    0  0.41671859690E+02  0.17030311742E+02 -0.15931439804E+01  0.46142317457E+02  0.99999972254E+01 0.  0.
         12    1    1    2    0    0 -0.41671859690E+02 -0.17030311742E+02  0.15931439804E+01  0.45045682543E+02  0.00000000000E+00 0. -1.
         11    1    3    3    0    0  0.31289598116E+01  0.21057936911E+01  0.62021169017E+00  0.38222270175E+01  0.51100000000E-03 0. -1.
        -11    1    3    3    0    0  0.96637546696E+01  0.70560166719E+01 -0.31509278582E+01  0.12373514950E+02  0.51100000000E-03 0.  1.
        -12    1    3    3    0    0  0.28879145209E+02  0.78685013795E+01  0.93757218769E+00  0.29946575489E+02  0.00000000000E+00 0.  1.
</event>
<event>
 7    1  0.2353206E-008  0.4614232E+02  0.7816164E-02  0.1320468E+00
        -11   -1    0    0    0    0  0.00000000000E+00  0.00000000000E+00  0.45593999997E+02  0.45594000000E+02  0.51100000000E-03 0.  1.
         11   -1    0    0    0    0 -0.00000000000E+00 -0.00000000000E+00 -0.45593999997E+02  0.45594000000E+02  0.51100000000E-03 0. -1.
    9900012    2    1    2    0    0 -0.29880758374E+02 -0.19833797564E+02  0.27255722546E+02  0.46142315874E+02  0.99999827941E+01 0.  0.
         12    1    1    2    0    0  0.29880758374E+02  0.19833797564E+02 -0.27255722546E+02  0.45045684126E+02  0.00000000000E+00 0. -1.
         11    1    3    3    0    0 -0.69194992660E+01 -0.48277101735E+01  0.91037145898E+01  0.12412246985E+02  0.51100000000E-03 0. -1.
        -11    1    3    3    0    0 -0.91816636407E+01 -0.60615390113E+01  0.11754903230E+02  0.16100402250E+02  0.51100000000E-03 0.  1.
         12    1    3    3    0    0 -0.13779595467E+02 -0.89445483795E+01  0.63971047269E+01  0.17629666640E+02  0.00000000000E+00 0. -1.
</event>
<event>
 7    1  0.2353206E-008  0.4614232E+02  0.7816164E-02  0.1320468E+00
        -11   -1    0    0    0    0  0.00000000000E+00  0.00000000000E+00  0.45593999997E+02  0.45594000000E+02  0.51100000000E-03 0.  1.
         11   -1    0    0    0    0 -0.00000000000E+00 -0.00000000000E+00 -0.45593999997E+02  0.45594000000E+02  0.51100000000E-03 0. -1.
    9900012    2    1    2    0    0 -0.29071922001E+02 -0.32449488043E+02  0.11444114972E+02  0.46142315517E+02  0.99999795354E+01 0.  0.
         12    1    1    2    0    0  0.29071922001E+02  0.32449488043E+02 -0.11444114972E+02  0.45045684483E+02  0.00000000000E+00 0. -1.
         11    1    3    3    0    0 -0.95872997792E+01 -0.93820498745E+01  0.34480718044E+01  0.13850212140E+02  0.51100000000E-03 0.  1.
        -11    1    3    3    0    0 -0.86782896018E+01 -0.47734959500E+01  0.39498280766E+01  0.10663025654E+02  0.51100000000E-03 0. -1.
         12    1    3    3    0    0 -0.10806332620E+02 -0.18293942218E+02  0.40462150907E+01  0.21629077723E+02  0.00000000000E+00 0. -1.
</event>
<event>
 7    1  0.2353206E-008  0.4614232E+02  0.7816164E-02  0.1320468E+00
        -11   -1    0    0    0    0  0.00000000000E+00  0.00000000000E+00  0.45593999997E+02  0.45594000000E+02  0.51100000000E-03 0.  1.
         11   -1    0    0    0    0 -0.00000000000E+00 -0.00000000000E+00 -0.45593999997E+02  0.45594000000E+02  0.51100000000E-03 0. -1.
    9900012    2    1    2    0    0 -0.40076086881E+02  0.79001932382E+01  0.18989671475E+02  0.46142318569E+02  0.10000007367E+02 0.  0.
         12    1    1    2    0    0  0.40076086881E+02 -0.79001932382E+01 -0.18989671475E+02  0.45045681431E+02  0.00000000000E+00 0. -1.
         11    1    3    3    0    0 -0.26624661944E+02  0.40495725575E+01  0.16620317674E+02  0.31646589412E+02  0.51100000000E-03 0.  1.
        -11    1    3    3    0    0 -0.76816060921E+01  0.34723502974E+01  0.21943247211E+01  0.87108753857E+01  0.51100000000E-03 0. -1.
        -12    1    3    3    0    0 -0.57698188443E+01  0.37827038341E+00  0.17502907915E+00  0.57848537715E+01  0.00000000000E+00 0.  1.
</event>
<event>
 7    1  0.2353206E-008  0.4614232E+02  0.7816164E-02  0.1320468E+00
        -11   -1    0    0    0    0  0.00000000000E+00  0.00000000000E+00  0.45593999997E+02  0.45594000000E+02  0.51100000000E-03 0. -1.
         11   -1    0    0    0    0 -0.00000000000E+00 -0.00000000000E+00 -0.45593999997E+02  0.45594000000E+02  0.51100000000E-03 0.  1.
    9900012    2    1    2    0    0 -0.26254456028E+02 -0.30013081345E+02 -0.20953089144E+02  0.46142318100E+02  0.10000003089E+02 0.  0.
         12    1    1    2    0    0  0.26254456028E+02  0.30013081345E+02  0.20953089144E+02  0.45045681900E+02  0.00000000000E+00 0. -1.
         11    1    3    3    0    0 -0.30668131381E+01 -0.13133536580E+01 -0.15414093998E+01  0.36750760338E+01  0.51100000000E-03 0. -1.
        -11    1    3    3    0    0 -0.34555085173E+01 -0.10952854713E+01 -0.61396259654E+00  0.36765662931E+01  0.51100000000E-03 0.  1.
        -12    1    3    3    0    0 -0.19732134372E+02 -0.27604442216E+02 -0.18797717148E+02  0.38790675773E+02  0.00000000000E+00 0.  1.
</event>
<event>
 7    1  0.2353206E-008  0.4614232E+02  0.7816164E-02  0.1320468E+00
        -11   -1    0    0    0    0  0.00000000000E+00  0.00000000000E+00  0.45593999997E+02  0.45594000000E+02  0.51100000000E-03 0.  1.
         11   -1    0    0    0    0 -0.00000000000E+00 -0.00000000000E+00 -0.45593999997E+02  0.45594000000E+02  0.51100000000E-03 0. -1.
    9900012    2    1    2    0    0 -0.32293346238E+02 -0.31305158439E+02 -0.24980714678E+01  0.46142317441E+02  0.99999970832E+01 0.  0.
         12    1    1    2    0    0  0.32293346238E+02  0.31305158439E+02  0.24980714678E+01  0.45045682559E+02  0.00000000000E+00 0. -1.
         11    1    3    3    0    0 -0.12680593631E+02 -0.79243040282E+01 -0.41281453314E+01  0.15512370331E+02  0.51100000000E-03 0. -1.
        -11    1    3    3    0    0 -0.14681552896E+02 -0.16057279465E+02  0.12005155395E+01  0.21790490060E+02  0.51100000000E-03 0.  1.
         12    1    3    3    0    0 -0.49311997118E+01 -0.73235749452E+01  0.42955832417E+00  0.88394570495E+01  0.00000000000E+00 0. -1.
</event>
<event>
 7    1  0.2353206E-008  0.4614231E+02  0.7816164E-02  0.1320468E+00
        -11   -1    0    0    0    0  0.00000000000E+00  0.00000000000E+00  0.45593999997E+02  0.45594000000E+02  0.51100000000E-03 0.  1.
         11   -1    0    0    0    0 -0.00000000000E+00 -0.00000000000E+00 -0.45593999997E+02  0.45594000000E+02  0.51100000000E-03 0. -1.
    9900012    2    1    2    0    0  0.44562861715E+00  0.25732076791E+01  0.44969921542E+02  0.46142314012E+02  0.99999658117E+01 0.  0.
         12    1    1    2    0    0 -0.44562861715E+00 -0.25732076791E+01 -0.44969921542E+02  0.45045685988E+02  0.00000000000E+00 0. -1.
         11    1    3    3    0    0  0.40639875833E+00 -0.11692528135E+01  0.14666878964E+01  0.19192409279E+01  0.51100000000E-03 0. -1.
        -11    1    3    3    0    0 -0.92826701885E+00  0.56932110906E+01  0.31849135591E+02  0.32367294764E+02  0.51100000000E-03 0.  1.
         12    1    3    3    0    0  0.96749687768E+00 -0.19507505979E+01  0.11654098055E+02  0.11855778320E+02  0.00000000000E+00 0. -1.
</event>
<event>
 7    1  0.2353206E-008  0.4614232E+02  0.7816164E-02  0.1320468E+00
        -11   -1    0    0    0    0  0.00000000000E+00  0.00000000000E+00  0.45593999997E+02  0.45594000000E+02  0.51100000000E-03 0.  1.
         11   -1    0    0    0    0 -0.00000000000E+00 -0.00000000000E+00 -0.45593999997E+02  0.45594000000E+02  0.51100000000E-03 0. -1.
    9900012    2    1    2    0    0 -0.34769382288E+02 -0.22324070697E+02  0.17939884565E+02  0.46142317240E+02  0.99999952446E+01 0.  0.
         12    1    1    2    0    0  0.34769382288E+02  0.22324070697E+02 -0.17939884565E+02  0.45045682760E+02  0.00000000000E+00 0. -1.
         11    1    3    3    0    0 -0.22543076387E+02 -0.18271085430E+02  0.11844668248E+02  0.31341969018E+02  0.51100000000E-03 0. -1.
        -11    1    3    3    0    0  0.51028411768E-01 -0.22508965785E+00  0.90211680240E+00  0.93117358165E+00  0.51100000000E-03 0.  1.
        -12    1    3    3    0    0 -0.12277334313E+02 -0.38278956088E+01  0.51930995150E+01  0.13869174640E+02  0.00000000000E+00 0.  1.
</event>
<event>
 7    1  0.2353206E-008  0.4614232E+02  0.7816164E-02  0.1320468E+00
        -11   -1    0    0    0    0  0.00000000000E+00  0.00000000000E+00  0.45593999997E+02  0.45594000000E+02  0.51100000000E-03 0.  1.
         11   -1    0    0    0    0 -0.00000000000E+00 -0.00000000000E+00 -0.45593999997E+02  0.45594000000E+02  0.51100000000E-03 0. -1.
    9900012    2    1    2    0    0 -0.58490328907E+01  0.20093446525E+02  0.39889292867E+02  0.46142318027E+02  0.10000002422E+02 0.  0.
         12    1    1    2    0    0  0.58490328907E+01 -0.20093446525E+02 -0.39889292867E+02  0.45045681973E+02  0.00000000000E+00 0. -1.
         11    1    3    3    0    0 -0.93132184737E+00  0.37261243133E+01  0.14473995031E+02  0.14974908855E+02  0.51100000000E-03 0. -1.
        -11    1    3    3    0    0 -0.22966552177E+01  0.17094257276E+01  0.23057070722E+01  0.36760096396E+01  0.51100000000E-03 0.  1.
        -12    1    3    3    0    0 -0.26210558256E+01  0.14657896485E+02  0.23109590763E+02  0.27491399532E+02  0.00000000000E+00 0.  1.
</event>
<event>
 7    1  0.2353206E-008  0.4614232E+02  0.7816164E-02  0.1320468E+00
        -11   -1    0    0    0    0  0.00000000000E+00  0.00000000000E+00  0.45593999997E+02  0.45594000000E+02  0.51100000000E-03 0.  1.
         11   -1    0    0    0    0 -0.00000000000E+00 -0.00000000000E+00 -0.45593999997E+02  0.45594000000E+02  0.51100000000E-03 0. -1.
    9900012    2    1    2    0    0  0.22179773459E+02  0.17972251360E+02  0.34844934013E+02  0.46142316566E+02  0.99999891048E+01 0.  0.
         12    1    1    2    0    0 -0.22179773459E+02 -0.17972251360E+02 -0.34844934013E+02  0.45045683434E+02  0.00000000000E+00 0. -1.
         11    1    3    3    0    0  0.72205786310E+01  0.82570885174E+01  0.96842879062E+01  0.14632214428E+02  0.51100000000E-03 0. -1.
        -11    1    3    3    0    0  0.92179495839E+01  0.78512477367E+01  0.12079499188E+02  0.17103420314E+02  0.51100000000E-03 0.  1.
         12    1    3    3    0    0  0.57412452442E+01  0.18639151064E+01  0.13081146919E+02  0.14406681824E+02  0.00000000000E+00 0. -1.
</event>
<event>
 7    1  0.2353206E-008  0.4614232E+02  0.7816164E-02  0.1320468E+00
        -11   -1    0    0    0    0  0.00000000000E+00  0.00000000000E+00  0.45593999997E+02  0.45594000000E+02  0.51100000000E-03 0.  1.
         11   -1    0    0    0    0 -0.00000000000E+00 -0.00000000000E+00 -0.45593999997E+02  0.45594000000E+02  0.51100000000E-03 0. -1.
    9900012    2    1    2    0    0 -0.39570017117E+02 -0.16484946924E+02  0.13841019279E+02  0.46142317139E+02  0.99999943286E+01 0.  0.
         12    1    1    2    0    0  0.39570017117E+02  0.16484946924E+02 -0.13841019279E+02  0.45045682861E+02  0.00000000000E+00 0. -1.
         11    1    3    3    0    0 -0.59568673203E+00  0.10925489718E+00 -0.77916051088E+00  0.98684886285E+00  0.51100000000E-03 0. -1.
        -11    1    3    3    0    0 -0.21887496148E+02 -0.76887428256E+01  0.10436771157E+02  0.25438267361E+02  0.51100000000E-03 0.  1.
         12    1    3    3    0    0 -0.17086834236E+02 -0.89054589957E+01  0.41834086331E+01  0.19717200915E+02  0.00000000000E+00 0. -1.
</event>
<event>
 7    1  0.2353206E-008  0.4614232E+02  0.7816164E-02  0.1320468E+00
        -11   -1    0    0    0    0  0.00000000000E+00  0.00000000000E+00  0.45593999997E+02  0.45594000000E+02  0.51100000000E-03 0. -1.
         11   -1    0    0    0    0 -0.00000000000E+00 -0.00000000000E+00 -0.45593999997E+02  0.45594000000E+02  0.51100000000E-03 0.  1.
    9900012    2    1    2    0    0 -0.38088574410E+02  0.81873509277E+01 -0.22612856454E+02  0.46142317712E+02  0.99999995505E+01 0.  0.
         12    1    1    2    0    0  0.38088574410E+02 -0.81873509277E+01  0.22612856454E+02  0.45045682288E+02  0.00000000000E+00 0. -1.
         11    1    3    3    0    0 -0.17503974468E+02  0.49027891628E+01 -0.69032467718E+01  0.19444312279E+02  0.51100000000E-03 0. -1.
        -11    1    3    3    0    0 -0.16743026553E+02  0.45106324078E+01 -0.14126547144E+02  0.22365913292E+02  0.51100000000E-03 0.  1.
        -12    1    3    3    0    0 -0.38415733887E+01 -0.12260706429E+01 -0.15830625383E+01  0.43320921415E+01  0.00000000000E+00 0.  1.
</event>
<event>
 7    1  0.2353206E-008  0.4614232E+02  0.7816164E-02  0.1320468E+00
        -11   -1    0    0    0    0  0.00000000000E+00  0.00000000000E+00  0.45593999997E+02  0.45594000000E+02  0.51100000000E-03 0. -1.
         11   -1    0    0    0    0 -0.00000000000E+00 -0.00000000000E+00 -0.45593999997E+02  0.45594000000E+02  0.51100000000E-03 0.  1.
    9900012    2    1    2    0    0 -0.18974629812E+01 -0.32346068797E+02 -0.31292890128E+02  0.46142317577E+02  0.99999983203E+01 0.  0.
         12    1    1    2    0    0  0.18974629812E+01  0.32346068797E+02  0.31292890128E+02  0.45045682423E+02  0.00000000000E+00 0. -1.
         11    1    3    3    0    0 -0.86660151620E+00 -0.84281133017E+00  0.35844909814E+00  0.12608787187E+01  0.51100000000E-03 0. -1.
        -11    1    3    3    0    0 -0.15040559891E+00 -0.71768966474E+01 -0.99567114145E+01  0.12274631147E+02  0.51100000000E-03 0.  1.
        -12    1    3    3    0    0 -0.88045586607E+00 -0.24326360820E+02 -0.21694627812E+02  0.32606807712E+02  0.00000000000E+00 0.  1.
</event>
<event>
 7    1  0.2353206E-008  0.4614232E+02  0.7816164E-02  0.1320468E+00
        -11   -1    0    0    0    0  0.00000000000E+00  0.00000000000E+00  0.45593999997E+02  0.45594000000E+02  0.51100000000E-03 0.  1.
         11   -1    0    0    0    0 -0.00000000000E+00 -0.00000000000E+00 -0.45593999997E+02  0.45594000000E+02  0.51100000000E-03 0. -1.
    9900012    2    1    2    0    0  0.18700528699E+02  0.18207725751E+02  0.36713516872E+02  0.46142319056E+02  0.10000011805E+02 0.  0.
         12    1    1    2    0    0 -0.18700528699E+02 -0.18207725751E+02 -0.36713516872E+02  0.45045680944E+02  0.00000000000E+00 0. -1.
         11    1    3    3    0    0  0.61821750656E+01  0.58185961081E+01  0.15831507242E+02  0.17964185788E+02  0.51100000000E-03 0. -1.
        -11    1    3    3    0    0  0.87478378237E+01  0.76237936005E+01  0.18087758278E+02  0.21489855636E+02  0.51100000000E-03 0.  1.
         12    1    3    3    0    0  0.37705158097E+01  0.47653360422E+01  0.27942513517E+01  0.66882776320E+01  0.00000000000E+00 0. -1.
</event>
<event>
 7    1  0.2353206E-008  0.4614232E+02  0.7816164E-02  0.1320468E+00
        -11   -1    0    0    0    0  0.00000000000E+00  0.00000000000E+00  0.45593999997E+02  0.45594000000E+02  0.51100000000E-03 0.  1.
         11   -1    0    0    0    0 -0.00000000000E+00 -0.00000000000E+00 -0.45593999997E+02  0.45594000000E+02  0.51100000000E-03 0. -1.
    9900012    2    1    2    0    0  0.34140519131E+02  0.14583983152E+02  0.25511677157E+02  0.46142320047E+02  0.10000020842E+02 0.  0.
         12    1    1    2    0    0 -0.34140519131E+02 -0.14583983152E+02 -0.25511677157E+02  0.45045679953E+02  0.00000000000E+00 0. -1.
         11    1    3    3    0    0  0.24618083583E+02  0.66032740173E+01  0.14603884092E+02  0.29375614000E+02  0.51100000000E-03 0. -1.
        -11    1    3    3    0    0  0.36377488736E+01  0.14335188759E+01  0.37990614278E+01  0.54517025990E+01  0.51100000000E-03 0.  1.
         12    1    3    3    0    0  0.58846866745E+01  0.65471902585E+01  0.71087316369E+01  0.11315003448E+02  0.00000000000E+00 0. -1.
</event>
<event>
 7    1  0.2353206E-008  0.4614232E+02  0.7816164E-02  0.1320468E+00
        -11   -1    0    0    0    0  0.00000000000E+00  0.00000000000E+00  0.45593999997E+02  0.45594000000E+02  0.51100000000E-03 0.  1.
         11   -1    0    0    0    0 -0.00000000000E+00 -0.00000000000E+00 -0.45593999997E+02  0.45594000000E+02  0.51100000000E-03 0. -1.
    9900012    2    1    2    0    0 -0.58675762382E+01  0.10425425283E+02  0.43428050868E+02  0.46142317127E+02  0.99999942216E+01 0.  0.
         12    1    1    2    0    0  0.58675762382E+01 -0.10425425283E+02 -0.43428050868E+02  0.45045682873E+02  0.00000000000E+00 0. -1.
         11    1    3    3    0    0 -0.10676128894E+00 -0.65519450522E+00  0.57936605961E+01  0.58315676431E+01  0.51100000000E-03 0. -1.
        -11    1    3    3    0    0 -0.69542220023E+01  0.68476143453E+01  0.21960818376E+02  0.24031824106E+02  0.51100000000E-03 0.  1.
        -12    1    3    3    0    0  0.11934070530E+01  0.42330054430E+01  0.15673571896E+02  0.16278925378E+02  0.00000000000E+00 0.  1.
</event>
<event>
 7    1  0.2353206E-008  0.4614232E+02  0.7816164E-02  0.1320468E+00
        -11   -1    0    0    0    0  0.00000000000E+00  0.00000000000E+00  0.45593999997E+02  0.45594000000E+02  0.51100000000E-03 0.  1.
         11   -1    0    0    0    0 -0.00000000000E+00 -0.00000000000E+00 -0.45593999997E+02  0.45594000000E+02  0.51100000000E-03 0. -1.
    9900012    2    1    2    0    0  0.78352833267E+01 -0.55456032045E+01  0.44011000304E+02  0.46142317327E+02  0.99999960444E+01 0.  0.
         12    1    1    2    0    0 -0.78352833267E+01  0.55456032045E+01 -0.44011000304E+02  0.45045682673E+02  0.00000000000E+00 0. -1.
         11    1    3    3    0    0  0.51948803009E+00  0.22875915156E+01  0.52605144918E+01  0.57598572670E+01  0.51100000000E-03 0. -1.
        -11    1    3    3    0    0  0.72674844985E+01 -0.57940972620E+01  0.32838986472E+02  0.34128974886E+02  0.51100000000E-03 0.  1.
         12    1    3    3    0    0  0.48310798064E-01 -0.20390974582E+01  0.59114993397E+01  0.62534851739E+01  0.00000000000E+00 0. -1.
</event>
<event>
 7    1  0.2353206E-008  0.4614232E+02  0.7816164E-02  0.1320468E+00
        -11   -1    0    0    0    0  0.00000000000E+00  0.00000000000E+00  0.45593999997E+02  0.45594000000E+02  0.51100000000E-03 0. -1.
         11   -1    0    0    0    0 -0.00000000000E+00 -0.00000000000E+00 -0.45593999997E+02  0.45594000000E+02  0.51100000000E-03 0.  1.
    9900012    2    1    2    0    0 -0.36163664461E+02  0.24676895666E+02 -0.10599696610E+02  0.46142319017E+02  0.10000011455E+02 0.  0.
         12    1    1    2    0    0  0.36163664461E+02 -0.24676895666E+02  0.10599696610E+02  0.45045680983E+02  0.00000000000E+00 0. -1.
         11    1    3    3    0    0 -0.10759358570E+02  0.68781485446E+01 -0.49135378344E+00  0.12779442595E+02  0.51100000000E-03 0. -1.
        -11    1    3    3    0    0 -0.18895628242E+02  0.14212493586E+02 -0.10608313966E+02  0.25914784700E+02  0.51100000000E-03 0.  1.
        -12    1    3    3    0    0 -0.65086776492E+01  0.35862535355E+01  0.49997113957E+00  0.74480917222E+01  0.00000000000E+00 0.  1.
</event>
<event>
 7    1  0.2353206E-008  0.4614232E+02  0.7816164E-02  0.1320468E+00
        -11   -1    0    0    0    0  0.00000000000E+00  0.00000000000E+00  0.45593999997E+02  0.45594000000E+02  0.51100000000E-03 0. -1.
         11   -1    0    0    0    0 -0.00000000000E+00 -0.00000000000E+00 -0.45593999997E+02  0.45594000000E+02  0.51100000000E-03 0.  1.
    9900012    2    1    2    0    0  0.43485308746E+02 -0.25353800158E+01 -0.11476639997E+02  0.46142317697E+02  0.99999994136E+01 0.  0.
         12    1    1    2    0    0 -0.43485308746E+02  0.25353800158E+01  0.11476639997E+02  0.45045682303E+02  0.00000000000E+00 0. -1.
         11    1    3    3    0    0  0.50053605181E+01 -0.29404251292E+01 -0.36207407756E+01  0.68417466981E+01  0.51100000000E-03 0. -1.
        -11    1    3    3    0    0  0.16871717782E+02 -0.31472301614E+00 -0.29465977108E+01  0.17129983941E+02  0.51100000000E-03 0.  1.
         12    1    3    3    0    0  0.21608230446E+02  0.71976812948E+00 -0.49093015102E+01  0.22170587058E+02  0.00000000000E+00 0. -1.
</event>
<event>
 7    1  0.2353206E-008  0.4614232E+02  0.7816164E-02  0.1320468E+00
        -11   -1    0    0    0    0  0.00000000000E+00  0.00000000000E+00  0.45593999997E+02  0.45594000000E+02  0.51100000000E-03 0.  1.
         11   -1    0    0    0    0 -0.00000000000E+00 -0.00000000000E+00 -0.45593999997E+02  0.45594000000E+02  0.51100000000E-03 0. -1.
    9900012    2    1    2    0    0  0.25010996349E+02 -0.14639861583E+02  0.34485330134E+02  0.46142317854E+02  0.10000000848E+02 0.  0.
         12    1    1    2    0    0 -0.25010996349E+02  0.14639861583E+02 -0.34485330134E+02  0.45045682146E+02  0.00000000000E+00 0. -1.
         11    1    3    3    0    0  0.44152360141E+01 -0.67455042304E+01  0.70248794195E+01  0.10693225309E+02  0.51100000000E-03 0. -1.
        -11    1    3    3    0    0  0.56897719154E-01 -0.48100967027E+00  0.20635765029E+00  0.52648969058E+00  0.51100000000E-03 0.  1.
         12    1    3    3    0    0  0.20538862616E+02 -0.74133476823E+01  0.27254093064E+02  0.34922602855E+02  0.00000000000E+00 0. -1.
</event>
<event>
 7    1  0.2353206E-008  0.4614232E+02  0.7816164E-02  0.1320468E+00
        -11   -1    0    0    0    0  0.00000000000E+00  0.00000000000E+00  0.45593999997E+02  0.45594000000E+02  0.51100000000E-03 0. -1.
         11   -1    0    0    0    0 -0.00000000000E+00 -0.00000000000E+00 -0.45593999997E+02  0.45594000000E+02  0.51100000000E-03 0.  1.
    9900012    2    1    2    0    0 -0.12243766442E+02  0.40651632128E+02 -0.15054850737E+02  0.46142317165E+02  0.99999945623E+01 0.  0.
         12    1    1    2    0    0  0.12243766442E+02 -0.40651632128E+02  0.15054850737E+02  0.45045682835E+02  0.00000000000E+00 0. -1.
         11    1    3    3    0    0 -0.88580622807E+00  0.93485883034E+01 -0.28841687208E+01  0.98233998906E+01  0.51100000000E-03 0. -1.
        -11    1    3    3    0    0 -0.61422508251E+01  0.24761230312E+02 -0.11316331490E+02  0.27908871895E+02  0.51100000000E-03 0.  1.
        -12    1    3    3    0    0 -0.52157093892E+01  0.65418135126E+01 -0.85435052620E+00  0.84100453796E+01  0.00000000000E+00 0.  1.
</event>
<event>
 7    1  0.2353206E-008  0.4614232E+02  0.7816164E-02  0.1320468E+00
        -11   -1    0    0    0    0  0.00000000000E+00  0.00000000000E+00  0.45593999997E+02  0.45594000000E+02  0.51100000000E-03 0.  1.
         11   -1    0    0    0    0 -0.00000000000E+00 -0.00000000000E+00 -0.45593999997E+02  0.45594000000E+02  0.51100000000E-03 0. -1.
    9900012    2    1    2    0    0  0.42097778033E+02 -0.13402985701E+02 -0.87892336799E+01  0.46142316858E+02  0.99999917652E+01 0.  0.
         12    1    1    2    0    0 -0.42097778033E+02  0.13402985701E+02  0.87892336799E+01  0.45045683142E+02  0.00000000000E+00 0. -1.
         11    1    3    3    0    0  0.74012802614E+01 -0.32436300264E+01 -0.25967003513E+00  0.80850178753E+01  0.51100000000E-03 0. -1.
        -11    1    3    3    0    0  0.81817778082E+01 -0.51729031709E+01 -0.48533707843E+01  0.10828463582E+02  0.51100000000E-03 0.  1.
        -12    1    3    3    0    0  0.26514719964E+02 -0.49864525039E+01 -0.36761928604E+01  0.27228835401E+02  0.00000000000E+00 0.  1.
</event>
<event>
 7    1  0.2353206E-008  0.4614232E+02  0.7816164E-02  0.1320468E+00
        -11   -1    0    0    0    0  0.00000000000E+00  0.00000000000E+00  0.45593999997E+02  0.45594000000E+02  0.51100000000E-03 0. -1.
         11   -1    0    0    0    0 -0.00000000000E+00 -0.00000000000E+00 -0.45593999997E+02  0.45594000000E+02  0.51100000000E-03 0.  1.
    9900012    2    1    2    0    0  0.42163130896E+02 -0.69873841878E+01 -0.14232370182E+02  0.46142317568E+02  0.99999982432E+01 0.  0.
         12    1    1    2    0    0 -0.42163130896E+02  0.69873841878E+01  0.14232370182E+02  0.45045682432E+02  0.00000000000E+00 0. -1.
         11    1    3    3    0    0  0.11347819479E+02 -0.10107225458E+01 -0.11518484471E+01  0.11450821896E+02  0.51100000000E-03 0. -1.
        -11    1    3    3    0    0  0.22648842057E+02 -0.33097248493E+01 -0.62815180100E+01  0.23735665018E+02  0.51100000000E-03 0.  1.
         12    1    3    3    0    0  0.81664693603E+01 -0.26669367926E+01 -0.67990037253E+01  0.10955830654E+02  0.00000000000E+00 0. -1.
</event>
<event>
 7    1  0.2353206E-008  0.4614232E+02  0.7816164E-02  0.1320468E+00
        -11   -1    0    0    0    0  0.00000000000E+00  0.00000000000E+00  0.45593999997E+02  0.45594000000E+02  0.51100000000E-03 0. -1.
         11   -1    0    0    0    0 -0.00000000000E+00 -0.00000000000E+00 -0.45593999997E+02  0.45594000000E+02  0.51100000000E-03 0.  1.
    9900012    2    1    2    0    0 -0.34404829559E+02  0.22881067893E+01 -0.28985958601E+02  0.46142317346E+02  0.99999962183E+01 0.  0.
         12    1    1    2    0    0  0.34404829559E+02 -0.22881067893E+01  0.28985958601E+02  0.45045682654E+02  0.00000000000E+00 0. -1.
         11    1    3    3    0    0 -0.80470784852E+01  0.24187553723E+01 -0.37336007219E+01  0.91948694558E+01  0.51100000000E-03 0. -1.
        -11    1    3    3    0    0 -0.14556748434E+02  0.21921167678E+01 -0.16233679583E+02  0.21914302497E+02  0.51100000000E-03 0.  1.
         12    1    3    3    0    0 -0.11801002641E+02 -0.23227653509E+01 -0.90186782968E+01  0.15033145393E+02  0.00000000000E+00 0. -1.
</event>
<event>
 7    1  0.2353206E-008  0.4614232E+02  0.7816164E-02  0.1320468E+00
        -11   -1    0    0    0    0  0.00000000000E+00  0.00000000000E+00  0.45593999997E+02  0.45594000000E+02  0.51100000000E-03 0.  1.
         11   -1    0    0    0    0 -0.00000000000E+00 -0.00000000000E+00 -0.45593999997E+02  0.45594000000E+02  0.51100000000E-03 0. -1.
    9900012    2    1    2    0    0 -0.20018603504E+01  0.36239696916E+02  0.26679401083E+02  0.46142317415E+02  0.99999968445E+01 0.  0.
         12    1    1    2    0    0  0.20018603504E+01 -0.36239696916E+02 -0.26679401083E+02  0.45045682585E+02  0.00000000000E+00 0. -1.
         11    1    3    3    0    0 -0.31769436401E+01  0.51260644533E+01  0.35908267816E+01  0.70187993922E+01  0.51100000000E-03 0. -1.
        -11    1    3    3    0    0 -0.61956296342E+00  0.27326848581E+02  0.20806727703E+02  0.34352007650E+02  0.51100000000E-03 0.  1.
        -12    1    3    3    0    0  0.17946462531E+01  0.37867838812E+01  0.22818465987E+01  0.47715103727E+01  0.00000000000E+00 0.  1.
</event>
<event>
 7    1  0.2353206E-008  0.4614232E+02  0.7816164E-02  0.1320468E+00
        -11   -1    0    0    0    0  0.00000000000E+00  0.00000000000E+00  0.45593999997E+02  0.45594000000E+02  0.51100000000E-03 0.  1.
         11   -1    0    0    0    0 -0.00000000000E+00 -0.00000000000E+00 -0.45593999997E+02  0.45594000000E+02  0.51100000000E-03 0. -1.
    9900012    2    1    2    0    0 -0.29106074112E+02 -0.31013917974E+02 -0.14835321606E+02  0.46142318459E+02  0.10000006367E+02 0.  0.
         12    1    1    2    0    0  0.29106074112E+02  0.31013917974E+02  0.14835321606E+02  0.45045681541E+02  0.00000000000E+00 0. -1.
         11    1    3    3    0    0 -0.17117914159E+02 -0.15101144118E+02 -0.75918288731E+01  0.24056255002E+02  0.51100000000E-03 0. -1.
        -11    1    3    3    0    0 -0.10617784022E+02 -0.10222597094E+02 -0.67538496817E+01  0.16212751607E+02  0.51100000000E-03 0.  1.
         12    1    3    3    0    0 -0.13703759314E+01 -0.56901767620E+01 -0.48964305117E+00  0.58733118505E+01  0.00000000000E+00 0. -1.
</event>
<event>
 7    1  0.2353206E-008  0.4614232E+02  0.7816164E-02  0.1320468E+00
        -11   -1    0    0    0    0  0.00000000000E+00  0.00000000000E+00  0.45593999997E+02  0.45594000000E+02  0.51100000000E-03 0.  1.
         11   -1    0    0    0    0 -0.00000000000E+00 -0.00000000000E+00 -0.45593999997E+02  0.45594000000E+02  0.51100000000E-03 0. -1.
    9900012    2    1    2    0    0  0.34375473849E+02 -0.21563160632E+02  0.19556851288E+02  0.46142317287E+02  0.99999956729E+01 0.  0.
         12    1    1    2    0    0 -0.34375473849E+02  0.21563160632E+02 -0.19556851288E+02  0.45045682713E+02  0.00000000000E+00 0. -1.
         11    1    3    3    0    0 -0.30344454809E+00 -0.55537123342E+00  0.42550804904E+00  0.76260944238E+00  0.51100000000E-03 0. -1.
        -11    1    3    3    0    0  0.70489377354E+01 -0.11959622996E+01  0.31888245171E+01  0.78285663490E+01  0.51100000000E-03 0.  1.
        -12    1    3    3    0    0  0.27629980662E+02 -0.19811827099E+02  0.15942518722E+02  0.37551141495E+02  0.00000000000E+00 0.  1.
</event>
<event>
 7    1  0.2353206E-008  0.4614232E+02  0.7816164E-02  0.1320468E+00
        -11   -1    0    0    0    0  0.00000000000E+00  0.00000000000E+00  0.45593999997E+02  0.45594000000E+02  0.51100000000E-03 0.  1.
         11   -1    0    0    0    0 -0.00000000000E+00 -0.00000000000E+00 -0.45593999997E+02  0.45594000000E+02  0.51100000000E-03 0. -1.
    9900012    2    1    2    0    0 -0.26647899093E+02 -0.22044879743E+02  0.28862193933E+02  0.46142317769E+02  0.10000000076E+02 0.  0.
         12    1    1    2    0    0  0.26647899093E+02  0.22044879743E+02 -0.28862193933E+02  0.45045682231E+02  0.00000000000E+00 0. -1.
         11    1    3    3    0    0  0.55907701582E+00 -0.86485203859E-01  0.19086622301E+00  0.59705692887E+00  0.51100000000E-03 0. -1.
        -11    1    3    3    0    0 -0.13283414706E+02 -0.12186812856E+02  0.17941898822E+02  0.25433820937E+02  0.51100000000E-03 0.  1.
         12    1    3    3    0    0 -0.13923561403E+02 -0.97715816829E+01  0.10729428888E+02  0.20111439904E+02  0.00000000000E+00 0. -1.
</event>
<event>
 7    1  0.2353206E-008  0.4614232E+02  0.7816164E-02  0.1320468E+00
        -11   -1    0    0    0    0  0.00000000000E+00  0.00000000000E+00  0.45593999997E+02  0.45594000000E+02  0.51100000000E-03 0.  1.
         11   -1    0    0    0    0 -0.00000000000E+00 -0.00000000000E+00 -0.45593999997E+02  0.45594000000E+02  0.51100000000E-03 0. -1.
    9900012    2    1    2    0    0 -0.87223846782E+01  0.31710716904E+02  0.30780902786E+02  0.46142317217E+02  0.99999950419E+01 0.  0.
         12    1    1    2    0    0  0.87223846782E+01 -0.31710716904E+02 -0.30780902786E+02  0.45045682783E+02  0.00000000000E+00 0. -1.
         11    1    3    3    0    0 -0.63071322731E+00  0.35436204279E+01  0.76203718194E+01  0.84276397549E+01  0.51100000000E-03 0. -1.
        -11    1    3    3    0    0 -0.38761267706E+01  0.21683044098E+02  0.17437650289E+02  0.28093600837E+02  0.51100000000E-03 0.  1.
         12    1    3    3    0    0 -0.42155446803E+01  0.64840523772E+01  0.57228806783E+01  0.96210766258E+01  0.00000000000E+00 0. -1.
</event>
<event>
 7    1  0.2353206E-008  0.4614233E+02  0.7816164E-02  0.1320468E+00
        -11   -1    0    0    0    0  0.00000000000E+00  0.00000000000E+00  0.45593999997E+02  0.45594000000E+02  0.51100000000E-03 0.  1.
         11   -1    0    0    0    0 -0.00000000000E+00 -0.00000000000E+00 -0.45593999997E+02  0.45594000000E+02  0.51100000000E-03 0. -1.
    9900012    2    1    2    0    0  0.26508840995E+02 -0.31554741685E+02  0.18184949556E+02  0.46142325801E+02  0.10000073316E+02 0.  0.
         12    1    1    2    0    0 -0.26508840995E+02  0.31554741685E+02 -0.18184949556E+02  0.45045674199E+02  0.00000000000E+00 0. -1.
         11    1    3    3    0    0  0.24944040047E+01 -0.29679425669E+01  0.39114856400E+01  0.55073091971E+01  0.51100000000E-03 0. -1.
        -11    1    3    3    0    0  0.18174938378E+01 -0.38012216130E+01  0.40083729967E+01  0.58154642071E+01  0.51100000000E-03 0.  1.
        -12    1    3    3    0    0  0.22196943152E+02 -0.24785577505E+02  0.10265090919E+02  0.34819552397E+02  0.00000000000E+00 0.  1.
</event>
<event>
 7    1  0.2353206E-008  0.4614232E+02  0.7816164E-02  0.1320468E+00
        -11   -1    0    0    0    0  0.00000000000E+00  0.00000000000E+00  0.45593999997E+02  0.45594000000E+02  0.51100000000E-03 0. -1.
         11   -1    0    0    0    0 -0.00000000000E+00 -0.00000000000E+00 -0.45593999997E+02  0.45594000000E+02  0.51100000000E-03 0.  1.
    9900012    2    1    2    0    0 -0.10121848840E+00 -0.35057814807E+02 -0.28285205115E+02  0.46142318158E+02  0.10000003616E+02 0.  0.
         12    1    1    2    0    0  0.10121848840E+00  0.35057814807E+02  0.28285205115E+02  0.45045681842E+02  0.00000000000E+00 0. -1.
         11    1    3    3    0    0  0.96646468589E-01 -0.19868776009E+02 -0.17638722065E+02  0.26568818509E+02  0.51100000000E-03 0.  1.
        -11    1    3    3    0    0  0.17802984471E+00 -0.49198749494E+01 -0.72249388745E+01  0.87428031057E+01  0.51100000000E-03 0. -1.
         12    1    3    3    0    0 -0.37589480170E+00 -0.10269163849E+02 -0.34215441760E+01  0.10830696543E+02  0.00000000000E+00 0. -1.
</event>
<event>
 7    1  0.2353206E-008  0.4614232E+02  0.7816164E-02  0.1320468E+00
        -11   -1    0    0    0    0  0.00000000000E+00  0.00000000000E+00  0.45593999997E+02  0.45594000000E+02  0.51100000000E-03 0.  1.
         11   -1    0    0    0    0 -0.00000000000E+00 -0.00000000000E+00 -0.45593999997E+02  0.45594000000E+02  0.51100000000E-03 0. -1.
    9900012    2    1    2    0    0  0.41752423072E+02  0.15703802741E+02  0.62641217877E+01  0.46142317913E+02  0.10000001385E+02 0.  0.
         12    1    1    2    0    0 -0.41752423072E+02 -0.15703802741E+02 -0.62641217877E+01  0.45045682087E+02  0.00000000000E+00 0. -1.
         11    1    3    3    0    0  0.23670563761E-01 -0.18316843938E+00  0.93044278178E-01  0.20680539547E+00  0.51100000000E-03 0. -1.
        -11    1    3    3    0    0  0.24931946460E+02  0.11649812133E+02 -0.78804628863E-01  0.27519561905E+02  0.51100000000E-03 0.  1.
         12    1    3    3    0    0  0.16796806048E+02  0.42371590472E+01  0.62498821383E+01  0.18415950613E+02  0.00000000000E+00 0. -1.
</event>
<event>
 7    1  0.2353206E-008  0.4614232E+02  0.7816164E-02  0.1320468E+00
        -11   -1    0    0    0    0  0.00000000000E+00  0.00000000000E+00  0.45593999997E+02  0.45594000000E+02  0.51100000000E-03 0.  1.
         11   -1    0    0    0    0 -0.00000000000E+00 -0.00000000000E+00 -0.45593999997E+02  0.45594000000E+02  0.51100000000E-03 0. -1.
    9900012    2    1    2    0    0  0.17017645337E+02  0.33629264752E+02  0.24669532586E+02  0.46142317204E+02  0.99999949193E+01 0.  0.
         12    1    1    2    0    0 -0.17017645337E+02 -0.33629264752E+02 -0.24669532586E+02  0.45045682796E+02  0.00000000000E+00 0. -1.
         11    1    3    3    0    0  0.36445218864E+01  0.40768355506E+01  0.53791083153E+01  0.76705889224E+01  0.51100000000E-03 0. -1.
        -11    1    3    3    0    0  0.12396300504E+02  0.26448280631E+02  0.19640970019E+02  0.35198686312E+02  0.51100000000E-03 0.  1.
         12    1    3    3    0    0  0.97682294672E+00  0.31041485695E+01 -0.35054574871E+00  0.32730419693E+01  0.00000000000E+00 0. -1.
</event>
<event>
 7    1  0.2353206E-008  0.4614231E+02  0.7816164E-02  0.1320468E+00
        -11   -1    0    0    0    0  0.00000000000E+00  0.00000000000E+00  0.45593999997E+02  0.45594000000E+02  0.51100000000E-03 0.  1.
         11   -1    0    0    0    0 -0.00000000000E+00 -0.00000000000E+00 -0.45593999997E+02  0.45594000000E+02  0.51100000000E-03 0. -1.
    9900012    2    1    2    0    0 -0.47982693264E+01  0.54590160253E+01  0.44455478249E+02  0.46142314403E+02  0.99999693812E+01 0.  0.
         12    1    1    2    0    0  0.47982693264E+01 -0.54590160253E+01 -0.44455478249E+02  0.45045685597E+02  0.00000000000E+00 0. -1.
         11    1    3    3    0    0 -0.48404336853E+01  0.38285735950E+01  0.18381109199E+02  0.19389506174E+02  0.51100000000E-03 0. -1.
        -11    1    3    3    0    0 -0.35179409774E+00  0.73509847894E+00  0.25688252791E+02  0.25701176249E+02  0.51100000000E-03 0.  1.
         12    1    3    3    0    0  0.39395845659E+00  0.89534395140E+00  0.38611625992E+00  0.10516319808E+01  0.00000000000E+00 0. -1.
</event>
<event>
 7    1  0.2353206E-008  0.4614232E+02  0.7816164E-02  0.1320468E+00
        -11   -1    0    0    0    0  0.00000000000E+00  0.00000000000E+00  0.45593999997E+02  0.45594000000E+02  0.51100000000E-03 0. -1.
         11   -1    0    0    0    0 -0.00000000000E+00 -0.00000000000E+00 -0.45593999997E+02  0.45594000000E+02  0.51100000000E-03 0.  1.
    9900012    2    1    2    0    0 -0.34286335409E+02 -0.25704887037E+02 -0.13885949662E+02  0.46142316396E+02  0.99999875486E+01 0.  0.
         12    1    1    2    0    0  0.34286335409E+02  0.25704887037E+02  0.13885949662E+02  0.45045683604E+02  0.00000000000E+00 0. -1.
         11    1    3    3    0    0 -0.19261717612E+02 -0.11977962559E+02 -0.77582331093E+01  0.23972391071E+02  0.51100000000E-03 0. -1.
        -11    1    3    3    0    0 -0.16080101923E+01  0.50095054333E+00 -0.27164570293E-01  0.16844543332E+01  0.51100000000E-03 0.  1.
        -12    1    3    3    0    0 -0.13416607605E+02 -0.14227875022E+02 -0.61005519823E+01  0.20485470992E+02  0.00000000000E+00 0.  1.
</event>
<event>
 7    1  0.2353206E-008  0.4614232E+02  0.7816164E-02  0.1320468E+00
        -11   -1    0    0    0    0  0.00000000000E+00  0.00000000000E+00  0.45593999997E+02  0.45594000000E+02  0.51100000000E-03 0.  1.
         11   -1    0    0    0    0 -0.00000000000E+00 -0.00000000000E+00 -0.45593999997E+02  0.45594000000E+02  0.51100000000E-03 0. -1.
    9900012    2    1    2    0    0  0.27933815855E+02 -0.31512881045E+02  0.15992301808E+02  0.46142318109E+02  0.10000003169E+02 0.  0.
         12    1    1    2    0    0 -0.27933815855E+02  0.31512881045E+02 -0.15992301808E+02  0.45045681891E+02  0.00000000000E+00 0. -1.
         11    1    3    3    0    0  0.53904923579E+01 -0.77660107384E+01  0.18088285096E+01  0.96249774799E+01  0.51100000000E-03 0. -1.
        -11    1    3    3    0    0 -0.41138010281E+00 -0.15718388939E+01  0.13688429063E+01  0.21245334218E+01  0.51100000000E-03 0.  1.
        -12    1    3    3    0    0  0.22954703600E+02 -0.22175031412E+02  0.12814630392E+02  0.34392807207E+02  0.00000000000E+00 0.  1.
</event>
<event>
 7    1  0.2353206E-008  0.4614232E+02  0.7816164E-02  0.1320468E+00
        -11   -1    0    0    0    0  0.00000000000E+00  0.00000000000E+00  0.45593999997E+02  0.45594000000E+02  0.51100000000E-03 0.  1.
         11   -1    0    0    0    0 -0.00000000000E+00 -0.00000000000E+00 -0.45593999997E+02  0.45594000000E+02  0.51100000000E-03 0. -1.
    9900012    2    1    2    0    0  0.40217366620E+02  0.18356366039E+02  0.86441175811E+01  0.46142317402E+02  0.99999967244E+01 0.  0.
         12    1    1    2    0    0 -0.40217366620E+02 -0.18356366039E+02 -0.86441175811E+01  0.45045682598E+02  0.00000000000E+00 0. -1.
         11    1    3    3    0    0  0.48917577164E+01  0.33521231875E+01  0.39544377241E+01  0.71276645120E+01  0.51100000000E-03 0. -1.
        -11    1    3    3    0    0  0.25725290415E+01 -0.23610132443E+00  0.65296910488E+00  0.26645859750E+01  0.51100000000E-03 0.  1.
        -12    1    3    3    0    0  0.32753079862E+02  0.15240344176E+02  0.40367107521E+01  0.36350066915E+02  0.00000000000E+00 0.  1.
</event>
<event>
 7    1  0.2353206E-008  0.4614232E+02  0.7816164E-02  0.1320468E+00
        -11   -1    0    0    0    0  0.00000000000E+00  0.00000000000E+00  0.45593999997E+02  0.45594000000E+02  0.51100000000E-03 0.  1.
         11   -1    0    0    0    0 -0.00000000000E+00 -0.00000000000E+00 -0.45593999997E+02  0.45594000000E+02  0.51100000000E-03 0. -1.
    9900012    2    1    2    0    0 -0.35540905514E+01  0.43656787967E+02  0.10515074597E+02  0.46142317754E+02  0.99999999312E+01 0.  0.
         12    1    1    2    0    0  0.35540905514E+01 -0.43656787967E+02 -0.10515074597E+02  0.45045682246E+02  0.00000000000E+00 0. -1.
         11    1    3    3    0    0  0.19591255112E+01  0.24083494624E+02  0.33386120101E+01  0.24392605775E+02  0.51100000000E-03 0. -1.
        -11    1    3    3    0    0 -0.10411774962E+01  0.11396787247E+01  0.79749562056E+00  0.17375032950E+01  0.51100000000E-03 0.  1.
        -12    1    3    3    0    0 -0.44720385665E+01  0.18433614619E+02  0.63789669661E+01  0.20012208684E+02  0.00000000000E+00 0.  1.
</event>
<event>
 7    1  0.2353206E-008  0.4614232E+02  0.7816164E-02  0.1320468E+00
        -11   -1    0    0    0    0  0.00000000000E+00  0.00000000000E+00  0.45593999997E+02  0.45594000000E+02  0.51100000000E-03 0. -1.
         11   -1    0    0    0    0 -0.00000000000E+00 -0.00000000000E+00 -0.45593999997E+02  0.45594000000E+02  0.51100000000E-03 0.  1.
    9900012    2    1    2    0    0  0.35559588103E+02 -0.19562987961E+02 -0.19542739247E+02  0.46142318061E+02  0.10000002737E+02 0.  0.
         12    1    1    2    0    0 -0.35559588103E+02  0.19562987961E+02  0.19542739247E+02  0.45045681939E+02  0.00000000000E+00 0. -1.
         11    1    3    3    0    0 -0.62591043837E-02 -0.43720487492E+00  0.17024032193E-01  0.43758125855E+00  0.51100000000E-03 0. -1.
        -11    1    3    3    0    0  0.10754662387E+02 -0.45752194145E+01 -0.10038590675E+02  0.15406774443E+02  0.51100000000E-03 0.  1.
        -12    1    3    3    0    0  0.24811184821E+02 -0.14550563671E+02 -0.95211726045E+01  0.30297962359E+02  0.00000000000E+00 0.  1.
</event>
<event>
 7    1  0.2353206E-008  0.4614232E+02  0.7816164E-02  0.1320468E+00
        -11   -1    0    0    0    0  0.00000000000E+00  0.00000000000E+00  0.45593999997E+02  0.45594000000E+02  0.51100000000E-03 0.  1.
         11   -1    0    0    0    0 -0.00000000000E+00 -0.00000000000E+00 -0.45593999997E+02  0.45594000000E+02  0.51100000000E-03 0. -1.
    9900012    2    1    2    0    0  0.34068630531E+02 -0.27693917106E+02 -0.10074169466E+02  0.46142317395E+02  0.99999966574E+01 0.  0.
         12    1    1    2    0    0 -0.34068630531E+02  0.27693917106E+02  0.10074169466E+02  0.45045682605E+02  0.00000000000E+00 0. -1.
         11    1    3    3    0    0  0.13074454168E+02 -0.15080760356E+02 -0.50827009490E+01  0.20596226206E+02  0.51100000000E-03 0. -1.
        -11    1    3    3    0    0  0.55007889147E+01 -0.57725637347E+01 -0.28833199095E+01  0.84790745201E+01  0.51100000000E-03 0.  1.
        -12    1    3    3    0    0  0.15493387448E+02 -0.68405930154E+01 -0.21081486079E+01  0.17067016669E+02  0.00000000000E+00 0.  1.
</event>
<event>
 7    1  0.2353206E-008  0.4614232E+02  0.7816164E-02  0.1320468E+00
        -11   -1    0    0    0    0  0.00000000000E+00  0.00000000000E+00  0.45593999997E+02  0.45594000000E+02  0.51100000000E-03 0.  1.
         11   -1    0    0    0    0 -0.00000000000E+00 -0.00000000000E+00 -0.45593999997E+02  0.45594000000E+02  0.51100000000E-03 0. -1.
    9900012    2    1    2    0    0  0.13028113433E+02 -0.21069539855E+02  0.37622550145E+02  0.46142317313E+02  0.99999959101E+01 0.  0.
         12    1    1    2    0    0 -0.13028113433E+02  0.21069539855E+02 -0.37622550145E+02  0.45045682687E+02  0.00000000000E+00 0. -1.
         11    1    3    3    0    0  0.28890406090E+01 -0.68699182749E+00  0.64319189566E+01  0.70843556614E+01  0.51100000000E-03 0. -1.
        -11    1    3    3    0    0  0.76735720593E+01 -0.89758173771E+01  0.14702321667E+02  0.18857552026E+02  0.51100000000E-03 0.  1.
        -12    1    3    3    0    0  0.24655007644E+01 -0.11406730651E+02  0.16488309522E+02  0.20200409626E+02  0.00000000000E+00 0.  1.
</event>
<event>
 7    1  0.2353206E-008  0.4614232E+02  0.7816164E-02  0.1320468E+00
        -11   -1    0    0    0    0  0.00000000000E+00  0.00000000000E+00  0.45593999997E+02  0.45594000000E+02  0.51100000000E-03 0.  1.
         11   -1    0    0    0    0 -0.00000000000E+00 -0.00000000000E+00 -0.45593999997E+02  0.45594000000E+02  0.51100000000E-03 0. -1.
    9900012    2    1    2    0    0  0.28711125268E+02 -0.39508757165E+01  0.34484422458E+02  0.46142317351E+02  0.99999962600E+01 0.  0.
         12    1    1    2    0    0 -0.28711125268E+02  0.39508757165E+01 -0.34484422458E+02  0.45045682649E+02  0.00000000000E+00 0. -1.
         11    1    3    3    0    0  0.20426812480E+02  0.28321048200E-01  0.18210449309E+02  0.27365597645E+02  0.51100000000E-03 0. -1.
        -11    1    3    3    0    0  0.36349410332E+00  0.15422111443E+00  0.10883239736E+01  0.11577398014E+01  0.51100000000E-03 0.  1.
         12    1    3    3    0    0  0.79208186840E+01 -0.41334178791E+01  0.15185649175E+02  0.17618979904E+02  0.00000000000E+00 0. -1.
</event>
<event>
 7    1  0.2353206E-008  0.4614232E+02  0.7816164E-02  0.1320468E+00
        -11   -1    0    0    0    0  0.00000000000E+00  0.00000000000E+00  0.45593999997E+02  0.45594000000E+02  0.51100000000E-03 0.  1.
         11   -1    0    0    0    0 -0.00000000000E+00 -0.00000000000E+00 -0.45593999997E+02  0.45594000000E+02  0.51100000000E-03 0. -1.
    9900012    2    1    2    0    0  0.90748570957E+01  0.11449560403E+02  0.42610655780E+02  0.46142318179E+02  0.10000003807E+02 0.  0.
         12    1    1    2    0    0 -0.90748570957E+01 -0.11449560403E+02 -0.42610655780E+02  0.45045681821E+02  0.00000000000E+00 0. -1.
         11    1    3    3    0    0  0.65563807057E+01  0.33691362567E+01  0.13216081132E+02  0.15132812291E+02  0.51100000000E-03 0. -1.
        -11    1    3    3    0    0 -0.89329222477E+00  0.36041588148E+01  0.16941113408E+02  0.17343276955E+02  0.51100000000E-03 0.  1.
        -12    1    3    3    0    0  0.34117686147E+01  0.44762653312E+01  0.12453461240E+02  0.13666228933E+02  0.00000000000E+00 0.  1.
</event>
<event>
 7    1  0.2353206E-008  0.4614232E+02  0.7816164E-02  0.1320468E+00
        -11   -1    0    0    0    0  0.00000000000E+00  0.00000000000E+00  0.45593999997E+02  0.45594000000E+02  0.51100000000E-03 0.  1.
         11   -1    0    0    0    0 -0.00000000000E+00 -0.00000000000E+00 -0.45593999997E+02  0.45594000000E+02  0.51100000000E-03 0. -1.
    9900012    2    1    2    0    0 -0.22241776147E+02 -0.36443897507E+02 -0.14361735504E+02  0.46142315209E+02  0.99999767265E+01 0.  0.
         12    1    1    2    0    0  0.22241776147E+02  0.36443897507E+02  0.14361735504E+02  0.45045684791E+02  0.00000000000E+00 0. -1.
         11    1    3    3    0    0  0.59782161058E-01 -0.10593213100E+01 -0.15163370821E+01  0.18506793219E+01  0.51100000000E-03 0. -1.
        -11    1    3    3    0    0 -0.62072489847E+01 -0.15591870013E+02 -0.65581945211E+01  0.18017942893E+02  0.51100000000E-03 0.  1.
         12    1    3    3    0    0 -0.16094309323E+02 -0.19792706183E+02 -0.62872039006E+01  0.26273692994E+02  0.00000000000E+00 0. -1.
</event>
<event>
 7    1  0.2353206E-008  0.4614232E+02  0.7816164E-02  0.1320468E+00
        -11   -1    0    0    0    0  0.00000000000E+00  0.00000000000E+00  0.45593999997E+02  0.45594000000E+02  0.51100000000E-03 0.  1.
         11   -1    0    0    0    0 -0.00000000000E+00 -0.00000000000E+00 -0.45593999997E+02  0.45594000000E+02  0.51100000000E-03 0. -1.
    9900012    2    1    2    0    0  0.16900735312E+02 -0.33558181924E+02  0.24846070064E+02  0.46142316236E+02  0.99999860940E+01 0.  0.
         12    1    1    2    0    0 -0.16900735312E+02  0.33558181924E+02 -0.24846070064E+02  0.45045683764E+02  0.00000000000E+00 0. -1.
         11    1    3    3    0    0  0.33693412209E+01 -0.94263909573E+01  0.54093164122E+01  0.11378488962E+02  0.51100000000E-03 0. -1.
        -11    1    3    3    0    0  0.18018569286E+01 -0.74521094559E+01  0.19732599684E+01  0.79167151583E+01  0.51100000000E-03 0.  1.
        -12    1    3    3    0    0  0.11729537162E+02 -0.16679681511E+02  0.17463493683E+02  0.26847112116E+02  0.00000000000E+00 0.  1.
</event>
<event>
 7    1  0.2353206E-008  0.4614232E+02  0.7816164E-02  0.1320468E+00
        -11   -1    0    0    0    0  0.00000000000E+00  0.00000000000E+00  0.45593999997E+02  0.45594000000E+02  0.51100000000E-03 0.  1.
         11   -1    0    0    0    0 -0.00000000000E+00 -0.00000000000E+00 -0.45593999997E+02  0.45594000000E+02  0.51100000000E-03 0. -1.
    9900012    2    1    2    0    0 -0.61648257269E+01 -0.38818650153E+02  0.22005020146E+02  0.46142316660E+02  0.99999899614E+01 0.  0.
         12    1    1    2    0    0  0.61648257269E+01  0.38818650153E+02 -0.22005020146E+02  0.45045683340E+02  0.00000000000E+00 0. -1.
         11    1    3    3    0    0 -0.95963105635E-01 -0.28287305114E+01  0.26927422254E+00  0.28431380712E+01  0.51100000000E-03 0. -1.
        -11    1    3    3    0    0 -0.29419519701E+01 -0.21796288868E+02  0.17654350707E+02  0.28203003190E+02  0.51100000000E-03 0.  1.
         12    1    3    3    0    0 -0.31269106512E+01 -0.14193630774E+02  0.40813952161E+01  0.15096175399E+02  0.00000000000E+00 0. -1.
</event>
<event>
 7    1  0.2353206E-008  0.4614232E+02  0.7816164E-02  0.1320468E+00
        -11   -1    0    0    0    0  0.00000000000E+00  0.00000000000E+00  0.45593999997E+02  0.45594000000E+02  0.51100000000E-03 0.  1.
         11   -1    0    0    0    0 -0.00000000000E+00 -0.00000000000E+00 -0.45593999997E+02  0.45594000000E+02  0.51100000000E-03 0. -1.
    9900012    2    1    2    0    0  0.11676636108E+02  0.78215826161E+01  0.42797104532E+02  0.46142321609E+02  0.10000035088E+02 0.  0.
         12    1    1    2    0    0 -0.11676636108E+02 -0.78215826161E+01 -0.42797104532E+02  0.45045678391E+02  0.00000000000E+00 0. -1.
         11    1    3    3    0    0  0.48158054253E+01  0.19673378419E+01  0.52925935222E+01  0.74211822866E+01  0.51100000000E-03 0. -1.
        -11    1    3    3    0    0  0.43325381570E+01  0.27172340991E+01  0.14718732316E+02  0.15581891069E+02  0.51100000000E-03 0.  1.
         12    1    3    3    0    0  0.25282925258E+01  0.31370106751E+01  0.22785778694E+02  0.23139248254E+02  0.00000000000E+00 0. -1.
</event>
<event>
 7    1  0.2353206E-008  0.4614232E+02  0.7816164E-02  0.1320468E+00
        -11   -1    0    0    0    0  0.00000000000E+00  0.00000000000E+00  0.45593999997E+02  0.45594000000E+02  0.51100000000E-03 0. -1.
         11   -1    0    0    0    0 -0.00000000000E+00 -0.00000000000E+00 -0.45593999997E+02  0.45594000000E+02  0.51100000000E-03 0.  1.
    9900012    2    1    2    0    0 -0.12899040114E+02 -0.38350672824E+02 -0.19797833595E+02  0.46142317000E+02  0.99999930588E+01 0.  0.
         12    1    1    2    0    0  0.12899040114E+02  0.38350672824E+02  0.19797833595E+02  0.45045683000E+02  0.00000000000E+00 0. -1.
         11    1    3    3    0    0 -0.19385859688E+01 -0.11322510399E+02 -0.34917763940E+01  0.12006242540E+02  0.51100000000E-03 0. -1.
        -11    1    3    3    0    0 -0.10054540608E+02 -0.27225335875E+02 -0.15472729979E+02  0.32889482720E+02  0.51100000000E-03 0.  1.
         12    1    3    3    0    0 -0.90591353763E+00  0.19717344976E+00 -0.83332722158E+00  0.12465917396E+01  0.00000000000E+00 0. -1.
</event>
<event>
 7    1  0.2353206E-008  0.4614231E+02  0.7816164E-02  0.1320468E+00
        -11   -1    0    0    0    0  0.00000000000E+00  0.00000000000E+00  0.45593999997E+02  0.45594000000E+02  0.51100000000E-03 0.  1.
         11   -1    0    0    0    0 -0.00000000000E+00 -0.00000000000E+00 -0.45593999997E+02  0.45594000000E+02  0.51100000000E-03 0. -1.
    9900012    2    1    2    0    0  0.35103699973E+02  0.18649706086E+02  0.21190388202E+02  0.46142313847E+02  0.99999643056E+01 0.  0.
         12    1    1    2    0    0 -0.35103699973E+02 -0.18649706086E+02 -0.21190388202E+02  0.45045686153E+02  0.00000000000E+00 0. -1.
         11    1    3    3    0    0  0.10142218811E+02  0.85693641088E+01  0.44020699974E+01  0.13988453244E+02  0.51100000000E-03 0. -1.
        -11    1    3    3    0    0  0.19307274111E+02  0.95884861169E+01  0.11680176721E+02  0.24518083696E+02  0.51100000000E-03 0.  1.
        -12    1    3    3    0    0  0.56542070506E+01  0.49185586052E+00  0.51081414832E+01  0.76357769068E+01  0.00000000000E+00 0.  1.
</event>
<event>
 7    1  0.2353206E-008  0.4614231E+02  0.7816164E-02  0.1320468E+00
        -11   -1    0    0    0    0  0.00000000000E+00  0.00000000000E+00  0.45593999997E+02  0.45594000000E+02  0.51100000000E-03 0.  1.
         11   -1    0    0    0    0 -0.00000000000E+00 -0.00000000000E+00 -0.45593999997E+02  0.45594000000E+02  0.51100000000E-03 0. -1.
    9900012    2    1    2    0    0  0.85331215152E+00  0.17835233464E+02  0.41355653826E+02  0.46142314327E+02  0.99999686829E+01 0.  0.
         12    1    1    2    0    0 -0.85331215152E+00 -0.17835233464E+02 -0.41355653826E+02  0.45045685673E+02  0.00000000000E+00 0. -1.
         11    1    3    3    0    0 -0.20787990467E+01  0.82758974467E+00  0.84733835647E+01  0.87638199182E+01  0.51100000000E-03 0. -1.
        -11    1    3    3    0    0 -0.12184001398E+00  0.14134182500E+01  0.93959659944E+00  0.17015987098E+01  0.51100000000E-03 0.  1.
        -12    1    3    3    0    0  0.30539512122E+01  0.15594225470E+02  0.31942673662E+02  0.35676895699E+02  0.00000000000E+00 0.  1.
</event>
<event>
 7    1  0.2353206E-008  0.4614232E+02  0.7816164E-02  0.1320468E+00
        -11   -1    0    0    0    0  0.00000000000E+00  0.00000000000E+00  0.45593999997E+02  0.45594000000E+02  0.51100000000E-03 0. -1.
         11   -1    0    0    0    0 -0.00000000000E+00 -0.00000000000E+00 -0.45593999997E+02  0.45594000000E+02  0.51100000000E-03 0.  1.
    9900012    2    1    2    0    0 -0.22582916328E+02 -0.12996143583E+02 -0.36745415262E+02  0.46142318734E+02  0.10000008874E+02 0.  0.
         12    1    1    2    0    0  0.22582916328E+02  0.12996143583E+02  0.36745415262E+02  0.45045681266E+02  0.00000000000E+00 0. -1.
         11    1    3    3    0    0 -0.52666397166E+00  0.22794631180E+00  0.28596734252E+00  0.64118019481E+00  0.51100000000E-03 0. -1.
        -11    1    3    3    0    0 -0.15213358156E+02 -0.10989487482E+02 -0.22619176549E+02  0.29391193401E+02  0.51100000000E-03 0.  1.
        -12    1    3    3    0    0 -0.68428941998E+01 -0.22346024130E+01 -0.14412206056E+02  0.16109945139E+02  0.00000000000E+00 0.  1.
</event>
<event>
 7    1  0.2353206E-008  0.4614232E+02  0.7816164E-02  0.1320468E+00
        -11   -1    0    0    0    0  0.00000000000E+00  0.00000000000E+00  0.45593999997E+02  0.45594000000E+02  0.51100000000E-03 0. -1.
         11   -1    0    0    0    0 -0.00000000000E+00 -0.00000000000E+00 -0.45593999997E+02  0.45594000000E+02  0.51100000000E-03 0.  1.
    9900012    2    1    2    0    0  0.27821954623E+02 -0.27223985078E+02 -0.22669515970E+02  0.46142317889E+02  0.10000001163E+02 0.  0.
         12    1    1    2    0    0 -0.27821954623E+02  0.27223985078E+02  0.22669515970E+02  0.45045682111E+02  0.00000000000E+00 0. -1.
         11    1    3    3    0    0  0.68043974111E+01 -0.82942947042E+01 -0.10204769842E+02  0.14806501158E+02  0.51100000000E-03 0. -1.
        -11    1    3    3    0    0  0.90032379583E+01 -0.48642982265E+01 -0.39011864554E+01  0.10951664120E+02  0.51100000000E-03 0.  1.
         12    1    3    3    0    0  0.12014319254E+02 -0.14065392147E+02 -0.85635596727E+01  0.20384152611E+02  0.00000000000E+00 0. -1.
</event>
<event>
 7    1  0.2353206E-008  0.4614232E+02  0.7816164E-02  0.1320468E+00
        -11   -1    0    0    0    0  0.00000000000E+00  0.00000000000E+00  0.45593999997E+02  0.45594000000E+02  0.51100000000E-03 0. -1.
         11   -1    0    0    0    0 -0.00000000000E+00 -0.00000000000E+00 -0.45593999997E+02  0.45594000000E+02  0.51100000000E-03 0.  1.
    9900012    2    1    2    0    0  0.30491162376E+02 -0.17397073443E+00 -0.33156783392E+02  0.46142317257E+02  0.99999954042E+01 0.  0.
         12    1    1    2    0    0 -0.30491162376E+02  0.17397073443E+00  0.33156783392E+02  0.45045682743E+02  0.00000000000E+00 0. -1.
         11    1    3    3    0    0  0.19026489436E+02 -0.35544832627E+00 -0.18708493462E+02  0.26685977060E+02  0.51100000000E-03 0. -1.
        -11    1    3    3    0    0  0.11795090840E+02  0.12335415012E+01 -0.12594339530E+02  0.17299224868E+02  0.51100000000E-03 0.  1.
         12    1    3    3    0    0 -0.33041790014E+00 -0.10520639094E+01 -0.18539504000E+01  0.21571153293E+01  0.00000000000E+00 0. -1.
</event>
<event>
 7    1  0.2353206E-008  0.4614232E+02  0.7816164E-02  0.1320468E+00
        -11   -1    0    0    0    0  0.00000000000E+00  0.00000000000E+00  0.45593999997E+02  0.45594000000E+02  0.51100000000E-03 0.  1.
         11   -1    0    0    0    0 -0.00000000000E+00 -0.00000000000E+00 -0.45593999997E+02  0.45594000000E+02  0.51100000000E-03 0. -1.
    9900012    2    1    2    0    0 -0.14858195659E+02 -0.41918403828E+02 -0.71550671787E+01  0.46142317143E+02  0.99999943630E+01 0.  0.
         12    1    1    2    0    0  0.14858195659E+02  0.41918403828E+02  0.71550671787E+01  0.45045682857E+02  0.00000000000E+00 0. -1.
         11    1    3    3    0    0 -0.96740091318E+01 -0.26737473017E+02 -0.46669162017E+01  0.28814215643E+02  0.51100000000E-03 0. -1.
        -11    1    3    3    0    0 -0.50818339355E+01 -0.80578684166E+01  0.63952079092E+00  0.95479456780E+01  0.51100000000E-03 0.  1.
         12    1    3    3    0    0 -0.10235259158E+00 -0.71230623939E+01 -0.31276717680E+01  0.77801558216E+01  0.00000000000E+00 0. -1.
</event>
<event>
 7    1  0.2353206E-008  0.4614231E+02  0.7816164E-02  0.1320468E+00
        -11   -1    0    0    0    0  0.00000000000E+00  0.00000000000E+00  0.45593999997E+02  0.45594000000E+02  0.51100000000E-03 0. -1.
         11   -1    0    0    0    0 -0.00000000000E+00 -0.00000000000E+00 -0.45593999997E+02  0.45594000000E+02  0.51100000000E-03 0.  1.
    9900012    2    1    2    0    0 -0.26891296696E+02 -0.18779733169E+02 -0.30875452642E+02  0.46142314394E+02  0.99999692926E+01 0.  0.
         12    1    1    2    0    0  0.26891296696E+02  0.18779733169E+02  0.30875452642E+02  0.45045685606E+02  0.00000000000E+00 0. -1.
         11    1    3    3    0    0 -0.18122025485E+02 -0.12353711650E+02 -0.26005946882E+02  0.34019571906E+02  0.51100000000E-03 0.  1.
        -11    1    3    3    0    0 -0.55419932355E+01 -0.53401457859E+01 -0.34302884732E+01  0.84260147940E+01  0.51100000000E-03 0. -1.
        -12    1    3    3    0    0 -0.32272779757E+01 -0.10858757330E+01 -0.14392172871E+01  0.36967276934E+01  0.00000000000E+00 0.  1.
</event>
<event>
 7    1  0.2353206E-008  0.4614232E+02  0.7816164E-02  0.1320468E+00
        -11   -1    0    0    0    0  0.00000000000E+00  0.00000000000E+00  0.45593999997E+02  0.45594000000E+02  0.51100000000E-03 0.  1.
         11   -1    0    0    0    0 -0.00000000000E+00 -0.00000000000E+00 -0.45593999997E+02  0.45594000000E+02  0.51100000000E-03 0. -1.
    9900012    2    1    2    0    0 -0.43996479628E+02  0.32324385446E+01 -0.91090412864E+01  0.46142317501E+02  0.99999976302E+01 0.  0.
         12    1    1    2    0    0  0.43996479628E+02 -0.32324385446E+01  0.91090412864E+01  0.45045682499E+02  0.00000000000E+00 0. -1.
         11    1    3    3    0    0 -0.68423054392E+00 -0.90358219742E+00 -0.62530280439E-01  0.11351398688E+01  0.51100000000E-03 0. -1.
        -11    1    3    3    0    0 -0.19057113559E+02 -0.16602557639E+01 -0.32353449266E+01  0.19400966045E+02  0.51100000000E-03 0.  1.
        -12    1    3    3    0    0 -0.24255135525E+02  0.57962765059E+01 -0.58111660794E+01  0.25606211588E+02  0.00000000000E+00 0.  1.
</event>
<event>
 7    1  0.2353206E-008  0.4614232E+02  0.7816164E-02  0.1320468E+00
        -11   -1    0    0    0    0  0.00000000000E+00  0.00000000000E+00  0.45593999997E+02  0.45594000000E+02  0.51100000000E-03 0. -1.
         11   -1    0    0    0    0 -0.00000000000E+00 -0.00000000000E+00 -0.45593999997E+02  0.45594000000E+02  0.51100000000E-03 0.  1.
    9900012    2    1    2    0    0  0.15008141884E+01 -0.44871450156E+02 -0.36624708732E+01  0.46142321237E+02  0.10000031698E+02 0.  0.
         12    1    1    2    0    0 -0.15008141884E+01  0.44871450156E+02  0.36624708732E+01  0.45045678763E+02  0.00000000000E+00 0. -1.
         11    1    3    3    0    0 -0.95147771039E+00 -0.42459234368E+00 -0.33118788845E-01  0.10424421360E+01  0.51100000000E-03 0. -1.
        -11    1    3    3    0    0 -0.68691173762E+00 -0.34627486862E+02 -0.23895175500E+01  0.34716631295E+02  0.51100000000E-03 0.  1.
         12    1    3    3    0    0  0.31392036364E+01 -0.98193709505E+01 -0.12398345343E+01  0.10383247806E+02  0.00000000000E+00 0. -1.
</event>
<event>
 7    1  0.2353206E-008  0.4614232E+02  0.7816164E-02  0.1320468E+00
        -11   -1    0    0    0    0  0.00000000000E+00  0.00000000000E+00  0.45593999997E+02  0.45594000000E+02  0.51100000000E-03 0.  1.
         11   -1    0    0    0    0 -0.00000000000E+00 -0.00000000000E+00 -0.45593999997E+02  0.45594000000E+02  0.51100000000E-03 0. -1.
    9900012    2    1    2    0    0 -0.12203698985E+02 -0.42653242762E+02 -0.78028212636E+01  0.46142318668E+02  0.10000008268E+02 0.  0.
         12    1    1    2    0    0  0.12203698985E+02  0.42653242762E+02  0.78028212636E+01  0.45045681332E+02  0.00000000000E+00 0. -1.
         11    1    3    3    0    0 -0.16026665141E+01 -0.84282282909E+00 -0.25606531648E+00  0.18287864786E+01  0.51100000000E-03 0. -1.
        -11    1    3    3    0    0 -0.38777227848E+01 -0.28023652409E+02 -0.57595713970E+01  0.28870997407E+02  0.51100000000E-03 0.  1.
         12    1    3    3    0    0 -0.67233096865E+01 -0.13786767524E+02 -0.17871845502E+01  0.15442534783E+02  0.00000000000E+00 0. -1.
</event>
<event>
 7    1  0.2353206E-008  0.4614232E+02  0.7816164E-02  0.1320468E+00
        -11   -1    0    0    0    0  0.00000000000E+00  0.00000000000E+00  0.45593999997E+02  0.45594000000E+02  0.51100000000E-03 0. -1.
         11   -1    0    0    0    0 -0.00000000000E+00 -0.00000000000E+00 -0.45593999997E+02  0.45594000000E+02  0.51100000000E-03 0.  1.
    9900012    2    1    2    0    0  0.14349299930E+02 -0.38610247321E+02 -0.18233489069E+02  0.46142315076E+02  0.99999755116E+01 0.  0.
         12    1    1    2    0    0 -0.14349299930E+02  0.38610247321E+02  0.18233489069E+02  0.45045684924E+02  0.00000000000E+00 0. -1.
         11    1    3    3    0    0  0.78927595180E+01 -0.16848120536E+02 -0.49777908306E+01  0.19259626690E+02  0.51100000000E-03 0. -1.
        -11    1    3    3    0    0  0.66229350647E+01 -0.14241334216E+02 -0.74671107952E+01  0.17390704788E+02  0.51100000000E-03 0.  1.
         12    1    3    3    0    0 -0.16639465251E+00 -0.75207925685E+01 -0.57885874428E+01  0.94919835979E+01  0.00000000000E+00 0. -1.
</event>
<event>
 7    1  0.2353206E-008  0.4614232E+02  0.7816164E-02  0.1320468E+00
        -11   -1    0    0    0    0  0.00000000000E+00  0.00000000000E+00  0.45593999997E+02  0.45594000000E+02  0.51100000000E-03 0. -1.
         11   -1    0    0    0    0 -0.00000000000E+00 -0.00000000000E+00 -0.45593999997E+02  0.45594000000E+02  0.51100000000E-03 0.  1.
    9900012    2    1    2    0    0 -0.73207943313E+01 -0.53043627707E+01 -0.44129162905E+02  0.46142319711E+02  0.10000017778E+02 0.  0.
         12    1    1    2    0    0  0.73207943313E+01  0.53043627707E+01  0.44129162905E+02  0.45045680289E+02  0.00000000000E+00 0. -1.
         11    1    3    3    0    0 -0.29943869568E+01 -0.28917327192E+01 -0.55203148966E+01  0.69139242247E+01  0.51100000000E-03 0. -1.
        -11    1    3    3    0    0 -0.28867696070E+01 -0.63739980700E+00 -0.33516644252E+02  0.33646770416E+02  0.51100000000E-03 0.  1.
         12    1    3    3    0    0 -0.14396377675E+01 -0.17752302445E+01 -0.50922037568E+01  0.55816250701E+01  0.00000000000E+00 0. -1.
</event>
<event>
 7    1  0.2353206E-008  0.4614232E+02  0.7816164E-02  0.1320468E+00
        -11   -1    0    0    0    0  0.00000000000E+00  0.00000000000E+00  0.45593999997E+02  0.45594000000E+02  0.51100000000E-03 0.  1.
         11   -1    0    0    0    0 -0.00000000000E+00 -0.00000000000E+00 -0.45593999997E+02  0.45594000000E+02  0.51100000000E-03 0. -1.
    9900012    2    1    2    0    0 -0.26059659915E+02 -0.26565321782E+02  0.25382891746E+02  0.46142318857E+02  0.10000009992E+02 0.  0.
         12    1    1    2    0    0  0.26059659915E+02  0.26565321782E+02 -0.25382891746E+02  0.45045681143E+02  0.00000000000E+00 0. -1.
         11    1    3    3    0    0 -0.86691269339E+01 -0.85276011443E+01  0.70186145546E+01  0.14040466289E+02  0.51100000000E-03 0. -1.
        -11    1    3    3    0    0 -0.15635316725E+02 -0.15367846959E+02  0.12029397190E+02  0.25006804000E+02  0.51100000000E-03 0.  1.
         12    1    3    3    0    0 -0.17552162561E+01 -0.26698736781E+01  0.63348800009E+01  0.70950485685E+01  0.00000000000E+00 0. -1.
</event>
<event>
 7    1  0.2353206E-008  0.4614232E+02  0.7816164E-02  0.1320468E+00
        -11   -1    0    0    0    0  0.00000000000E+00  0.00000000000E+00  0.45593999997E+02  0.45594000000E+02  0.51100000000E-03 0. -1.
         11   -1    0    0    0    0 -0.00000000000E+00 -0.00000000000E+00 -0.45593999997E+02  0.45594000000E+02  0.51100000000E-03 0.  1.
    9900012    2    1    2    0    0  0.41230808120E+02  0.16635356976E+02 -0.72387013966E+01  0.46142318322E+02  0.10000005111E+02 0.  0.
         12    1    1    2    0    0 -0.41230808120E+02 -0.16635356976E+02  0.72387013966E+01  0.45045681678E+02  0.00000000000E+00 0. -1.
         11    1    3    3    0    0  0.13532096449E+02  0.45284383223E+01 -0.40770376249E+01  0.14840708339E+02  0.51100000000E-03 0. -1.
        -11    1    3    3    0    0  0.22064661888E+02  0.84794592457E+01 -0.53813428029E+01  0.24242718164E+02  0.51100000000E-03 0.  1.
        -12    1    3    3    0    0  0.56340497834E+01  0.36274594078E+01  0.22196790312E+01  0.70588918194E+01  0.00000000000E+00 0.  1.
</event>
<event>
 7    1  0.2353206E-008  0.4614232E+02  0.7816164E-02  0.1320468E+00
        -11   -1    0    0    0    0  0.00000000000E+00  0.00000000000E+00  0.45593999997E+02  0.45594000000E+02  0.51100000000E-03 0. -1.
         11   -1    0    0    0    0 -0.00000000000E+00 -0.00000000000E+00 -0.45593999997E+02  0.45594000000E+02  0.51100000000E-03 0.  1.
    9900012    2    1    2    0    0  0.42071945957E+02  0.14540617387E+02 -0.69018177280E+01  0.46142320090E+02  0.10000021238E+02 0.  0.
         12    1    1    2    0    0 -0.42071945957E+02 -0.14540617387E+02  0.69018177280E+01  0.45045679910E+02  0.00000000000E+00 0. -1.
         11    1    3    3    0    0  0.17310106906E+02  0.10322447643E+02 -0.29563483135E+01  0.20369897449E+02  0.51100000000E-03 0. -1.
        -11    1    3    3    0    0 -0.12430811916E+00  0.21268593887E+00 -0.13096697772E+00  0.27899897393E+00  0.51100000000E-03 0.  1.
        -12    1    3    3    0    0  0.24886147170E+02  0.40054838053E+01 -0.38145024368E+01  0.25493423668E+02  0.00000000000E+00 0.  1.
</event>
<event>
 7    1  0.2353206E-008  0.4614232E+02  0.7816164E-02  0.1320468E+00
        -11   -1    0    0    0    0  0.00000000000E+00  0.00000000000E+00  0.45593999997E+02  0.45594000000E+02  0.51100000000E-03 0.  1.
         11   -1    0    0    0    0 -0.00000000000E+00 -0.00000000000E+00 -0.45593999997E+02  0.45594000000E+02  0.51100000000E-03 0. -1.
    9900012    2    1    2    0    0  0.33164218364E+01 -0.40168699889E+02  0.20114434229E+02  0.46142316867E+02  0.99999918452E+01 0.  0.
         12    1    1    2    0    0 -0.33164218364E+01  0.40168699889E+02 -0.20114434229E+02  0.45045683133E+02  0.00000000000E+00 0. -1.
         11    1    3    3    0    0  0.16926925744E+01 -0.10853046996E+02  0.91573164569E+01  0.14300709150E+02  0.51100000000E-03 0. -1.
        -11    1    3    3    0    0  0.26423907015E+01 -0.23964869985E+02  0.69892482680E+01  0.25102725223E+02  0.51100000000E-03 0.  1.
         12    1    3    3    0    0 -0.10186614394E+01 -0.53507829087E+01  0.39678695037E+01  0.67388824936E+01  0.00000000000E+00 0. -1.
</event>
<event>
 7    1  0.2353206E-008  0.4614232E+02  0.7816164E-02  0.1320468E+00
        -11   -1    0    0    0    0  0.00000000000E+00  0.00000000000E+00  0.45593999997E+02  0.45594000000E+02  0.51100000000E-03 0.  1.
         11   -1    0    0    0    0 -0.00000000000E+00 -0.00000000000E+00 -0.45593999997E+02  0.45594000000E+02  0.51100000000E-03 0. -1.
    9900012    2    1    2    0    0  0.14979146139E+02  0.85320795669E+01  0.41616610900E+02  0.46142317592E+02  0.99999984595E+01 0.  0.
         12    1    1    2    0    0 -0.14979146139E+02 -0.85320795669E+01 -0.41616610900E+02  0.45045682408E+02  0.00000000000E+00 0. -1.
         11    1    3    3    0    0  0.12948050360E+02  0.76575918875E+01  0.25221056950E+02  0.29366518956E+02  0.51100000000E-03 0. -1.
        -11    1    3    3    0    0  0.26962899507E+01  0.89409677035E+00  0.14210876011E+02  0.14492011103E+02  0.51100000000E-03 0.  1.
         12    1    3    3    0    0 -0.66519417206E+00 -0.19609091013E-01  0.21846779386E+01  0.22837875336E+01  0.00000000000E+00 0. -1.
</event>
<event>
 7    1  0.2353206E-008  0.4614232E+02  0.7816164E-02  0.1320468E+00
        -11   -1    0    0    0    0  0.00000000000E+00  0.00000000000E+00  0.45593999997E+02  0.45594000000E+02  0.51100000000E-03 0.  1.
         11   -1    0    0    0    0 -0.00000000000E+00 -0.00000000000E+00 -0.45593999997E+02  0.45594000000E+02  0.51100000000E-03 0. -1.
    9900012    2    1    2    0    0 -0.26213733305E+02 -0.35937585709E+02 -0.71023652484E+01  0.46142317938E+02  0.10000001612E+02 0.  0.
         12    1    1    2    0    0  0.26213733305E+02  0.35937585709E+02  0.71023652484E+01  0.45045682062E+02  0.00000000000E+00 0. -1.
         11    1    3    3    0    0 -0.16338627168E+02 -0.21163588371E+02 -0.33452014482E+01  0.26945103144E+02  0.51100000000E-03 0. -1.
        -11    1    3    3    0    0 -0.60302761775E+01 -0.10720200438E+02  0.28174808086E+00  0.12303101660E+02  0.51100000000E-03 0.  1.
         12    1    3    3    0    0 -0.38448299589E+01 -0.40537968993E+01 -0.40389118811E+01  0.68941131335E+01  0.00000000000E+00 0. -1.
</event>
<event>
 7    1  0.2353206E-008  0.4614232E+02  0.7816164E-02  0.1320468E+00
        -11   -1    0    0    0    0  0.00000000000E+00  0.00000000000E+00  0.45593999997E+02  0.45594000000E+02  0.51100000000E-03 0.  1.
         11   -1    0    0    0    0 -0.00000000000E+00 -0.00000000000E+00 -0.45593999997E+02  0.45594000000E+02  0.51100000000E-03 0. -1.
    9900012    2    1    2    0    0  0.23504514200E+02 -0.21121008984E+02  0.32102247448E+02  0.46142317637E+02  0.99999988681E+01 0.  0.
         12    1    1    2    0    0 -0.23504514200E+02  0.21121008984E+02 -0.32102247448E+02  0.45045682363E+02  0.00000000000E+00 0. -1.
         11    1    3    3    0    0  0.10706576393E+01  0.69288712610E+00  0.11807700574E+01  0.17379926754E+01  0.51100000000E-03 0. -1.
        -11    1    3    3    0    0  0.68855272338E+01 -0.64004637414E+01  0.13369170949E+02  0.16343535527E+02  0.51100000000E-03 0.  1.
        -12    1    3    3    0    0  0.15548329327E+02 -0.15413432369E+02  0.17552306442E+02  0.28060789434E+02  0.00000000000E+00 0.  1.
</event>
<event>
 7    1  0.2353206E-008  0.4614232E+02  0.7816164E-02  0.1320468E+00
        -11   -1    0    0    0    0  0.00000000000E+00  0.00000000000E+00  0.45593999997E+02  0.45594000000E+02  0.51100000000E-03 0. -1.
         11   -1    0    0    0    0 -0.00000000000E+00 -0.00000000000E+00 -0.45593999997E+02  0.45594000000E+02  0.51100000000E-03 0.  1.
    9900012    2    1    2    0    0 -0.10593660978E+02 -0.42678769469E+02 -0.97678241300E+01  0.46142318692E+02  0.10000008485E+02 0.  0.
         12    1    1    2    0    0  0.10593660978E+02  0.42678769469E+02  0.97678241300E+01  0.45045681308E+02  0.00000000000E+00 0. -1.
         11    1    3    3    0    0 -0.52532713297E+01 -0.14182630844E+02 -0.34428049160E+01  0.15511182523E+02  0.51100000000E-03 0.  1.
        -11    1    3    3    0    0 -0.34458855051E+01 -0.15872184058E+02 -0.73441990770E+01  0.17825196044E+02  0.51100000000E-03 0. -1.
         12    1    3    3    0    0 -0.18945041432E+01 -0.12623954568E+02  0.10191798629E+01  0.12805940124E+02  0.00000000000E+00 0. -1.
</event>
<event>
 7    1  0.2353206E-008  0.4614232E+02  0.7816164E-02  0.1320468E+00
        -11   -1    0    0    0    0  0.00000000000E+00  0.00000000000E+00  0.45593999997E+02  0.45594000000E+02  0.51100000000E-03 0. -1.
         11   -1    0    0    0    0 -0.00000000000E+00 -0.00000000000E+00 -0.45593999997E+02  0.45594000000E+02  0.51100000000E-03 0.  1.
    9900012    2    1    2    0    0  0.14769961154E+02 -0.36203145140E+02 -0.22367251790E+02  0.46142318486E+02  0.10000006606E+02 0.  0.
         12    1    1    2    0    0 -0.14769961154E+02  0.36203145140E+02  0.22367251790E+02  0.45045681514E+02  0.00000000000E+00 0. -1.
         11    1    3    3    0    0  0.11440569412E+02 -0.24654651094E+02 -0.16299359894E+02  0.31692389974E+02  0.51100000000E-03 0.  1.
        -11    1    3    3    0    0 -0.29626798580E+00 -0.59956971764E+01 -0.48273976192E+01  0.77032413557E+01  0.51100000000E-03 0. -1.
         12    1    3    3    0    0  0.36256597281E+01 -0.55527968691E+01 -0.12404942766E+01  0.67466871562E+01  0.00000000000E+00 0. -1.
</event>
<event>
 7    1  0.2353206E-008  0.4614232E+02  0.7816164E-02  0.1320468E+00
        -11   -1    0    0    0    0  0.00000000000E+00  0.00000000000E+00  0.45593999997E+02  0.45594000000E+02  0.51100000000E-03 0.  1.
         11   -1    0    0    0    0 -0.00000000000E+00 -0.00000000000E+00 -0.45593999997E+02  0.45594000000E+02  0.51100000000E-03 0. -1.
    9900012    2    1    2    0    0  0.18408367010E+02 -0.22503242438E+02  0.34407112599E+02  0.46142319923E+02  0.10000019714E+02 0.  0.
         12    1    1    2    0    0 -0.18408367010E+02  0.22503242438E+02 -0.34407112599E+02  0.45045680077E+02  0.00000000000E+00 0. -1.
         11    1    3    3    0    0  0.12541327044E+01 -0.17658805692E+01  0.10648785816E+01  0.24135346858E+01  0.51100000000E-03 0. -1.
        -11    1    3    3    0    0  0.30038776603E+01 -0.12210976820E+01  0.10045136725E+01  0.33946146360E+01  0.51100000000E-03 0.  1.
         12    1    3    3    0    0  0.14150356645E+02 -0.19516264187E+02  0.32337720345E+02  0.40334170601E+02  0.00000000000E+00 0. -1.
</event>
<event>
 7    1  0.2353206E-008  0.4614232E+02  0.7816164E-02  0.1320468E+00
        -11   -1    0    0    0    0  0.00000000000E+00  0.00000000000E+00  0.45593999997E+02  0.45594000000E+02  0.51100000000E-03 0. -1.
         11   -1    0    0    0    0 -0.00000000000E+00 -0.00000000000E+00 -0.45593999997E+02  0.45594000000E+02  0.51100000000E-03 0.  1.
    9900012    2    1    2    0    0 -0.20209528335E+02  0.16881231959E+02 -0.36547399372E+02  0.46142318422E+02  0.10000006026E+02 0.  0.
         12    1    1    2    0    0  0.20209528335E+02 -0.16881231959E+02  0.36547399372E+02  0.45045681578E+02  0.00000000000E+00 0. -1.
         11    1    3    3    0    0 -0.10079187508E+02  0.74050663097E+01 -0.22093994723E+02  0.25388375902E+02  0.51100000000E-03 0. -1.
        -11    1    3    3    0    0 -0.37857337298E+01  0.58783394952E+01 -0.10020698200E+02  0.12218880791E+02  0.51100000000E-03 0.  1.
        -12    1    3    3    0    0 -0.63446070978E+01  0.35978261539E+01 -0.44327064485E+01  0.85350617290E+01  0.00000000000E+00 0.  1.
</event>
<event>
 7    1  0.2353206E-008  0.4614232E+02  0.7816164E-02  0.1320468E+00
        -11   -1    0    0    0    0  0.00000000000E+00  0.00000000000E+00  0.45593999997E+02  0.45594000000E+02  0.51100000000E-03 0. -1.
         11   -1    0    0    0    0 -0.00000000000E+00 -0.00000000000E+00 -0.45593999997E+02  0.45594000000E+02  0.51100000000E-03 0.  1.
    9900012    2    1    2    0    0 -0.35027866994E+02  0.27082001827E+02 -0.82901817384E+01  0.46142318716E+02  0.10000008706E+02 0.  0.
         12    1    1    2    0    0  0.35027866994E+02 -0.27082001827E+02  0.82901817384E+01  0.45045681284E+02  0.00000000000E+00 0. -1.
         11    1    3    3    0    0 -0.54663119198E+01  0.12555958177E+01  0.56779681318E+00  0.56373291853E+01  0.51100000000E-03 0. -1.
        -11    1    3    3    0    0  0.12705746783E+00  0.42571537646E+00 -0.12777212543E-01  0.44445550978E+00  0.51100000000E-03 0.  1.
        -12    1    3    3    0    0 -0.29688612542E+02  0.25400690633E+02 -0.88452013391E+01  0.40060534021E+02  0.00000000000E+00 0.  1.
</event>
<event>
 7    1  0.2353206E-008  0.4614232E+02  0.7816164E-02  0.1320468E+00
        -11   -1    0    0    0    0  0.00000000000E+00  0.00000000000E+00  0.45593999997E+02  0.45594000000E+02  0.51100000000E-03 0. -1.
         11   -1    0    0    0    0 -0.00000000000E+00 -0.00000000000E+00 -0.45593999997E+02  0.45594000000E+02  0.51100000000E-03 0.  1.
    9900012    2    1    2    0    0 -0.13468250380E+02 -0.40345365470E+02 -0.14831425427E+02  0.46142318038E+02  0.10000002526E+02 0.  0.
         12    1    1    2    0    0  0.13468250380E+02  0.40345365470E+02  0.14831425427E+02  0.45045681962E+02  0.00000000000E+00 0. -1.
         11    1    3    3    0    0 -0.45887517517E+01 -0.14416227608E+02 -0.85379873454E+01  0.17371859119E+02  0.51100000000E-03 0. -1.
        -11    1    3    3    0    0  0.20259768767E+00 -0.19729355573E+01  0.87314050749E+00  0.21670014175E+01  0.51100000000E-03 0.  1.
        -12    1    3    3    0    0 -0.90820963165E+01 -0.23956202305E+02 -0.71665785893E+01  0.26603457502E+02  0.00000000000E+00 0.  1.
</event>
<event>
 7    1  0.2353206E-008  0.4614232E+02  0.7816164E-02  0.1320468E+00
        -11   -1    0    0    0    0  0.00000000000E+00  0.00000000000E+00  0.45593999997E+02  0.45594000000E+02  0.51100000000E-03 0. -1.
         11   -1    0    0    0    0 -0.00000000000E+00 -0.00000000000E+00 -0.45593999997E+02  0.45594000000E+02  0.51100000000E-03 0.  1.
    9900012    2    1    2    0    0 -0.39439230119E+02 -0.84598595579E+01  0.20052219522E+02  0.46142316479E+02  0.99999883123E+01 0.  0.
         12    1    1    2    0    0  0.39439230119E+02  0.84598595579E+01 -0.20052219522E+02  0.45045683521E+02  0.00000000000E+00 0. -1.
         11    1    3    3    0    0 -0.38465441175E+01 -0.21819698229E+01  0.44888108296E+01  0.63012948575E+01  0.51100000000E-03 0. -1.
        -11    1    3    3    0    0 -0.11045154756E+02 -0.41067925627E+01  0.72381630558E+01  0.13829395989E+02  0.51100000000E-03 0.  1.
        -12    1    3    3    0    0 -0.24547531245E+02 -0.21710971722E+01  0.83252456364E+01  0.26011625633E+02  0.00000000000E+00 0.  1.
</event>
<event>
 7    1  0.2353206E-008  0.4614232E+02  0.7816164E-02  0.1320468E+00
        -11   -1    0    0    0    0  0.00000000000E+00  0.00000000000E+00  0.45593999997E+02  0.45594000000E+02  0.51100000000E-03 0.  1.
         11   -1    0    0    0    0 -0.00000000000E+00 -0.00000000000E+00 -0.45593999997E+02  0.45594000000E+02  0.51100000000E-03 0. -1.
    9900012    2    1    2    0    0 -0.25923851346E+02  0.34156092495E+02  0.13799592108E+02  0.46142318016E+02  0.10000002320E+02 0.  0.
         12    1    1    2    0    0  0.25923851346E+02 -0.34156092495E+02 -0.13799592108E+02  0.45045681984E+02  0.00000000000E+00 0. -1.
         11    1    3    3    0    0 -0.92896632189E+01  0.93438878205E+01  0.78245227483E+01  0.15324139089E+02  0.51100000000E-03 0. -1.
        -11    1    3    3    0    0 -0.13053521176E+02  0.15771798936E+02  0.47579382514E+01  0.21018611596E+02  0.51100000000E-03 0.  1.
         12    1    3    3    0    0 -0.35806669507E+01  0.90404057385E+01  0.12171311085E+01  0.97995673304E+01  0.00000000000E+00 0. -1.
</event>
<event>
 7    1  0.2353206E-008  0.4614232E+02  0.7816164E-02  0.1320468E+00
        -11   -1    0    0    0    0  0.00000000000E+00  0.00000000000E+00  0.45593999997E+02  0.45594000000E+02  0.51100000000E-03 0.  1.
         11   -1    0    0    0    0 -0.00000000000E+00 -0.00000000000E+00 -0.45593999997E+02  0.45594000000E+02  0.51100000000E-03 0. -1.
    9900012    2    1    2    0    0 -0.27739555351E+02  0.20729910673E+02  0.28808009817E+02  0.46142316997E+02  0.99999930357E+01 0.  0.
         12    1    1    2    0    0  0.27739555351E+02 -0.20729910673E+02 -0.28808009817E+02  0.45045683003E+02  0.00000000000E+00 0. -1.
         11    1    3    3    0    0 -0.83530711215E+01  0.17104710677E+01  0.83131801599E+01  0.11908336285E+02  0.51100000000E-03 0. -1.
        -11    1    3    3    0    0 -0.27022773024E+01  0.32474544192E+01  0.16654027916E+01  0.45411264619E+01  0.51100000000E-03 0.  1.
        -12    1    3    3    0    0 -0.16684206927E+02  0.15771985186E+02  0.18829426865E+02  0.29692854251E+02  0.00000000000E+00 0.  1.
</event>
<event>
 7    1  0.2353206E-008  0.4614233E+02  0.7816164E-02  0.1320468E+00
        -11   -1    0    0    0    0  0.00000000000E+00  0.00000000000E+00  0.45593999997E+02  0.45594000000E+02  0.51100000000E-03 0.  1.
         11   -1    0    0    0    0 -0.00000000000E+00 -0.00000000000E+00 -0.45593999997E+02  0.45594000000E+02  0.51100000000E-03 0. -1.
    9900012    2    1    2    0    0 -0.33413653875E+02 -0.72146291279E+01  0.29335806311E+02  0.46142326838E+02  0.10000082769E+02 0.  0.
         12    1    1    2    0    0  0.33413653875E+02  0.72146291279E+01 -0.29335806311E+02  0.45045673162E+02  0.00000000000E+00 0. -1.
         11    1    3    3    0    0 -0.13824716486E+02 -0.48264263660E+01  0.80082951845E+01  0.16689816338E+02  0.51100000000E-03 0.  1.
        -11    1    3    3    0    0 -0.97255133124E+01 -0.33602770259E+01  0.12401176810E+02  0.16114163255E+02  0.51100000000E-03 0. -1.
        -12    1    3    3    0    0 -0.98634240764E+01  0.97207426400E+00  0.89263343162E+01  0.13338347244E+02  0.00000000000E+00 0.  1.
</event>
<event>
 7    1  0.2353206E-008  0.4614232E+02  0.7816164E-02  0.1320468E+00
        -11   -1    0    0    0    0  0.00000000000E+00  0.00000000000E+00  0.45593999997E+02  0.45594000000E+02  0.51100000000E-03 0.  1.
         11   -1    0    0    0    0 -0.00000000000E+00 -0.00000000000E+00 -0.45593999997E+02  0.45594000000E+02  0.51100000000E-03 0. -1.
    9900012    2    1    2    0    0 -0.29047997056E+02 -0.42496370970E+01  0.34165303345E+02  0.46142317620E+02  0.99999987126E+01 0.  0.
         12    1    1    2    0    0  0.29047997056E+02  0.42496370970E+01 -0.34165303345E+02  0.45045682380E+02  0.00000000000E+00 0. -1.
         11    1    3    3    0    0 -0.80007294756E+01 -0.28433871517E+01  0.70033880480E+01  0.11006542011E+02  0.51100000000E-03 0.  1.
        -11    1    3    3    0    0 -0.10285495006E+02 -0.16789154749E+01  0.79289695446E+01  0.13094988469E+02  0.51100000000E-03 0. -1.
         12    1    3    3    0    0 -0.10761772575E+02  0.27266552957E+00  0.19232945752E+02  0.22040787140E+02  0.00000000000E+00 0. -1.
</event>
<event>
 7    1  0.2353206E-008  0.4614232E+02  0.7816164E-02  0.1320468E+00
        -11   -1    0    0    0    0  0.00000000000E+00  0.00000000000E+00  0.45593999997E+02  0.45594000000E+02  0.51100000000E-03 0.  1.
         11   -1    0    0    0    0 -0.00000000000E+00 -0.00000000000E+00 -0.45593999997E+02  0.45594000000E+02  0.51100000000E-03 0. -1.
    9900012    2    1    2    0    0 -0.40984533951E+02 -0.32180347169E+01  0.18412649171E+02  0.46142318519E+02  0.10000006912E+02 0.  0.
         12    1    1    2    0    0  0.40984533951E+02  0.32180347169E+01 -0.18412649171E+02  0.45045681481E+02  0.00000000000E+00 0. -1.
         11    1    3    3    0    0 -0.18199777790E+01 -0.11961909529E+01  0.34895864019E+00  0.22056664085E+01  0.51100000000E-03 0. -1.
        -11    1    3    3    0    0 -0.37943858906E+02 -0.11333859441E+01  0.15587453228E+02  0.41036443447E+02  0.51100000000E-03 0.  1.
         12    1    3    3    0    0 -0.12206972655E+01 -0.88845781987E+00  0.24762373030E+01  0.29002086636E+01  0.00000000000E+00 0. -1.
</event>
<event>
 7    1  0.2353206E-008  0.4614232E+02  0.7816164E-02  0.1320468E+00
        -11   -1    0    0    0    0  0.00000000000E+00  0.00000000000E+00  0.45593999997E+02  0.45594000000E+02  0.51100000000E-03 0. -1.
         11   -1    0    0    0    0 -0.00000000000E+00 -0.00000000000E+00 -0.45593999997E+02  0.45594000000E+02  0.51100000000E-03 0.  1.
    9900012    2    1    2    0    0  0.35474597748E+02 -0.32121808445E+01 -0.27574412381E+02  0.46142318639E+02  0.10000008003E+02 0.  0.
         12    1    1    2    0    0 -0.35474597748E+02  0.32121808445E+01  0.27574412381E+02  0.45045681361E+02  0.00000000000E+00 0. -1.
         11    1    3    3    0    0  0.11021544450E+02 -0.22024275401E+01 -0.68288699147E+01  0.13151372313E+02  0.51100000000E-03 0. -1.
        -11    1    3    3    0    0  0.20281155202E+02 -0.33638578448E+01 -0.18668934443E+02  0.27769946155E+02  0.51100000000E-03 0.  1.
         12    1    3    3    0    0  0.41718980951E+01  0.23541045405E+01 -0.20766080228E+01  0.52210001708E+01  0.00000000000E+00 0. -1.
</event>
<event>
 7    1  0.2353206E-008  0.4614232E+02  0.7816164E-02  0.1320468E+00
        -11   -1    0    0    0    0  0.00000000000E+00  0.00000000000E+00  0.45593999997E+02  0.45594000000E+02  0.51100000000E-03 0. -1.
         11   -1    0    0    0    0 -0.00000000000E+00 -0.00000000000E+00 -0.45593999997E+02  0.45594000000E+02  0.51100000000E-03 0.  1.
    9900012    2    1    2    0    0  0.32440965683E+02 -0.31207905354E+02 -0.16623651521E+01  0.46142322416E+02  0.10000042450E+02 0.  0.
         12    1    1    2    0    0 -0.32440965683E+02  0.31207905354E+02  0.16623651521E+01  0.45045677584E+02  0.00000000000E+00 0. -1.
         11    1    3    3    0    0  0.39882040766E+01 -0.51646825943E+01  0.33533596630E+00  0.65339244354E+01  0.51100000000E-03 0. -1.
        -11    1    3    3    0    0  0.10716189501E+02 -0.15664946018E+02 -0.20786399979E+00  0.18980791840E+02  0.51100000000E-03 0.  1.
        -12    1    3    3    0    0  0.17736572106E+02 -0.10378276742E+02 -0.17898371186E+01  0.20627606141E+02  0.00000000000E+00 0.  1.
</event>
<event>
 7    1  0.2353206E-008  0.4614232E+02  0.7816164E-02  0.1320468E+00
        -11   -1    0    0    0    0  0.00000000000E+00  0.00000000000E+00  0.45593999997E+02  0.45594000000E+02  0.51100000000E-03 0.  1.
         11   -1    0    0    0    0 -0.00000000000E+00 -0.00000000000E+00 -0.45593999997E+02  0.45594000000E+02  0.51100000000E-03 0. -1.
    9900012    2    1    2    0    0  0.60786991706E+01  0.67818444593E+01  0.44115408631E+02  0.46142320112E+02  0.10000021440E+02 0.  0.
         12    1    1    2    0    0 -0.60786991706E+01 -0.67818444593E+01 -0.44115408631E+02  0.45045679888E+02  0.00000000000E+00 0. -1.
         11    1    3    3    0    0  0.10930334336E+01  0.21675984682E+01  0.25450680692E+01  0.35171830979E+01  0.51100000000E-03 0. -1.
        -11    1    3    3    0    0  0.64818345737E+01  0.28823236475E+01  0.33052878907E+02  0.33805543530E+02  0.51100000000E-03 0.  1.
        -12    1    3    3    0    0 -0.14961688367E+01  0.17319223436E+01  0.85174616542E+01  0.88195934840E+01  0.00000000000E+00 0.  1.
</event>
<event>
 7    1  0.2353206E-008  0.4614232E+02  0.7816164E-02  0.1320468E+00
        -11   -1    0    0    0    0  0.00000000000E+00  0.00000000000E+00  0.45593999997E+02  0.45594000000E+02  0.51100000000E-03 0. -1.
         11   -1    0    0    0    0 -0.00000000000E+00 -0.00000000000E+00 -0.45593999997E+02  0.45594000000E+02  0.51100000000E-03 0.  1.
    9900012    2    1    2    0    0  0.38662591204E+02 -0.19220158650E+02 -0.12841456412E+02  0.46142318077E+02  0.10000002878E+02 0.  0.
         12    1    1    2    0    0 -0.38662591204E+02  0.19220158650E+02  0.12841456412E+02  0.45045681923E+02  0.00000000000E+00 0. -1.
         11    1    3    3    0    0  0.23041525058E+02 -0.15721907889E+02 -0.10317739425E+02  0.29741318259E+02  0.51100000000E-03 0.  1.
        -11    1    3    3    0    0  0.22489923831E+01  0.20232523324E+00  0.18039984724E+00  0.22652696540E+01  0.51100000000E-03 0. -1.
        -12    1    3    3    0    0  0.13372073763E+02 -0.37005759944E+01 -0.27041168337E+01  0.14135730164E+02  0.00000000000E+00 0.  1.
</event>
<event>
 7    1  0.2353206E-008  0.4614232E+02  0.7816164E-02  0.1320468E+00
        -11   -1    0    0    0    0  0.00000000000E+00  0.00000000000E+00  0.45593999997E+02  0.45594000000E+02  0.51100000000E-03 0.  1.
         11   -1    0    0    0    0 -0.00000000000E+00 -0.00000000000E+00 -0.45593999997E+02  0.45594000000E+02  0.51100000000E-03 0. -1.
    9900012    2    1    2    0    0  0.12412070569E+02 -0.81132105432E+01  0.42535042454E+02  0.46142317435E+02  0.99999970289E+01 0.  0.
         12    1    1    2    0    0 -0.12412070569E+02  0.81132105432E+01 -0.42535042454E+02  0.45045682565E+02  0.00000000000E+00 0. -1.
         11    1    3    3    0    0  0.33210433905E+00 -0.17951887084E+01  0.12693855421E+01  0.22235862264E+01  0.51100000000E-03 0. -1.
        -11    1    3    3    0    0  0.42178538127E+01 -0.50486398612E+01  0.24334726746E+02  0.25208291916E+02  0.51100000000E-03 0.  1.
         12    1    3    3    0    0  0.78621124173E+01 -0.12693819736E+01  0.16930930166E+02  0.18710439293E+02  0.00000000000E+00 0. -1.
</event>
<event>
 7    1  0.2353206E-008  0.4614232E+02  0.7816164E-02  0.1320468E+00
        -11   -1    0    0    0    0  0.00000000000E+00  0.00000000000E+00  0.45593999997E+02  0.45594000000E+02  0.51100000000E-03 0.  1.
         11   -1    0    0    0    0 -0.00000000000E+00 -0.00000000000E+00 -0.45593999997E+02  0.45594000000E+02  0.51100000000E-03 0. -1.
    9900012    2    1    2    0    0  0.84005844812E+01  0.26474628389E+02  0.35463188297E+02  0.46142317719E+02  0.99999996131E+01 0.  0.
         12    1    1    2    0    0 -0.84005844812E+01 -0.26474628389E+02 -0.35463188297E+02  0.45045682281E+02  0.00000000000E+00 0. -1.
         11    1    3    3    0    0  0.53932594818E+00 -0.34500509281E+00  0.22973541924E+01  0.23848978047E+01  0.51100000000E-03 0. -1.
        -11    1    3    3    0    0  0.41745804464E+01  0.19144139794E+02  0.19416074295E+02  0.27584581773E+02  0.51100000000E-03 0.  1.
        -12    1    3    3    0    0  0.36866780867E+01  0.76754936883E+01  0.13749759811E+02  0.16172838141E+02  0.00000000000E+00 0.  1.
</event>
<event>
 7    1  0.2353206E-008  0.4614232E+02  0.7816164E-02  0.1320468E+00
        -11   -1    0    0    0    0  0.00000000000E+00  0.00000000000E+00  0.45593999997E+02  0.45594000000E+02  0.51100000000E-03 0. -1.
         11   -1    0    0    0    0 -0.00000000000E+00 -0.00000000000E+00 -0.45593999997E+02  0.45594000000E+02  0.51100000000E-03 0.  1.
    9900012    2    1    2    0    0  0.28827520604E+02  0.34591782232E+02 -0.12231887666E+01  0.46142317267E+02  0.99999954923E+01 0.  0.
         12    1    1    2    0    0 -0.28827520604E+02 -0.34591782232E+02  0.12231887666E+01  0.45045682733E+02  0.00000000000E+00 0. -1.
         11    1    3    3    0    0  0.65574127579E+01  0.33150203342E+01  0.97445560347E-01  0.73483683762E+01  0.51100000000E-03 0. -1.
        -11    1    3    3    0    0  0.15499045374E+02  0.23847129932E+02 -0.30124857001E+01  0.28600368596E+02  0.51100000000E-03 0.  1.
         12    1    3    3    0    0  0.67710624719E+01  0.74296319663E+01  0.16918513732E+01  0.10193580295E+02  0.00000000000E+00 0. -1.
</event>
<event>
 7    1  0.2353206E-008  0.4614232E+02  0.7816164E-02  0.1320468E+00
        -11   -1    0    0    0    0  0.00000000000E+00  0.00000000000E+00  0.45593999997E+02  0.45594000000E+02  0.51100000000E-03 0.  1.
         11   -1    0    0    0    0 -0.00000000000E+00 -0.00000000000E+00 -0.45593999997E+02  0.45594000000E+02  0.51100000000E-03 0. -1.
    9900012    2    1    2    0    0 -0.92735216979E+00 -0.10924456503E+02  0.43691071024E+02  0.46142318529E+02  0.10000007004E+02 0.  0.
         12    1    1    2    0    0  0.92735216979E+00  0.10924456503E+02 -0.43691071024E+02  0.45045681471E+02  0.00000000000E+00 0. -1.
         11    1    3    3    0    0 -0.11638195235E+01  0.11118196784E+00  0.10020572910E+02  0.10088543949E+02  0.51100000000E-03 0. -1.
        -11    1    3    3    0    0 -0.98431161607E+00 -0.87488402754E+01  0.31389678908E+02  0.32600966516E+02  0.51100000000E-03 0.  1.
        -12    1    3    3    0    0  0.12207789698E+01 -0.22867981951E+01  0.22808192060E+01  0.34528080642E+01  0.00000000000E+00 0.  1.
</event>
<event>
 7    1  0.2353206E-008  0.4614232E+02  0.7816164E-02  0.1320468E+00
        -11   -1    0    0    0    0  0.00000000000E+00  0.00000000000E+00  0.45593999997E+02  0.45594000000E+02  0.51100000000E-03 0.  1.
         11   -1    0    0    0    0 -0.00000000000E+00 -0.00000000000E+00 -0.45593999997E+02  0.45594000000E+02  0.51100000000E-03 0. -1.
    9900012    2    1    2    0    0 -0.28556400552E+01 -0.18010629563E+02  0.41189513129E+02  0.46142318196E+02  0.10000003963E+02 0.  0.
         12    1    1    2    0    0  0.28556400552E+01  0.18010629563E+02 -0.41189513129E+02  0.45045681804E+02  0.00000000000E+00 0. -1.
         11    1    3    3    0    0  0.29409174509E+00 -0.86026359097E+00  0.17466412214E+01  0.19690858838E+01  0.51100000000E-03 0.  1.
        -11    1    3    3    0    0  0.29117596343E+01 -0.19421230475E+01  0.62860257451E+01  0.71947415540E+01  0.51100000000E-03 0. -1.
         12    1    3    3    0    0 -0.60614914346E+01 -0.15208242925E+02  0.33156846163E+02  0.36978490758E+02  0.00000000000E+00 0. -1.
</event>
<event>
 7    1  0.2353206E-008  0.4614232E+02  0.7816164E-02  0.1320468E+00
        -11   -1    0    0    0    0  0.00000000000E+00  0.00000000000E+00  0.45593999997E+02  0.45594000000E+02  0.51100000000E-03 0. -1.
         11   -1    0    0    0    0 -0.00000000000E+00 -0.00000000000E+00 -0.45593999997E+02  0.45594000000E+02  0.51100000000E-03 0.  1.
    9900012    2    1    2    0    0 -0.23504155725E+02 -0.35178322734E+01 -0.38266081501E+02  0.46142317924E+02  0.10000001484E+02 0.  0.
         12    1    1    2    0    0  0.23504155725E+02  0.35178322734E+01  0.38266081501E+02  0.45045682076E+02  0.00000000000E+00 0. -1.
         11    1    3    3    0    0 -0.72926088348E-01 -0.75170646083E+00  0.22485239754E+00  0.78799725850E+00  0.51100000000E-03 0. -1.
        -11    1    3    3    0    0 -0.70921399251E+01 -0.23906639535E+01 -0.97470627908E+01  0.12288977019E+02  0.51100000000E-03 0.  1.
        -12    1    3    3    0    0 -0.16339089711E+02 -0.37546185912E+00 -0.28743871108E+02  0.33065343647E+02  0.00000000000E+00 0.  1.
</event>
<event>
 7    1  0.2353206E-008  0.4614232E+02  0.7816164E-02  0.1320468E+00
        -11   -1    0    0    0    0  0.00000000000E+00  0.00000000000E+00  0.45593999997E+02  0.45594000000E+02  0.51100000000E-03 0.  1.
         11   -1    0    0    0    0 -0.00000000000E+00 -0.00000000000E+00 -0.45593999997E+02  0.45594000000E+02  0.51100000000E-03 0. -1.
    9900012    2    1    2    0    0  0.57619315511E+01  0.30891247172E+02  0.32274509550E+02  0.46142323473E+02  0.10000052084E+02 0.  0.
         12    1    1    2    0    0 -0.57619315511E+01 -0.30891247172E+02 -0.32274509550E+02  0.45045676527E+02  0.00000000000E+00 0. -1.
         11    1    3    3    0    0  0.17912214554E+00  0.13643232362E+00 -0.12229082046E-01  0.22549575056E+00  0.51100000000E-03 0. -1.
        -11    1    3    3    0    0 -0.23744232237E+01  0.89641197737E+01  0.11455353143E+02  0.14738332499E+02  0.51100000000E-03 0.  1.
        -12    1    3    3    0    0  0.79572326293E+01  0.21790695075E+02  0.20831385490E+02  0.31178495223E+02  0.00000000000E+00 0.  1.
</event>
<event>
 7    1  0.2353206E-008  0.4614231E+02  0.7816164E-02  0.1320468E+00
        -11   -1    0    0    0    0  0.00000000000E+00  0.00000000000E+00  0.45593999997E+02  0.45594000000E+02  0.51100000000E-03 0.  1.
         11   -1    0    0    0    0 -0.00000000000E+00 -0.00000000000E+00 -0.45593999997E+02  0.45594000000E+02  0.51100000000E-03 0. -1.
    9900012    2    1    2    0    0 -0.23679324184E+02 -0.26856917212E+02  0.27333305648E+02  0.46142312153E+02  0.99999488636E+01 0.  0.
         12    1    1    2    0    0  0.23679324184E+02  0.26856917212E+02 -0.27333305648E+02  0.45045687847E+02  0.00000000000E+00 0. -1.
         11    1    3    3    0    0 -0.61475244545E+01 -0.11175431322E+02  0.12233996791E+02  0.17673511250E+02  0.51100000000E-03 0.  1.
        -11    1    3    3    0    0 -0.37137476293E+01 -0.18580832745E+01  0.48976004848E+01  0.64211280691E+01  0.51100000000E-03 0. -1.
        -12    1    3    3    0    0 -0.13818052100E+02 -0.13823402616E+02  0.10201708372E+02  0.22047672835E+02  0.00000000000E+00 0.  1.
</event>
<event>
 7    1  0.2353206E-008  0.4614231E+02  0.7816164E-02  0.1320468E+00
        -11   -1    0    0    0    0  0.00000000000E+00  0.00000000000E+00  0.45593999997E+02  0.45594000000E+02  0.51100000000E-03 0.  1.
         11   -1    0    0    0    0 -0.00000000000E+00 -0.00000000000E+00 -0.45593999997E+02  0.45594000000E+02  0.51100000000E-03 0. -1.
    9900012    2    1    2    0    0 -0.18102743129E+01  0.38430457589E+01  0.44844930179E+02  0.46142313675E+02  0.99999627376E+01 0.  0.
         12    1    1    2    0    0  0.18102743129E+01 -0.38430457589E+01 -0.44844930179E+02  0.45045686325E+02  0.00000000000E+00 0. -1.
         11    1    3    3    0    0  0.19994800265E+00  0.23085296232E+00 -0.22215062375E+00  0.37765520615E+00  0.51100000000E-03 0. -1.
        -11    1    3    3    0    0  0.21267849143E+01  0.31223294949E+01  0.22898150846E+02  0.23207702772E+02  0.51100000000E-03 0.  1.
         12    1    3    3    0    0 -0.41370072299E+01  0.48986330164E+00  0.22168929957E+02  0.22556955696E+02  0.00000000000E+00 0. -1.
</event>
<event>
 7    1  0.2353206E-008  0.4614232E+02  0.7816164E-02  0.1320468E+00
        -11   -1    0    0    0    0  0.00000000000E+00  0.00000000000E+00  0.45593999997E+02  0.45594000000E+02  0.51100000000E-03 0.  1.
         11   -1    0    0    0    0 -0.00000000000E+00 -0.00000000000E+00 -0.45593999997E+02  0.45594000000E+02  0.51100000000E-03 0. -1.
    9900012    2    1    2    0    0 -0.16982509479E+02 -0.38087110486E+02  0.17031733997E+02  0.46142316785E+02  0.99999910992E+01 0.  0.
         12    1    1    2    0    0  0.16982509479E+02  0.38087110486E+02 -0.17031733997E+02  0.45045683215E+02  0.00000000000E+00 0. -1.
         11    1    3    3    0    0 -0.39738061122E+01 -0.16542860521E+02  0.47276009515E+01  0.17658074081E+02  0.51100000000E-03 0. -1.
        -11    1    3    3    0    0 -0.11570661188E+02 -0.21284683071E+02  0.11686191572E+02  0.26897676619E+02  0.51100000000E-03 0.  1.
        -12    1    3    3    0    0 -0.14380421780E+01 -0.25956689403E+00  0.61794147315E+00  0.15865660852E+01  0.00000000000E+00 0.  1.
</event>
<event>
 7    1  0.2353206E-008  0.4614232E+02  0.7816164E-02  0.1320468E+00
        -11   -1    0    0    0    0  0.00000000000E+00  0.00000000000E+00  0.45593999997E+02  0.45594000000E+02  0.51100000000E-03 0.  1.
         11   -1    0    0    0    0 -0.00000000000E+00 -0.00000000000E+00 -0.45593999997E+02  0.45594000000E+02  0.51100000000E-03 0. -1.
    9900012    2    1    2    0    0 -0.21590742245E+02  0.19041561873E+02  0.34646391023E+02  0.46142316076E+02  0.99999846366E+01 0.  0.
         12    1    1    2    0    0  0.21590742245E+02 -0.19041561873E+02 -0.34646391023E+02  0.45045683924E+02  0.00000000000E+00 0. -1.
         11    1    3    3    0    0 -0.31104739441E+01  0.12320506502E+01  0.83423401839E+01  0.89881943107E+01  0.51100000000E-03 0. -1.
        -11    1    3    3    0    0 -0.14921678311E+02  0.13947487393E+02  0.23717015743E+02  0.31299931697E+02  0.51100000000E-03 0.  1.
         12    1    3    3    0    0 -0.35585899896E+01  0.38620238296E+01  0.25870350958E+01  0.58541900688E+01  0.00000000000E+00 0. -1.
</event>
<event>
 7    1  0.2353206E-008  0.4614232E+02  0.7816164E-02  0.1320468E+00
        -11   -1    0    0    0    0  0.00000000000E+00  0.00000000000E+00  0.45593999997E+02  0.45594000000E+02  0.51100000000E-03 0.  1.
         11   -1    0    0    0    0 -0.00000000000E+00 -0.00000000000E+00 -0.45593999997E+02  0.45594000000E+02  0.51100000000E-03 0. -1.
    9900012    2    1    2    0    0  0.33861010949E+02 -0.59901197926E+01  0.29097488191E+02  0.46142318557E+02  0.10000007259E+02 0.  0.
         12    1    1    2    0    0 -0.33861010949E+02  0.59901197926E+01 -0.29097488191E+02  0.45045681443E+02  0.00000000000E+00 0. -1.
         11    1    3    3    0    0  0.29301995382E+01 -0.24084658167E+01  0.67657552541E+01  0.77564309669E+01  0.51100000000E-03 0. -1.
        -11    1    3    3    0    0  0.18714404225E+02 -0.32061006386E+01  0.13063095524E+02  0.23046745361E+02  0.51100000000E-03 0.  1.
         12    1    3    3    0    0  0.12216407186E+02 -0.37555333729E+00  0.92686374134E+01  0.15339142230E+02  0.00000000000E+00 0. -1.
</event>
<event>
 7    1  0.2353206E-008  0.4614232E+02  0.7816164E-02  0.1320468E+00
        -11   -1    0    0    0    0  0.00000000000E+00  0.00000000000E+00  0.45593999997E+02  0.45594000000E+02  0.51100000000E-03 0. -1.
         11   -1    0    0    0    0 -0.00000000000E+00 -0.00000000000E+00 -0.45593999997E+02  0.45594000000E+02  0.51100000000E-03 0.  1.
    9900012    2    1    2    0    0  0.36740715896E+02  0.12361941429E+02  0.22943750270E+02  0.46142317888E+02  0.10000001159E+02 0.  0.
         12    1    1    2    0    0 -0.36740715896E+02 -0.12361941429E+02 -0.22943750270E+02  0.45045682112E+02  0.00000000000E+00 0. -1.
         11    1    3    3    0    0  0.40028854014E+01  0.20469016183E+01  0.59478833721E+01  0.74558845647E+01  0.51100000000E-03 0. -1.
        -11    1    3    3    0    0  0.57069011445E+01 -0.12193871391E+00  0.37250718004E+01  0.68161389292E+01  0.51100000000E-03 0.  1.
         12    1    3    3    0    0  0.27030929350E+02  0.10436978525E+02  0.13270795097E+02  0.31870294394E+02  0.00000000000E+00 0. -1.
</event>
<event>
 7    1  0.2353206E-008  0.4614232E+02  0.7816164E-02  0.1320468E+00
        -11   -1    0    0    0    0  0.00000000000E+00  0.00000000000E+00  0.45593999997E+02  0.45594000000E+02  0.51100000000E-03 0.  1.
         11   -1    0    0    0    0 -0.00000000000E+00 -0.00000000000E+00 -0.45593999997E+02  0.45594000000E+02  0.51100000000E-03 0. -1.
    9900012    2    1    2    0    0 -0.85410026537E+01 -0.44016933409E+02  0.43213865305E+01  0.46142317248E+02  0.99999953231E+01 0.  0.
         12    1    1    2    0    0  0.85410026537E+01  0.44016933409E+02 -0.43213865305E+01  0.45045682752E+02  0.00000000000E+00 0. -1.
         11    1    3    3    0    0 -0.19437934799E+00 -0.97970205055E+00 -0.10368705480E+01  0.14396875471E+01  0.51100000000E-03 0. -1.
        -11    1    3    3    0    0 -0.73490629836E+01 -0.20633814722E+02  0.15741099593E+01  0.21959983131E+02  0.51100000000E-03 0.  1.
         12    1    3    3    0    0 -0.99756032219E+00 -0.22403416636E+02  0.37841471192E+01  0.22742646570E+02  0.00000000000E+00 0. -1.
</event>
<event>
 7    1  0.2353206E-008  0.4614232E+02  0.7816164E-02  0.1320468E+00
        -11   -1    0    0    0    0  0.00000000000E+00  0.00000000000E+00  0.45593999997E+02  0.45594000000E+02  0.51100000000E-03 0.  1.
         11   -1    0    0    0    0 -0.00000000000E+00 -0.00000000000E+00 -0.45593999997E+02  0.45594000000E+02  0.51100000000E-03 0. -1.
    9900012    2    1    2    0    0  0.32724929462E+02  0.15923057669E+02  0.26545219979E+02  0.46142317881E+02  0.10000001096E+02 0.  0.
         12    1    1    2    0    0 -0.32724929462E+02 -0.15923057669E+02 -0.26545219979E+02  0.45045682119E+02  0.00000000000E+00 0. -1.
         11    1    3    3    0    0  0.25222333855E+01 -0.67176374285E+00  0.69086507969E+00  0.27000412213E+01  0.51100000000E-03 0. -1.
        -11    1    3    3    0    0  0.17826629132E+02  0.67761729148E+01  0.15200080290E+02  0.24387448958E+02  0.51100000000E-03 0.  1.
        -12    1    3    3    0    0  0.12376066945E+02  0.98186484968E+01  0.10654274609E+02  0.19054827702E+02  0.00000000000E+00 0.  1.
</event>
<event>
 7    1  0.2353206E-008  0.4614232E+02  0.7816164E-02  0.1320468E+00
        -11   -1    0    0    0    0  0.00000000000E+00  0.00000000000E+00  0.45593999997E+02  0.45594000000E+02  0.51100000000E-03 0. -1.
         11   -1    0    0    0    0 -0.00000000000E+00 -0.00000000000E+00 -0.45593999997E+02  0.45594000000E+02  0.51100000000E-03 0.  1.
    9900012    2    1    2    0    0  0.98829919471E+01 -0.38866835171E+02 -0.20513630570E+02  0.46142318240E+02  0.10000004368E+02 0.  0.
         12    1    1    2    0    0 -0.98829919471E+01  0.38866835171E+02  0.20513630570E+02  0.45045681760E+02  0.00000000000E+00 0. -1.
         11    1    3    3    0    0  0.23595094523E+01 -0.37983532399E+01 -0.50939607742E-01  0.44718416000E+01  0.51100000000E-03 0. -1.
        -11    1    3    3    0    0  0.13771305443E+01 -0.19577214055E+02 -0.10613352948E+02  0.22311590256E+02  0.51100000000E-03 0.  1.
         12    1    3    3    0    0  0.61463519505E+01 -0.15491267877E+02 -0.98493380141E+01  0.19358886384E+02  0.00000000000E+00 0. -1.
</event>
<event>
 7    1  0.2353206E-008  0.4614232E+02  0.7816164E-02  0.1320468E+00
        -11   -1    0    0    0    0  0.00000000000E+00  0.00000000000E+00  0.45593999997E+02  0.45594000000E+02  0.51100000000E-03 0.  1.
         11   -1    0    0    0    0 -0.00000000000E+00 -0.00000000000E+00 -0.45593999997E+02  0.45594000000E+02  0.51100000000E-03 0. -1.
    9900012    2    1    2    0    0  0.14161041869E+02 -0.42155217710E+02  0.71774679870E+01  0.46142317258E+02  0.99999954127E+01 0.  0.
         12    1    1    2    0    0 -0.14161041869E+02  0.42155217710E+02 -0.71774679870E+01  0.45045682742E+02  0.00000000000E+00 0. -1.
         11    1    3    3    0    0  0.93800187497E+01 -0.17938950370E+02  0.58265999920E+01  0.21065136123E+02  0.51100000000E-03 0. -1.
        -11    1    3    3    0    0  0.48897833458E+01 -0.16992247716E+02  0.21335691001E+01  0.17810069651E+02  0.51100000000E-03 0.  1.
        -12    1    3    3    0    0 -0.10876022628E+00 -0.72240196231E+01 -0.78270110503E+00  0.72671114840E+01  0.00000000000E+00 0.  1.
</event>
<event>
 7    1  0.2353206E-008  0.4614232E+02  0.7816164E-02  0.1320468E+00
        -11   -1    0    0    0    0  0.00000000000E+00  0.00000000000E+00  0.45593999997E+02  0.45594000000E+02  0.51100000000E-03 0. -1.
         11   -1    0    0    0    0 -0.00000000000E+00 -0.00000000000E+00 -0.45593999997E+02  0.45594000000E+02  0.51100000000E-03 0.  1.
    9900012    2    1    2    0    0  0.16100237161E+02 -0.41848789743E+02  0.43098572911E+01  0.46142315307E+02  0.99999776198E+01 0.  0.
         12    1    1    2    0    0 -0.16100237161E+02  0.41848789743E+02 -0.43098572911E+01  0.45045684693E+02  0.00000000000E+00 0. -1.
         11    1    3    3    0    0  0.55502275994E+01 -0.85467050234E+01  0.40125468387E+01  0.10952247512E+02  0.51100000000E-03 0. -1.
        -11    1    3    3    0    0  0.18789523810E+01 -0.87279203843E+01 -0.15670305511E+01  0.90643610527E+01  0.51100000000E-03 0.  1.
        -12    1    3    3    0    0  0.86710571805E+01 -0.24574164335E+02  0.18643410035E+01  0.26125706742E+02  0.00000000000E+00 0.  1.
</event>
<event>
 7    1  0.2353206E-008  0.4614232E+02  0.7816164E-02  0.1320468E+00
        -11   -1    0    0    0    0  0.00000000000E+00  0.00000000000E+00  0.45593999997E+02  0.45594000000E+02  0.51100000000E-03 0.  1.
         11   -1    0    0    0    0 -0.00000000000E+00 -0.00000000000E+00 -0.45593999997E+02  0.45594000000E+02  0.51100000000E-03 0. -1.
    9900012    2    1    2    0    0 -0.44680762240E+02 -0.25499746754E+01  0.51225718862E+01  0.46142316212E+02  0.99999858759E+01 0.  0.
         12    1    1    2    0    0  0.44680762240E+02  0.25499746754E+01 -0.51225718862E+01  0.45045683788E+02  0.00000000000E+00 0. -1.
         11    1    3    3    0    0 -0.25543851475E+02 -0.27752553168E+01  0.36304378642E+01  0.25949382836E+02  0.51100000000E-03 0. -1.
        -11    1    3    3    0    0 -0.18017822358E+02  0.12735489312E+01  0.26704545250E+01  0.18259112164E+02  0.51100000000E-03 0.  1.
         12    1    3    3    0    0 -0.11190884075E+01 -0.10482682898E+01 -0.11783205031E+01  0.19338212118E+01  0.00000000000E+00 0. -1.
</event>
<event>
 7    1  0.2353206E-008  0.4614232E+02  0.7816164E-02  0.1320468E+00
        -11   -1    0    0    0    0  0.00000000000E+00  0.00000000000E+00  0.45593999997E+02  0.45594000000E+02  0.51100000000E-03 0. -1.
         11   -1    0    0    0    0 -0.00000000000E+00 -0.00000000000E+00 -0.45593999997E+02  0.45594000000E+02  0.51100000000E-03 0.  1.
    9900012    2    1    2    0    0  0.84713245931E+01 -0.37003099361E+02 -0.24251201338E+02  0.46142317975E+02  0.10000001954E+02 0.  0.
         12    1    1    2    0    0 -0.84713245931E+01  0.37003099361E+02  0.24251201338E+02  0.45045682025E+02  0.00000000000E+00 0. -1.
         11    1    3    3    0    0 -0.41056578080E+00 -0.20081582311E+01 -0.60385772659E+00  0.21367985765E+01  0.51100000000E-03 0. -1.
        -11    1    3    3    0    0  0.25506760838E+01 -0.14157786848E+01 -0.14481654279E+01  0.32569251045E+01  0.51100000000E-03 0.  1.
         12    1    3    3    0    0  0.63312142902E+01 -0.33579162445E+02 -0.22199178184E+02  0.40748594294E+02  0.00000000000E+00 0. -1.
</event>
<event>
 7    1  0.2353206E-008  0.4614232E+02  0.7816164E-02  0.1320468E+00
        -11   -1    0    0    0    0  0.00000000000E+00  0.00000000000E+00  0.45593999997E+02  0.45594000000E+02  0.51100000000E-03 0. -1.
         11   -1    0    0    0    0 -0.00000000000E+00 -0.00000000000E+00 -0.45593999997E+02  0.45594000000E+02  0.51100000000E-03 0.  1.
    9900012    2    1    2    0    0 -0.15801906241E+02 -0.38303409083E+02 -0.17670938617E+02  0.46142318078E+02  0.10000002886E+02 0.  0.
         12    1    1    2    0    0  0.15801906241E+02  0.38303409083E+02  0.17670938617E+02  0.45045681922E+02  0.00000000000E+00 0. -1.
         11    1    3    3    0    0 -0.41332860228E+01 -0.13608130821E+02 -0.86894459113E+01  0.16666485781E+02  0.51100000000E-03 0. -1.
        -11    1    3    3    0    0 -0.46196040371E+01 -0.13734186843E+02 -0.76231742518E+01  0.16373191980E+02  0.51100000000E-03 0.  1.
         12    1    3    3    0    0 -0.70490161815E+01 -0.10961091419E+02 -0.13583184541E+01  0.13102640316E+02  0.00000000000E+00 0. -1.
</event>
<event>
 7    1  0.2353206E-008  0.4614232E+02  0.7816164E-02  0.1320468E+00
        -11   -1    0    0    0    0  0.00000000000E+00  0.00000000000E+00  0.45593999997E+02  0.45594000000E+02  0.51100000000E-03 0.  1.
         11   -1    0    0    0    0 -0.00000000000E+00 -0.00000000000E+00 -0.45593999997E+02  0.45594000000E+02  0.51100000000E-03 0. -1.
    9900012    2    1    2    0    0  0.31842246716E+02 -0.84387502983E+01  0.30724133407E+02  0.46142317009E+02  0.99999931427E+01 0.  0.
         12    1    1    2    0    0 -0.31842246716E+02  0.84387502983E+01 -0.30724133407E+02  0.45045682991E+02  0.00000000000E+00 0. -1.
         11    1    3    3    0    0  0.39258789284E+01 -0.31351967762E+01  0.68434945552E+01  0.84897233273E+01  0.51100000000E-03 0. -1.
        -11    1    3    3    0    0  0.18686536461E+02 -0.11514700928E+01  0.13001026333E+02  0.22793402867E+02  0.51100000000E-03 0.  1.
        -12    1    3    3    0    0  0.92298313269E+01 -0.41520834293E+01  0.10879612518E+02  0.14859190815E+02  0.00000000000E+00 0.  1.
</event>
<event>
 7    1  0.2353206E-008  0.4614232E+02  0.7816164E-02  0.1320468E+00
        -11   -1    0    0    0    0  0.00000000000E+00  0.00000000000E+00  0.45593999997E+02  0.45594000000E+02  0.51100000000E-03 0.  1.
         11   -1    0    0    0    0 -0.00000000000E+00 -0.00000000000E+00 -0.45593999997E+02  0.45594000000E+02  0.51100000000E-03 0. -1.
    9900012    2    1    2    0    0  0.21188231457E+02 -0.21322227662E+02  0.33548991357E+02  0.46142319121E+02  0.10000012403E+02 0.  0.
         12    1    1    2    0    0 -0.21188231457E+02  0.21322227662E+02 -0.33548991357E+02  0.45045680879E+02  0.00000000000E+00 0. -1.
         11    1    3    3    0    0  0.64083078206E+00 -0.19235677977E+01  0.51990450706E+00  0.20931025109E+01  0.51100000000E-03 0. -1.
        -11    1    3    3    0    0  0.70528200465E+01 -0.81376615258E+01  0.77796837315E+01  0.13284851709E+02  0.51100000000E-03 0.  1.
        -12    1    3    3    0    0  0.13494580628E+02 -0.11260998338E+02  0.25249403119E+02  0.30764364901E+02  0.00000000000E+00 0.  1.
</event>
<event>
 7    1  0.2353206E-008  0.4614232E+02  0.7816164E-02  0.1320468E+00
        -11   -1    0    0    0    0  0.00000000000E+00  0.00000000000E+00  0.45593999997E+02  0.45594000000E+02  0.51100000000E-03 0.  1.
         11   -1    0    0    0    0 -0.00000000000E+00 -0.00000000000E+00 -0.45593999997E+02  0.45594000000E+02  0.51100000000E-03 0. -1.
    9900012    2    1    2    0    0 -0.24518556051E+02 -0.37609912768E+02  0.36672136340E+01  0.46142316687E+02  0.99999902098E+01 0.  0.
         12    1    1    2    0    0  0.24518556051E+02  0.37609912768E+02 -0.36672136340E+01  0.45045683313E+02  0.00000000000E+00 0. -1.
         11    1    3    3    0    0  0.30312244628E+00 -0.52266210725E+00 -0.36142405311E-01  0.60528128203E+00  0.51100000000E-03 0. -1.
        -11    1    3    3    0    0 -0.53853019088E+01 -0.31658431210E+01  0.12050718666E+01  0.63620938205E+01  0.51100000000E-03 0.  1.
        -12    1    3    3    0    0 -0.19436376588E+02 -0.33921407540E+02  0.24982841726E+01  0.39174941585E+02  0.00000000000E+00 0.  1.
</event>
<event>
 7    1  0.2353206E-008  0.4614232E+02  0.7816164E-02  0.1320468E+00
        -11   -1    0    0    0    0  0.00000000000E+00  0.00000000000E+00  0.45593999997E+02  0.45594000000E+02  0.51100000000E-03 0.  1.
         11   -1    0    0    0    0 -0.00000000000E+00 -0.00000000000E+00 -0.45593999997E+02  0.45594000000E+02  0.51100000000E-03 0. -1.
    9900012    2    1    2    0    0 -0.41466429918E+02  0.62986120546E+01 -0.16430949374E+02  0.46142318506E+02  0.10000006789E+02 0.  0.
         12    1    1    2    0    0  0.41466429918E+02 -0.62986120546E+01  0.16430949374E+02  0.45045681494E+02  0.00000000000E+00 0. -1.
         11    1    3    3    0    0 -0.99259248845E+01 -0.16790905518E+01 -0.39576508893E+01  0.10816946460E+02  0.51100000000E-03 0. -1.
        -11    1    3    3    0    0 -0.15789185430E+01  0.10184561055E+01 -0.22062993832E+01  0.28979292320E+01  0.51100000000E-03 0.  1.
        -12    1    3    3    0    0 -0.29961586490E+02  0.69592465009E+01 -0.10266999102E+02  0.32427442814E+02  0.00000000000E+00 0.  1.
</event>
<event>
 7    1  0.2353206E-008  0.4614232E+02  0.7816164E-02  0.1320468E+00
        -11   -1    0    0    0    0  0.00000000000E+00  0.00000000000E+00  0.45593999997E+02  0.45594000000E+02  0.51100000000E-03 0. -1.
         11   -1    0    0    0    0 -0.00000000000E+00 -0.00000000000E+00 -0.45593999997E+02  0.45594000000E+02  0.51100000000E-03 0.  1.
    9900012    2    1    2    0    0 -0.11629298554E+02  0.38450421149E+01 -0.43348455130E+02  0.46142317678E+02  0.99999992438E+01 0.  0.
         12    1    1    2    0    0  0.11629298554E+02 -0.38450421149E+01  0.43348455130E+02  0.45045682322E+02  0.00000000000E+00 0. -1.
         11    1    3    3    0    0 -0.34344737839E+01  0.38418044490E+00 -0.48310486012E+01  0.59398851533E+01  0.51100000000E-03 0. -1.
        -11    1    3    3    0    0 -0.79004746253E+01  0.11195118663E+01 -0.19964380693E+02  0.21499937275E+02  0.51100000000E-03 0.  1.
         12    1    3    3    0    0 -0.29435014444E+00  0.23413498037E+01 -0.18553025836E+02  0.18702495250E+02  0.00000000000E+00 0. -1.
</event>
<event>
 7    1  0.2353206E-008  0.4614232E+02  0.7816164E-02  0.1320468E+00
        -11   -1    0    0    0    0  0.00000000000E+00  0.00000000000E+00  0.45593999997E+02  0.45594000000E+02  0.51100000000E-03 0. -1.
         11   -1    0    0    0    0 -0.00000000000E+00 -0.00000000000E+00 -0.45593999997E+02  0.45594000000E+02  0.51100000000E-03 0.  1.
    9900012    2    1    2    0    0  0.93964770081E+01  0.29064827861E+02 -0.33106727670E+02  0.46142318567E+02  0.10000007349E+02 0.  0.
         12    1    1    2    0    0 -0.93964770081E+01 -0.29064827861E+02  0.33106727670E+02  0.45045681433E+02  0.00000000000E+00 0. -1.
         11    1    3    3    0    0 -0.10800598050E+01  0.14649843343E+01 -0.10636937857E+01  0.21081159866E+01  0.51100000000E-03 0. -1.
        -11    1    3    3    0    0 -0.34325753610E-01  0.24539828124E-01  0.27007133340E+00  0.27334821524E+00  0.51100000000E-03 0.  1.
        -12    1    3    3    0    0  0.10510862567E+02  0.27575303698E+02 -0.32313105218E+02  0.43760854365E+02  0.00000000000E+00 0.  1.
</event>
<event>
 7    1  0.2353206E-008  0.4614232E+02  0.7816164E-02  0.1320468E+00
        -11   -1    0    0    0    0  0.00000000000E+00  0.00000000000E+00  0.45593999997E+02  0.45594000000E+02  0.51100000000E-03 0.  1.
         11   -1    0    0    0    0 -0.00000000000E+00 -0.00000000000E+00 -0.45593999997E+02  0.45594000000E+02  0.51100000000E-03 0. -1.
    9900012    2    1    2    0    0  0.23380223293E+02 -0.11176712586E+02  0.36845077725E+02  0.46142317654E+02  0.99999990195E+01 0.  0.
         12    1    1    2    0    0 -0.23380223293E+02  0.11176712586E+02 -0.36845077725E+02  0.45045682346E+02  0.00000000000E+00 0. -1.
         11    1    3    3    0    0  0.16804622423E+02 -0.60119384772E+01  0.21582274886E+02  0.28005951663E+02  0.51100000000E-03 0. -1.
        -11    1    3    3    0    0  0.22793312438E+01 -0.80739650058E+00  0.10007746329E+01  0.26170193265E+01  0.51100000000E-03 0.  1.
        -12    1    3    3    0    0  0.42962696265E+01 -0.43573776080E+01  0.14262028206E+02  0.15519346664E+02  0.00000000000E+00 0.  1.
</event>
<event>
 7    1  0.2353206E-008  0.4614232E+02  0.7816164E-02  0.1320468E+00
        -11   -1    0    0    0    0  0.00000000000E+00  0.00000000000E+00  0.45593999997E+02  0.45594000000E+02  0.51100000000E-03 0.  1.
         11   -1    0    0    0    0 -0.00000000000E+00 -0.00000000000E+00 -0.45593999997E+02  0.45594000000E+02  0.51100000000E-03 0. -1.
    9900012    2    1    2    0    0 -0.45162480893E+01  0.38111903069E+02 -0.23583889068E+02  0.46142317899E+02  0.10000001261E+02 0.  0.
         12    1    1    2    0    0  0.45162480893E+01 -0.38111903069E+02  0.23583889068E+02  0.45045682101E+02  0.00000000000E+00 0. -1.
         11    1    3    3    0    0 -0.10495476382E+01  0.11766622533E+01  0.32173862047E-01  0.15770604686E+01  0.51100000000E-03 0. -1.
        -11    1    3    3    0    0 -0.30115643896E+01  0.30518768362E+02 -0.22502040238E+02  0.38036910462E+02  0.51100000000E-03 0.  1.
         12    1    3    3    0    0 -0.45513606148E+00  0.64164724535E+01 -0.11140226925E+01  0.65283469684E+01  0.00000000000E+00 0. -1.
</event>
<event>
 7    1  0.2353206E-008  0.4614232E+02  0.7816164E-02  0.1320468E+00
        -11   -1    0    0    0    0  0.00000000000E+00  0.00000000000E+00  0.45593999997E+02  0.45594000000E+02  0.51100000000E-03 0. -1.
         11   -1    0    0    0    0 -0.00000000000E+00 -0.00000000000E+00 -0.45593999997E+02  0.45594000000E+02  0.51100000000E-03 0.  1.
    9900012    2    1    2    0    0  0.33695890339E+02 -0.29837589860E+02  0.18489762729E+01  0.46142317547E+02  0.99999980519E+01 0.  0.
         12    1    1    2    0    0 -0.33695890339E+02  0.29837589860E+02 -0.18489762729E+01  0.45045682453E+02  0.00000000000E+00 0. -1.
         11    1    3    3    0    0  0.82212593093E+01 -0.49190255002E+01 -0.31491343047E+01  0.10084788725E+02  0.51100000000E-03 0. -1.
        -11    1    3    3    0    0  0.97688100061E+01 -0.10369781391E+02  0.10267519062E+01  0.14283425177E+02  0.51100000000E-03 0.  1.
         12    1    3    3    0    0  0.15705821023E+02 -0.14548782968E+02  0.39713586714E+01  0.21774103646E+02  0.00000000000E+00 0. -1.
</event>
<event>
 7    1  0.2353206E-008  0.4614232E+02  0.7816164E-02  0.1320468E+00
        -11   -1    0    0    0    0  0.00000000000E+00  0.00000000000E+00  0.45593999997E+02  0.45594000000E+02  0.51100000000E-03 0.  1.
         11   -1    0    0    0    0 -0.00000000000E+00 -0.00000000000E+00 -0.45593999997E+02  0.45594000000E+02  0.51100000000E-03 0. -1.
    9900012    2    1    2    0    0 -0.36450848027E+02 -0.26456051936E+02 -0.72568566230E+00  0.46142316238E+02  0.99999861105E+01 0.  0.
         12    1    1    2    0    0  0.36450848027E+02  0.26456051936E+02  0.72568566230E+00  0.45045683762E+02  0.00000000000E+00 0. -1.
         11    1    3    3    0    0 -0.24491519604E+02 -0.15372745749E+02 -0.36567288432E+01  0.29146655219E+02  0.51100000000E-03 0. -1.
        -11    1    3    3    0    0 -0.11048606278E+02 -0.10066586369E+02  0.15062319030E+01  0.15022536291E+02  0.51100000000E-03 0.  1.
         12    1    3    3    0    0 -0.91072214506E+00 -0.10167198183E+01  0.14248112779E+01  0.19731247279E+01  0.00000000000E+00 0. -1.
</event>
<event>
 7    1  0.2353206E-008  0.4614232E+02  0.7816164E-02  0.1320468E+00
        -11   -1    0    0    0    0  0.00000000000E+00  0.00000000000E+00  0.45593999997E+02  0.45594000000E+02  0.51100000000E-03 0. -1.
         11   -1    0    0    0    0 -0.00000000000E+00 -0.00000000000E+00 -0.45593999997E+02  0.45594000000E+02  0.51100000000E-03 0.  1.
    9900012    2    1    2    0    0  0.41561427506E+02  0.14689109964E+02 -0.92731503975E+01  0.46142317341E+02  0.99999961728E+01 0.  0.
         12    1    1    2    0    0 -0.41561427506E+02 -0.14689109964E+02  0.92731503975E+01  0.45045682659E+02  0.00000000000E+00 0. -1.
         11    1    3    3    0    0  0.23525679567E+02  0.11979310416E+02 -0.20091258942E+01  0.26476368034E+02  0.51100000000E-03 0. -1.
        -11    1    3    3    0    0  0.87252914934E+01  0.11277254943E+01 -0.40979751524E+01  0.97054560452E+01  0.51100000000E-03 0.  1.
         12    1    3    3    0    0  0.93104564457E+01  0.15820740536E+01 -0.31660493509E+01  0.99604932624E+01  0.00000000000E+00 0. -1.
</event>
<event>
 7    1  0.2353206E-008  0.4614232E+02  0.7816164E-02  0.1320468E+00
        -11   -1    0    0    0    0  0.00000000000E+00  0.00000000000E+00  0.45593999997E+02  0.45594000000E+02  0.51100000000E-03 0. -1.
         11   -1    0    0    0    0 -0.00000000000E+00 -0.00000000000E+00 -0.45593999997E+02  0.45594000000E+02  0.51100000000E-03 0.  1.
    9900012    2    1    2    0    0  0.10444523631E+02 -0.23924397775E+02 -0.36710328743E+02  0.46142321859E+02  0.10000037368E+02 0.  0.
         12    1    1    2    0    0 -0.10444523631E+02  0.23924397775E+02  0.36710328743E+02  0.45045678141E+02  0.00000000000E+00 0. -1.
         11    1    3    3    0    0  0.45004627049E+01 -0.32755159226E+01 -0.79366674758E+01  0.96940115535E+01  0.51100000000E-03 0. -1.
        -11    1    3    3    0    0 -0.76460726517E+00 -0.22987773657E+00 -0.53624691729E+00  0.96178431113E+00  0.51100000000E-03 0.  1.
        -12    1    3    3    0    0  0.67086681910E+01 -0.20419004116E+02 -0.28237414350E+02  0.35486525994E+02  0.00000000000E+00 0.  1.
</event>
<event>
 7    1  0.2353206E-008  0.4614232E+02  0.7816164E-02  0.1320468E+00
        -11   -1    0    0    0    0  0.00000000000E+00  0.00000000000E+00  0.45593999997E+02  0.45594000000E+02  0.51100000000E-03 0. -1.
         11   -1    0    0    0    0 -0.00000000000E+00 -0.00000000000E+00 -0.45593999997E+02  0.45594000000E+02  0.51100000000E-03 0.  1.
    9900012    2    1    2    0    0 -0.10459198557E+01  0.20124484420E+02 -0.40286780744E+02  0.46142317363E+02  0.99999963689E+01 0.  0.
         12    1    1    2    0    0  0.10459198557E+01 -0.20124484420E+02  0.40286780744E+02  0.45045682637E+02  0.00000000000E+00 0. -1.
         11    1    3    3    0    0 -0.11748363912E+00  0.58166125462E+01 -0.13679188984E+02  0.14864958643E+02  0.51100000000E-03 0. -1.
        -11    1    3    3    0    0 -0.43263554777E+01  0.70122597150E+01 -0.15589103768E+02  0.17632620184E+02  0.51100000000E-03 0.  1.
        -12    1    3    3    0    0  0.33979192611E+01  0.72956121587E+01 -0.11018487992E+02  0.13644738536E+02  0.00000000000E+00 0.  1.
</event>
<event>
 7    1  0.2353206E-008  0.4614232E+02  0.7816164E-02  0.1320468E+00
        -11   -1    0    0    0    0  0.00000000000E+00  0.00000000000E+00  0.45593999997E+02  0.45594000000E+02  0.51100000000E-03 0. -1.
         11   -1    0    0    0    0 -0.00000000000E+00 -0.00000000000E+00 -0.45593999997E+02  0.45594000000E+02  0.51100000000E-03 0.  1.
    9900012    2    1    2    0    0  0.15617074439E+02 -0.39333976472E+02 -0.15429151491E+02  0.46142318355E+02  0.10000005414E+02 0.  0.
         12    1    1    2    0    0 -0.15617074439E+02  0.39333976472E+02  0.15429151491E+02  0.45045681645E+02  0.00000000000E+00 0. -1.
         11    1    3    3    0    0  0.37923600177E+01 -0.88639956438E+01 -0.56111421876E+01  0.11155148147E+02  0.51100000000E-03 0. -1.
        -11    1    3    3    0    0  0.10300300469E+02 -0.27425615343E+02 -0.11129098250E+02  0.31338752286E+02  0.51100000000E-03 0.  1.
         12    1    3    3    0    0  0.15244139522E+01 -0.30443654850E+01  0.13110889469E+01  0.36484179216E+01  0.00000000000E+00 0. -1.
</event>
<event>
 7    1  0.2353206E-008  0.4614232E+02  0.7816164E-02  0.1320468E+00
        -11   -1    0    0    0    0  0.00000000000E+00  0.00000000000E+00  0.45593999997E+02  0.45594000000E+02  0.51100000000E-03 0.  1.
         11   -1    0    0    0    0 -0.00000000000E+00 -0.00000000000E+00 -0.45593999997E+02  0.45594000000E+02  0.51100000000E-03 0. -1.
    9900012    2    1    2    0    0 -0.35949404430E+02  0.34937226557E+01  0.26917425558E+02  0.46142316793E+02  0.99999911735E+01 0.  0.
         12    1    1    2    0    0  0.35949404430E+02 -0.34937226557E+01 -0.26917425558E+02  0.45045683207E+02  0.00000000000E+00 0. -1.
         11    1    3    3    0    0 -0.39808718450E+01 -0.19436595192E+01  0.25316431724E+01  0.51023886942E+01  0.51100000000E-03 0. -1.
        -11    1    3    3    0    0 -0.13686334509E+02  0.28650608369E+00  0.13091981567E+02  0.18941959234E+02  0.51100000000E-03 0.  1.
        -12    1    3    3    0    0 -0.18282198076E+02  0.51508760912E+01  0.11293800819E+02  0.22097968865E+02  0.00000000000E+00 0.  1.
</event>
<event>
 7    1  0.2353206E-008  0.4614232E+02  0.7816164E-02  0.1320468E+00
        -11   -1    0    0    0    0  0.00000000000E+00  0.00000000000E+00  0.45593999997E+02  0.45594000000E+02  0.51100000000E-03 0.  1.
         11   -1    0    0    0    0 -0.00000000000E+00 -0.00000000000E+00 -0.45593999997E+02  0.45594000000E+02  0.51100000000E-03 0. -1.
    9900012    2    1    2    0    0  0.14151985947E+02  0.10279439039E+02  0.41511056996E+02  0.46142318452E+02  0.10000006300E+02 0.  0.
         12    1    1    2    0    0 -0.14151985947E+02 -0.10279439039E+02 -0.41511056996E+02  0.45045681548E+02  0.00000000000E+00 0. -1.
         11    1    3    3    0    0  0.21840927764E+01 -0.17257499713E+01  0.51781161868E+01  0.58788911985E+01  0.51100000000E-03 0. -1.
        -11    1    3    3    0    0  0.61873594078E+01  0.38654456707E+01  0.17174775375E+02  0.18660064204E+02  0.51100000000E-03 0.  1.
         12    1    3    3    0    0  0.57805337626E+01  0.81397433394E+01  0.19158165435E+02  0.21603363049E+02  0.00000000000E+00 0. -1.
</event>
<event>
 7    1  0.2353206E-008  0.4614232E+02  0.7816164E-02  0.1320468E+00
        -11   -1    0    0    0    0  0.00000000000E+00  0.00000000000E+00  0.45593999997E+02  0.45594000000E+02  0.51100000000E-03 0. -1.
         11   -1    0    0    0    0 -0.00000000000E+00 -0.00000000000E+00 -0.45593999997E+02  0.45594000000E+02  0.51100000000E-03 0.  1.
    9900012    2    1    2    0    0 -0.33426902303E+02  0.88276957880E+01 -0.28876071943E+02  0.46142317173E+02  0.99999946380E+01 0.  0.
         12    1    1    2    0    0  0.33426902303E+02 -0.88276957880E+01  0.28876071943E+02  0.45045682827E+02  0.00000000000E+00 0. -1.
         11    1    3    3    0    0 -0.15282254173E+02 -0.99079526615E+00 -0.13251630505E+02  0.20251782123E+02  0.51100000000E-03 0. -1.
        -11    1    3    3    0    0 -0.59547472411E+01  0.28646488860E+01 -0.51974847535E+01  0.84070848675E+01  0.51100000000E-03 0.  1.
         12    1    3    3    0    0 -0.12189900889E+02  0.69538421681E+01 -0.10426956684E+02  0.17483450182E+02  0.00000000000E+00 0. -1.
</event>
<event>
 7    1  0.2353206E-008  0.4614232E+02  0.7816164E-02  0.1320468E+00
        -11   -1    0    0    0    0  0.00000000000E+00  0.00000000000E+00  0.45593999997E+02  0.45594000000E+02  0.51100000000E-03 0. -1.
         11   -1    0    0    0    0 -0.00000000000E+00 -0.00000000000E+00 -0.45593999997E+02  0.45594000000E+02  0.51100000000E-03 0.  1.
    9900012    2    1    2    0    0  0.34183052992E+02 -0.22629759118E+01 -0.29249126971E+02  0.46142316518E+02  0.99999886643E+01 0.  0.
         12    1    1    2    0    0 -0.34183052992E+02  0.22629759118E+01  0.29249126971E+02  0.45045683482E+02  0.00000000000E+00 0. -1.
         11    1    3    3    0    0  0.22006227800E+02 -0.44680983433E+01 -0.16665153154E+02  0.27963642372E+02  0.51100000000E-03 0. -1.
        -11    1    3    3    0    0  0.10191341457E+02  0.17004880385E+01 -0.77104872759E+01  0.12892118311E+02  0.51100000000E-03 0.  1.
         12    1    3    3    0    0  0.19854837351E+01  0.50463439295E+00 -0.48734865410E+01  0.52865558352E+01  0.00000000000E+00 0. -1.
</event>
<event>
 7    1  0.2353206E-008  0.4614233E+02  0.7816164E-02  0.1320468E+00
        -11   -1    0    0    0    0  0.00000000000E+00  0.00000000000E+00  0.45593999997E+02  0.45594000000E+02  0.51100000000E-03 0.  1.
         11   -1    0    0    0    0 -0.00000000000E+00 -0.00000000000E+00 -0.45593999997E+02  0.45594000000E+02  0.51100000000E-03 0. -1.
    9900012    2    1    2    0    0  0.21237728336E+02 -0.71348608448E+01  0.39078955747E+02  0.46142332878E+02  0.10000137849E+02 0.  0.
         12    1    1    2    0    0 -0.21237728336E+02  0.71348608448E+01 -0.39078955747E+02  0.45045667122E+02  0.00000000000E+00 0. -1.
         11    1    3    3    0    0  0.37520029991E+01 -0.17738948461E+01  0.22750325560E+01  0.47328641246E+01  0.51100000000E-03 0.  1.
        -11    1    3    3    0    0  0.12936178662E+02 -0.25952400213E+01  0.21718782005E+02  0.25412309638E+02  0.51100000000E-03 0. -1.
         12    1    3    3    0    0  0.45495466749E+01 -0.27657259774E+01  0.15085141187E+02  0.15997159115E+02  0.00000000000E+00 0. -1.
</event>
<event>
 7    1  0.2353206E-008  0.4614232E+02  0.7816164E-02  0.1320468E+00
        -11   -1    0    0    0    0  0.00000000000E+00  0.00000000000E+00  0.45593999997E+02  0.45594000000E+02  0.51100000000E-03 0.  1.
         11   -1    0    0    0    0 -0.00000000000E+00 -0.00000000000E+00 -0.45593999997E+02  0.45594000000E+02  0.51100000000E-03 0. -1.
    9900012    2    1    2    0    0  0.15007612649E+02 -0.14520996403E+02  0.39912723729E+02  0.46142319969E+02  0.10000020137E+02 0.  0.
         12    1    1    2    0    0 -0.15007612649E+02  0.14520996403E+02 -0.39912723729E+02  0.45045680031E+02  0.00000000000E+00 0. -1.
         11    1    3    3    0    0 -0.74665466792E+00 -0.13100858378E+01  0.69030303543E+01  0.70658082644E+01  0.51100000000E-03 0. -1.
        -11    1    3    3    0    0  0.41260276238E+01 -0.40961435491E+01  0.64479269983E+01  0.86820653513E+01  0.51100000000E-03 0.  1.
         12    1    3    3    0    0  0.11628239693E+02 -0.91147670158E+01  0.26561766377E+02  0.30394446354E+02  0.00000000000E+00 0. -1.
</event>
<event>
 7    1  0.2353206E-008  0.4614231E+02  0.7816164E-02  0.1320468E+00
        -11   -1    0    0    0    0  0.00000000000E+00  0.00000000000E+00  0.45593999997E+02  0.45594000000E+02  0.51100000000E-03 0.  1.
         11   -1    0    0    0    0 -0.00000000000E+00 -0.00000000000E+00 -0.45593999997E+02  0.45594000000E+02  0.51100000000E-03 0. -1.
    9900012    2    1    2    0    0  0.45468581622E+01 -0.36919112666E+02  0.25405107417E+02  0.46142308951E+02  0.99999196661E+01 0.  0.
         12    1    1    2    0    0 -0.45468581622E+01  0.36919112666E+02 -0.25405107417E+02  0.45045691049E+02  0.00000000000E+00 0. -1.
         11    1    3    3    0    0  0.23564779965E+01 -0.16911416094E+02  0.12541423705E+02  0.21185756811E+02  0.51100000000E-03 0. -1.
        -11    1    3    3    0    0  0.38213482824E+01 -0.16736620108E+02  0.12594058106E+02  0.21291487857E+02  0.51100000000E-03 0.  1.
         12    1    3    3    0    0 -0.16309681166E+01 -0.32710764643E+01  0.26962560537E+00  0.36650642832E+01  0.00000000000E+00 0. -1.
</event>
<event>
 7    1  0.2353206E-008  0.4614232E+02  0.7816164E-02  0.1320468E+00
        -11   -1    0    0    0    0  0.00000000000E+00  0.00000000000E+00  0.45593999997E+02  0.45594000000E+02  0.51100000000E-03 0. -1.
         11   -1    0    0    0    0 -0.00000000000E+00 -0.00000000000E+00 -0.45593999997E+02  0.45594000000E+02  0.51100000000E-03 0.  1.
    9900012    2    1    2    0    0 -0.42308727169E+02 -0.32977324966E+01 -0.15106621694E+02  0.46142318150E+02  0.10000003549E+02 0.  0.
         12    1    1    2    0    0  0.42308727169E+02  0.32977324966E+01  0.15106621694E+02  0.45045681850E+02  0.00000000000E+00 0. -1.
         11    1    3    3    0    0 -0.74001594620E+01 -0.20973693100E+00  0.10452839061E-01  0.74031384673E+01  0.51100000000E-03 0. -1.
        -11    1    3    3    0    0 -0.15229110900E+02 -0.35326141748E+01 -0.93976023808E+01  0.18240617108E+02  0.51100000000E-03 0.  1.
        -12    1    3    3    0    0 -0.19679456808E+02  0.44461860918E+00 -0.57194721521E+01  0.20498562575E+02  0.00000000000E+00 0.  1.
</event>
<event>
 7    1  0.2353206E-008  0.4614232E+02  0.7816164E-02  0.1320468E+00
        -11   -1    0    0    0    0  0.00000000000E+00  0.00000000000E+00  0.45593999997E+02  0.45594000000E+02  0.51100000000E-03 0.  1.
         11   -1    0    0    0    0 -0.00000000000E+00 -0.00000000000E+00 -0.45593999997E+02  0.45594000000E+02  0.51100000000E-03 0. -1.
    9900012    2    1    2    0    0  0.24222704232E+01  0.33403156804E+02  0.30124330901E+02  0.46142316625E+02  0.99999896378E+01 0.  0.
         12    1    1    2    0    0 -0.24222704232E+01 -0.33403156804E+02 -0.30124330901E+02  0.45045683375E+02  0.00000000000E+00 0. -1.
         11    1    3    3    0    0  0.11112050073E+01  0.11981917369E+02  0.54838843449E+01  0.13223997436E+02  0.51100000000E-03 0. -1.
        -11    1    3    3    0    0 -0.46901247173E+00  0.83515193478E+00  0.22774328373E+01  0.24706582205E+01  0.51100000000E-03 0.  1.
        -12    1    3    3    0    0  0.17800778876E+01  0.20586087500E+02  0.22363013719E+02  0.30447660968E+02  0.00000000000E+00 0.  1.
</event>
<event>
 7    1  0.2353206E-008  0.4614232E+02  0.7816164E-02  0.1320468E+00
        -11   -1    0    0    0    0  0.00000000000E+00  0.00000000000E+00  0.45593999997E+02  0.45594000000E+02  0.51100000000E-03 0.  1.
         11   -1    0    0    0    0 -0.00000000000E+00 -0.00000000000E+00 -0.45593999997E+02  0.45594000000E+02  0.51100000000E-03 0. -1.
    9900012    2    1    2    0    0  0.22818924156E+01  0.47287671831E+00  0.44985361708E+02  0.46142318594E+02  0.10000007591E+02 0.  0.
         12    1    1    2    0    0 -0.22818924156E+01 -0.47287671831E+00 -0.44985361708E+02  0.45045681406E+02  0.00000000000E+00 0. -1.
         11    1    3    3    0    0  0.82128526815E+00  0.14405307235E+00  0.20830067643E+00  0.85944762042E+00  0.51100000000E-03 0. -1.
        -11    1    3    3    0    0  0.24538219529E-01  0.33774789181E+01  0.22935082475E+02  0.23182449706E+02  0.51100000000E-03 0.  1.
        -12    1    3    3    0    0  0.14360689279E+01 -0.30486552721E+01  0.21841978556E+02  0.22100421267E+02  0.00000000000E+00 0.  1.
</event>
<event>
 7    1  0.2353206E-008  0.4614232E+02  0.7816164E-02  0.1320468E+00
        -11   -1    0    0    0    0  0.00000000000E+00  0.00000000000E+00  0.45593999997E+02  0.45594000000E+02  0.51100000000E-03 0.  1.
         11   -1    0    0    0    0 -0.00000000000E+00 -0.00000000000E+00 -0.45593999997E+02  0.45594000000E+02  0.51100000000E-03 0. -1.
    9900012    2    1    2    0    0  0.23347394511E+02  0.23411039453E+02  0.30593069766E+02  0.46142317449E+02  0.99999971582E+01 0.  0.
         12    1    1    2    0    0 -0.23347394511E+02 -0.23411039453E+02 -0.30593069766E+02  0.45045682551E+02  0.00000000000E+00 0. -1.
         11    1    3    3    0    0  0.88502723212E+01  0.88576026592E+01  0.14719812076E+02  0.19325043670E+02  0.51100000000E-03 0. -1.
        -11    1    3    3    0    0  0.10445577128E+01  0.33689600733E+01  0.56804376558E+00  0.35726274325E+01  0.51100000000E-03 0.  1.
        -12    1    3    3    0    0  0.13452564477E+02  0.11184476720E+02  0.15305213924E+02  0.23244646347E+02  0.00000000000E+00 0.  1.
</event>
<event>
 7    1  0.2353206E-008  0.4614232E+02  0.7816164E-02  0.1320468E+00
        -11   -1    0    0    0    0  0.00000000000E+00  0.00000000000E+00  0.45593999997E+02  0.45594000000E+02  0.51100000000E-03 0. -1.
         11   -1    0    0    0    0 -0.00000000000E+00 -0.00000000000E+00 -0.45593999997E+02  0.45594000000E+02  0.51100000000E-03 0.  1.
    9900012    2    1    2    0    0 -0.44792283173E+02  0.44989145750E+01 -0.15888938275E+01  0.46142318212E+02  0.10000004110E+02 0.  0.
         12    1    1    2    0    0  0.44792283173E+02 -0.44989145750E+01  0.15888938275E+01  0.45045681788E+02  0.00000000000E+00 0. -1.
         11    1    3    3    0    0 -0.30509396543E+01 -0.19493036031E+01  0.26145268221E+00  0.36299276959E+01  0.51100000000E-03 0. -1.
        -11    1    3    3    0    0 -0.65344250560E+01 -0.36257582035E+00 -0.11575300962E+01  0.66460550873E+01  0.51100000000E-03 0.  1.
        -12    1    3    3    0    0 -0.35206918462E+02  0.68107939985E+01 -0.69281641352E+00  0.35866335429E+02  0.00000000000E+00 0.  1.
</event>
<event>
 7    1  0.2353206E-008  0.4614232E+02  0.7816164E-02  0.1320468E+00
        -11   -1    0    0    0    0  0.00000000000E+00  0.00000000000E+00  0.45593999997E+02  0.45594000000E+02  0.51100000000E-03 0. -1.
         11   -1    0    0    0    0 -0.00000000000E+00 -0.00000000000E+00 -0.45593999997E+02  0.45594000000E+02  0.51100000000E-03 0.  1.
    9900012    2    1    2    0    0 -0.18972169771E+02 -0.23499137579E+02 -0.33420961533E+02  0.46142319158E+02  0.10000012734E+02 0.  0.
         12    1    1    2    0    0  0.18972169771E+02  0.23499137579E+02  0.33420961533E+02  0.45045680842E+02  0.00000000000E+00 0. -1.
         11    1    3    3    0    0 -0.42468162606E+01 -0.62072678929E+01 -0.40435381534E+01  0.85390763028E+01  0.51100000000E-03 0. -1.
        -11    1    3    3    0    0 -0.40874945090E+01 -0.14945931535E+01 -0.66983304744E+01  0.79880568013E+01  0.51100000000E-03 0.  1.
        -12    1    3    3    0    0 -0.10637859001E+02 -0.15797276533E+02 -0.22679092905E+02  0.29615186053E+02  0.00000000000E+00 0.  1.
</event>
<event>
 7    1  0.2353206E-008  0.4614232E+02  0.7816164E-02  0.1320468E+00
        -11   -1    0    0    0    0  0.00000000000E+00  0.00000000000E+00  0.45593999997E+02  0.45594000000E+02  0.51100000000E-03 0.  1.
         11   -1    0    0    0    0 -0.00000000000E+00 -0.00000000000E+00 -0.45593999997E+02  0.45594000000E+02  0.51100000000E-03 0. -1.
    9900012    2    1    2    0    0 -0.26292581826E+02 -0.16036971028E+02  0.32872922377E+02  0.46142319580E+02  0.10000016589E+02 0.  0.
         12    1    1    2    0    0  0.26292581826E+02  0.16036971028E+02 -0.32872922377E+02  0.45045680420E+02  0.00000000000E+00 0. -1.
         11    1    3    3    0    0 -0.55232042392E+01 -0.27398811443E+01  0.41312988704E+01  0.74216146741E+01  0.51100000000E-03 0. -1.
        -11    1    3    3    0    0 -0.11439407235E+02 -0.11168558120E+02  0.14634918372E+02  0.21674352687E+02  0.51100000000E-03 0.  1.
         12    1    3    3    0    0 -0.93299703514E+01 -0.21285317644E+01  0.14106705135E+02  0.17046352219E+02  0.00000000000E+00 0. -1.
</event>
<event>
 7    1  0.2353206E-008  0.4614232E+02  0.7816164E-02  0.1320468E+00
        -11   -1    0    0    0    0  0.00000000000E+00  0.00000000000E+00  0.45593999997E+02  0.45594000000E+02  0.51100000000E-03 0.  1.
         11   -1    0    0    0    0 -0.00000000000E+00 -0.00000000000E+00 -0.45593999997E+02  0.45594000000E+02  0.51100000000E-03 0. -1.
    9900012    2    1    2    0    0  0.25156612740E+02 -0.21962482793E+02  0.30230906193E+02  0.46142317585E+02  0.99999983922E+01 0.  0.
         12    1    1    2    0    0 -0.25156612740E+02  0.21962482793E+02 -0.30230906193E+02  0.45045682415E+02  0.00000000000E+00 0. -1.
         11    1    3    3    0    0  0.81022769457E+01 -0.40176003103E+01  0.54368388580E+01  0.10552119265E+02  0.51100000000E-03 0. -1.
        -11    1    3    3    0    0  0.14601931501E+02 -0.12062590632E+02  0.20473708742E+02  0.27890773496E+02  0.51100000000E-03 0.  1.
        -12    1    3    3    0    0  0.24524042935E+01 -0.58822918505E+01  0.43203585932E+01  0.76994248232E+01  0.00000000000E+00 0.  1.
</event>
<event>
 7    1  0.2353206E-008  0.4614232E+02  0.7816164E-02  0.1320468E+00
        -11   -1    0    0    0    0  0.00000000000E+00  0.00000000000E+00  0.45593999997E+02  0.45594000000E+02  0.51100000000E-03 0. -1.
         11   -1    0    0    0    0 -0.00000000000E+00 -0.00000000000E+00 -0.45593999997E+02  0.45594000000E+02  0.51100000000E-03 0.  1.
    9900012    2    1    2    0    0 -0.30645215340E+02  0.23850847752E+02 -0.22828081900E+02  0.46142317799E+02  0.10000000346E+02 0.  0.
         12    1    1    2    0    0  0.30645215340E+02 -0.23850847752E+02  0.22828081900E+02  0.45045682201E+02  0.00000000000E+00 0. -1.
         11    1    3    3    0    0 -0.25319788406E+01  0.48129647421E+01 -0.33220121282E+01  0.63727004715E+01  0.51100000000E-03 0. -1.
        -11    1    3    3    0    0 -0.14569160368E+02  0.12031809060E+02 -0.14155206445E+02  0.23609208645E+02  0.51100000000E-03 0.  1.
        -12    1    3    3    0    0 -0.13544076131E+02  0.70060739497E+01 -0.53508633262E+01  0.16160408682E+02  0.00000000000E+00 0.  1.
</event>
<event>
 7    1  0.2353206E-008  0.4614232E+02  0.7816164E-02  0.1320468E+00
        -11   -1    0    0    0    0  0.00000000000E+00  0.00000000000E+00  0.45593999997E+02  0.45594000000E+02  0.51100000000E-03 0.  1.
         11   -1    0    0    0    0 -0.00000000000E+00 -0.00000000000E+00 -0.45593999997E+02  0.45594000000E+02  0.51100000000E-03 0. -1.
    9900012    2    1    2    0    0  0.32777956197E+02 -0.29759946988E+02 -0.83105111740E+01  0.46142318152E+02  0.10000003562E+02 0.  0.
         12    1    1    2    0    0 -0.32777956197E+02  0.29759946988E+02  0.83105111740E+01  0.45045681848E+02  0.00000000000E+00 0. -1.
         11    1    3    3    0    0  0.47746720297E+01 -0.83992172781E+01 -0.30074292395E+01  0.10118743735E+02  0.51100000000E-03 0. -1.
        -11    1    3    3    0    0  0.10371349452E+02 -0.11264256814E+02 -0.24327489741E+01  0.15503762087E+02  0.51100000000E-03 0.  1.
        -12    1    3    3    0    0  0.17631934715E+02 -0.10096472897E+02 -0.28703329603E+01  0.20519812330E+02  0.00000000000E+00 0.  1.
</event>
<event>
 7    1  0.2353206E-008  0.4614232E+02  0.7816164E-02  0.1320468E+00
        -11   -1    0    0    0    0  0.00000000000E+00  0.00000000000E+00  0.45593999997E+02  0.45594000000E+02  0.51100000000E-03 0.  1.
         11   -1    0    0    0    0 -0.00000000000E+00 -0.00000000000E+00 -0.45593999997E+02  0.45594000000E+02  0.51100000000E-03 0. -1.
    9900012    2    1    2    0    0 -0.22761005443E+02 -0.24148940442E+02  0.30461104102E+02  0.46142317006E+02  0.99999931174E+01 0.  0.
         12    1    1    2    0    0  0.22761005443E+02  0.24148940442E+02 -0.30461104102E+02  0.45045682994E+02  0.00000000000E+00 0. -1.
         11    1    3    3    0    0 -0.97247559912E+01 -0.15785033563E+02  0.18098735820E+02  0.25909504091E+02  0.51100000000E-03 0. -1.
        -11    1    3    3    0    0 -0.56805786511E+01 -0.36212187131E+01  0.79848948876E+01  0.10447044817E+02  0.51100000000E-03 0.  1.
         12    1    3    3    0    0 -0.73556708003E+01 -0.47426881657E+01  0.43774733945E+01  0.97857680986E+01  0.00000000000E+00 0. -1.
</event>
<event>
 7    1  0.2353206E-008  0.4614232E+02  0.7816164E-02  0.1320468E+00
        -11   -1    0    0    0    0  0.00000000000E+00  0.00000000000E+00  0.45593999997E+02  0.45594000000E+02  0.51100000000E-03 0.  1.
         11   -1    0    0    0    0 -0.00000000000E+00 -0.00000000000E+00 -0.45593999997E+02  0.45594000000E+02  0.51100000000E-03 0. -1.
    9900012    2    1    2    0    0  0.24676604986E+02 -0.12991028158E+02  0.35375299018E+02  0.46142318444E+02  0.10000006229E+02 0.  0.
         12    1    1    2    0    0 -0.24676604986E+02  0.12991028158E+02 -0.35375299018E+02  0.45045681556E+02  0.00000000000E+00 0. -1.
         11    1    3    3    0    0  0.58311183772E+01 -0.45241938923E+01  0.69273029972E+01  0.10122143991E+02  0.51100000000E-03 0. -1.
        -11    1    3    3    0    0  0.12981758520E+02 -0.82184373055E+01  0.15603557296E+02  0.21898396438E+02  0.51100000000E-03 0.  1.
         12    1    3    3    0    0  0.58637280888E+01 -0.24839696053E+00  0.12844438725E+02  0.14121778015E+02  0.00000000000E+00 0. -1.
</event>
<event>
 7    1  0.2353206E-008  0.4614232E+02  0.7816164E-02  0.1320468E+00
        -11   -1    0    0    0    0  0.00000000000E+00  0.00000000000E+00  0.45593999997E+02  0.45594000000E+02  0.51100000000E-03 0.  1.
         11   -1    0    0    0    0 -0.00000000000E+00 -0.00000000000E+00 -0.45593999997E+02  0.45594000000E+02  0.51100000000E-03 0. -1.
    9900012    2    1    2    0    0 -0.35569046789E+02 -0.27170097264E+02  0.50736634910E+01  0.46142319452E+02  0.10000015422E+02 0.  0.
         12    1    1    2    0    0  0.35569046789E+02  0.27170097264E+02 -0.50736634910E+01  0.45045680548E+02  0.00000000000E+00 0. -1.
         11    1    3    3    0    0 -0.80523940664E+01 -0.75246845558E+01  0.61535955865E+00  0.11038142756E+02  0.51100000000E-03 0. -1.
        -11    1    3    3    0    0 -0.26971688802E+02 -0.20370382558E+02  0.47920110615E+01  0.34137777500E+02  0.51100000000E-03 0.  1.
         12    1    3    3    0    0 -0.54496392044E+00  0.72496984966E+00 -0.33370712908E+00  0.96639919572E+00  0.00000000000E+00 0. -1.
</event>
<event>
 7    1  0.2353206E-008  0.4614232E+02  0.7816164E-02  0.1320468E+00
        -11   -1    0    0    0    0  0.00000000000E+00  0.00000000000E+00  0.45593999997E+02  0.45594000000E+02  0.51100000000E-03 0.  1.
         11   -1    0    0    0    0 -0.00000000000E+00 -0.00000000000E+00 -0.45593999997E+02  0.45594000000E+02  0.51100000000E-03 0. -1.
    9900012    2    1    2    0    0 -0.10600375472E+01 -0.43928512588E+02 -0.99133954099E+01  0.46142319781E+02  0.10000018423E+02 0.  0.
         12    1    1    2    0    0  0.10600375472E+01  0.43928512588E+02  0.99133954099E+01  0.45045680219E+02  0.00000000000E+00 0. -1.
         11    1    3    3    0    0 -0.29028593616E+01 -0.13393284946E+02 -0.20407535471E+01  0.13855372583E+02  0.51100000000E-03 0. -1.
        -11    1    3    3    0    0 -0.12309211897E+01 -0.22086517159E+02 -0.72349413089E+01  0.23273886293E+02  0.51100000000E-03 0.  1.
         12    1    3    3    0    0  0.30737430041E+01 -0.84487104832E+01 -0.63770055391E+00  0.90130609052E+01  0.00000000000E+00 0. -1.
</event>
<event>
 7    1  0.2353206E-008  0.4614232E+02  0.7816164E-02  0.1320468E+00
        -11   -1    0    0    0    0  0.00000000000E+00  0.00000000000E+00  0.45593999997E+02  0.45594000000E+02  0.51100000000E-03 0.  1.
         11   -1    0    0    0    0 -0.00000000000E+00 -0.00000000000E+00 -0.45593999997E+02  0.45594000000E+02  0.51100000000E-03 0. -1.
    9900012    2    1    2    0    0 -0.41311923863E+02 -0.85643403664E+01  0.15782602622E+02  0.46142317358E+02  0.99999963254E+01 0.  0.
         12    1    1    2    0    0  0.41311923863E+02  0.85643403664E+01 -0.15782602622E+02  0.45045682642E+02  0.00000000000E+00 0. -1.
         11    1    3    3    0    0 -0.16687783160E+01  0.98015816010E+00 -0.70129300260E+00  0.20584808047E+01  0.51100000000E-03 0. -1.
        -11    1    3    3    0    0 -0.21594814290E+02 -0.58646200117E+01  0.75882653103E+01  0.23628617030E+02  0.51100000000E-03 0.  1.
         12    1    3    3    0    0 -0.18048331257E+02 -0.36798785148E+01  0.88956303147E+01  0.20455219523E+02  0.00000000000E+00 0. -1.
</event>
<event>
 7    1  0.2353206E-008  0.4614232E+02  0.7816164E-02  0.1320468E+00
        -11   -1    0    0    0    0  0.00000000000E+00  0.00000000000E+00  0.45593999997E+02  0.45594000000E+02  0.51100000000E-03 0.  1.
         11   -1    0    0    0    0 -0.00000000000E+00 -0.00000000000E+00 -0.45593999997E+02  0.45594000000E+02  0.51100000000E-03 0. -1.
    9900012    2    1    2    0    0 -0.24395468246E+02  0.66079020916E+01  0.37286864162E+02  0.46142317854E+02  0.10000000844E+02 0.  0.
         12    1    1    2    0    0  0.24395468246E+02 -0.66079020916E+01 -0.37286864162E+02  0.45045682146E+02  0.00000000000E+00 0. -1.
         11    1    3    3    0    0 -0.74811638417E+01 -0.18180295465E+01  0.11318156705E+02  0.13688451897E+02  0.51100000000E-03 0. -1.
        -11    1    3    3    0    0 -0.62739514455E+01  0.22437772321E+01  0.58332918327E+01  0.88557493683E+01  0.51100000000E-03 0.  1.
         12    1    3    3    0    0 -0.10640352959E+02  0.61821544059E+01  0.20135415624E+02  0.23598116589E+02  0.00000000000E+00 0. -1.
</event>
<event>
 7    1  0.2353206E-008  0.4614232E+02  0.7816164E-02  0.1320468E+00
        -11   -1    0    0    0    0  0.00000000000E+00  0.00000000000E+00  0.45593999997E+02  0.45594000000E+02  0.51100000000E-03 0. -1.
         11   -1    0    0    0    0 -0.00000000000E+00 -0.00000000000E+00 -0.45593999997E+02  0.45594000000E+02  0.51100000000E-03 0.  1.
    9900012    2    1    2    0    0 -0.19975771336E+02  0.22508951894E+02  0.33517593588E+02  0.46142318345E+02  0.10000005321E+02 0.  0.
         12    1    1    2    0    0  0.19975771336E+02 -0.22508951894E+02 -0.33517593588E+02  0.45045681655E+02  0.00000000000E+00 0. -1.
         11    1    3    3    0    0 -0.77326170843E+01  0.60834596245E+01  0.78209967995E+01  0.12568605299E+02  0.51100000000E-03 0.  1.
        -11    1    3    3    0    0 -0.25570165076E+00  0.19134090226E+01  0.61145832776E+01  0.64120703631E+01  0.51100000000E-03 0. -1.
         12    1    3    3    0    0 -0.11987452601E+02  0.14512083247E+02  0.19582013511E+02  0.27161642682E+02  0.00000000000E+00 0. -1.
</event>
<event>
 7    1  0.2353206E-008  0.4614232E+02  0.7816164E-02  0.1320468E+00
        -11   -1    0    0    0    0  0.00000000000E+00  0.00000000000E+00  0.45593999997E+02  0.45594000000E+02  0.51100000000E-03 0. -1.
         11   -1    0    0    0    0 -0.00000000000E+00 -0.00000000000E+00 -0.45593999997E+02  0.45594000000E+02  0.51100000000E-03 0.  1.
    9900012    2    1    2    0    0  0.22195397533E+02  0.10837952374E+02 -0.37669836472E+02  0.46142318041E+02  0.10000002551E+02 0.  0.
         12    1    1    2    0    0 -0.22195397533E+02 -0.10837952374E+02  0.37669836472E+02  0.45045681959E+02  0.00000000000E+00 0. -1.
         11    1    3    3    0    0  0.13315243382E+01 -0.10274507685E+01 -0.49635802328E+01  0.52407767681E+01  0.51100000000E-03 0. -1.
        -11    1    3    3    0    0  0.14559519093E+02  0.96314785893E+01 -0.26768247125E+02  0.31957534799E+02  0.51100000000E-03 0.  1.
        -12    1    3    3    0    0  0.63043541023E+01  0.22339245536E+01 -0.59380091140E+01  0.89440064734E+01  0.00000000000E+00 0.  1.
</event>
<event>
 7    1  0.2353206E-008  0.4614232E+02  0.7816164E-02  0.1320468E+00
        -11   -1    0    0    0    0  0.00000000000E+00  0.00000000000E+00  0.45593999997E+02  0.45594000000E+02  0.51100000000E-03 0.  1.
         11   -1    0    0    0    0 -0.00000000000E+00 -0.00000000000E+00 -0.45593999997E+02  0.45594000000E+02  0.51100000000E-03 0. -1.
    9900012    2    1    2    0    0  0.33744873884E+02  0.49351141485E+01  0.29428583990E+02  0.46142318511E+02  0.10000006841E+02 0.  0.
         12    1    1    2    0    0 -0.33744873884E+02 -0.49351141485E+01 -0.29428583990E+02  0.45045681489E+02  0.00000000000E+00 0. -1.
         11    1    3    3    0    0  0.15629299828E+01  0.31926730443E+00 -0.55130783176E+00  0.16877862214E+01  0.51100000000E-03 0. -1.
        -11    1    3    3    0    0  0.14787456701E+02  0.27497919937E+01  0.16812712958E+02  0.22558757700E+02  0.51100000000E-03 0.  1.
        -12    1    3    3    0    0  0.17394487200E+02  0.18660548503E+01  0.13167178864E+02  0.21895774590E+02  0.00000000000E+00 0.  1.
</event>
<event>
 7    1  0.2353206E-008  0.4614232E+02  0.7816164E-02  0.1320468E+00
        -11   -1    0    0    0    0  0.00000000000E+00  0.00000000000E+00  0.45593999997E+02  0.45594000000E+02  0.51100000000E-03 0.  1.
         11   -1    0    0    0    0 -0.00000000000E+00 -0.00000000000E+00 -0.45593999997E+02  0.45594000000E+02  0.51100000000E-03 0. -1.
    9900012    2    1    2    0    0 -0.10127101745E+01  0.40278415800E+01  0.44853810901E+02  0.46142318275E+02  0.10000004686E+02 0.  0.
         12    1    1    2    0    0  0.10127101745E+01 -0.40278415800E+01 -0.44853810901E+02  0.45045681725E+02  0.00000000000E+00 0. -1.
         11    1    3    3    0    0 -0.12593843538E+01 -0.15201192535E+01  0.18460240732E+02  0.18565486787E+02  0.51100000000E-03 0. -1.
        -11    1    3    3    0    0 -0.76404084439E+00 -0.44308719936E+00  0.10882389088E+02  0.10918171880E+02  0.51100000000E-03 0.  1.
         12    1    3    3    0    0  0.10107150237E+01  0.59910480328E+01  0.15511181082E+02  0.16658659608E+02  0.00000000000E+00 0. -1.
</event>
<event>
 7    1  0.2353206E-008  0.4614232E+02  0.7816164E-02  0.1320468E+00
        -11   -1    0    0    0    0  0.00000000000E+00  0.00000000000E+00  0.45593999997E+02  0.45594000000E+02  0.51100000000E-03 0.  1.
         11   -1    0    0    0    0 -0.00000000000E+00 -0.00000000000E+00 -0.45593999997E+02  0.45594000000E+02  0.51100000000E-03 0. -1.
    9900012    2    1    2    0    0 -0.28820255459E+02 -0.11118215001E+02  0.32785540845E+02  0.46142317432E+02  0.99999969992E+01 0.  0.
         12    1    1    2    0    0  0.28820255459E+02  0.11118215001E+02 -0.32785540845E+02  0.45045682568E+02  0.00000000000E+00 0. -1.
         11    1    3    3    0    0 -0.81041072295E+01 -0.47912129888E+01  0.88396831042E+01  0.12914033976E+02  0.51100000000E-03 0. -1.
        -11    1    3    3    0    0 -0.10604292635E+02 -0.34232456781E+01  0.17926251526E+02  0.21107347708E+02  0.51100000000E-03 0.  1.
         12    1    3    3    0    0 -0.10111855595E+02 -0.29037563339E+01  0.60196062147E+01  0.12120935748E+02  0.00000000000E+00 0. -1.
</event>
<event>
 7    1  0.2353206E-008  0.4614232E+02  0.7816164E-02  0.1320468E+00
        -11   -1    0    0    0    0  0.00000000000E+00  0.00000000000E+00  0.45593999997E+02  0.45594000000E+02  0.51100000000E-03 0.  1.
         11   -1    0    0    0    0 -0.00000000000E+00 -0.00000000000E+00 -0.45593999997E+02  0.45594000000E+02  0.51100000000E-03 0. -1.
    9900012    2    1    2    0    0 -0.42696859505E+02  0.80512217430E+01  0.11885686905E+02  0.46142317228E+02  0.99999951389E+01 0.  0.
         12    1    1    2    0    0  0.42696859505E+02 -0.80512217430E+01 -0.11885686905E+02  0.45045682772E+02  0.00000000000E+00 0. -1.
         11    1    3    3    0    0 -0.28840534908E+02  0.41870299984E+01  0.42164897372E+01  0.29446331859E+02  0.51100000000E-03 0. -1.
        -11    1    3    3    0    0 -0.67249179024E+01  0.11983269579E-01  0.34491301125E+01  0.75578544036E+01  0.51100000000E-03 0.  1.
        -12    1    3    3    0    0 -0.71314066949E+01  0.38522084750E+01  0.42200670555E+01  0.91381309652E+01  0.00000000000E+00 0.  1.
</event>
<event>
 7    1  0.2353206E-008  0.4614232E+02  0.7816164E-02  0.1320468E+00
        -11   -1    0    0    0    0  0.00000000000E+00  0.00000000000E+00  0.45593999997E+02  0.45594000000E+02  0.51100000000E-03 0.  1.
         11   -1    0    0    0    0 -0.00000000000E+00 -0.00000000000E+00 -0.45593999997E+02  0.45594000000E+02  0.51100000000E-03 0. -1.
    9900012    2    1    2    0    0 -0.19380721518E+02 -0.23115125011E+02  0.33454326620E+02  0.46142319404E+02  0.10000014977E+02 0.  0.
         12    1    1    2    0    0  0.19380721518E+02  0.23115125011E+02 -0.33454326620E+02  0.45045680596E+02  0.00000000000E+00 0. -1.
         11    1    3    3    0    0 -0.33826555471E+01 -0.44939047414E+01  0.76936742964E+01  0.95304859695E+01  0.51100000000E-03 0. -1.
        -11    1    3    3    0    0 -0.27246681582E+01 -0.30696598715E+01  0.99583240936E+01  0.10771018861E+02  0.51100000000E-03 0.  1.
         12    1    3    3    0    0 -0.13273397812E+02 -0.15551560398E+02  0.15802328230E+02  0.25840814573E+02  0.00000000000E+00 0. -1.
</event>
<event>
 7    1  0.2353206E-008  0.4614232E+02  0.7816164E-02  0.1320468E+00
        -11   -1    0    0    0    0  0.00000000000E+00  0.00000000000E+00  0.45593999997E+02  0.45594000000E+02  0.51100000000E-03 0.  1.
         11   -1    0    0    0    0 -0.00000000000E+00 -0.00000000000E+00 -0.45593999997E+02  0.45594000000E+02  0.51100000000E-03 0. -1.
    9900012    2    1    2    0    0 -0.39779800359E+02 -0.12480119027E+02  0.17056586375E+02  0.46142322890E+02  0.10000046772E+02 0.  0.
         12    1    1    2    0    0  0.39779800359E+02  0.12480119027E+02 -0.17056586375E+02  0.45045677110E+02  0.00000000000E+00 0. -1.
         11    1    3    3    0    0 -0.71080636114E+01 -0.30233165808E+01  0.27582892556E+01  0.82020223926E+01  0.51100000000E-03 0. -1.
        -11    1    3    3    0    0  0.29395925638E+00  0.31907153558E+00 -0.35786535987E+00  0.56239360429E+00  0.51100000000E-03 0.  1.
        -12    1    3    3    0    0 -0.32965696004E+02 -0.97758739821E+01  0.14656162479E+02  0.37377906893E+02  0.00000000000E+00 0.  1.
</event>
<event>
 7    1  0.2353206E-008  0.4614232E+02  0.7816164E-02  0.1320468E+00
        -11   -1    0    0    0    0  0.00000000000E+00  0.00000000000E+00  0.45593999997E+02  0.45594000000E+02  0.51100000000E-03 0.  1.
         11   -1    0    0    0    0 -0.00000000000E+00 -0.00000000000E+00 -0.45593999997E+02  0.45594000000E+02  0.51100000000E-03 0. -1.
    9900012    2    1    2    0    0 -0.10562330950E+02  0.27950720039E+01  0.43700553450E+02  0.46142316140E+02  0.99999852131E+01 0.  0.
         12    1    1    2    0    0  0.10562330950E+02 -0.27950720039E+01 -0.43700553450E+02  0.45045683860E+02  0.00000000000E+00 0. -1.
         11    1    3    3    0    0 -0.50097760024E+00  0.28879775696E+00  0.90874374034E+01  0.91058169058E+01  0.51100000000E-03 0. -1.
        -11    1    3    3    0    0 -0.10960809848E+02  0.31415010196E+01  0.33789389896E+02  0.35661341127E+02  0.51100000000E-03 0.  1.
         12    1    3    3    0    0  0.89945649884E+00 -0.63522677264E+00  0.82372615058E+00  0.13751581062E+01  0.00000000000E+00 0. -1.
</event>
<event>
 7    1  0.2353206E-008  0.4614232E+02  0.7816164E-02  0.1320468E+00
        -11   -1    0    0    0    0  0.00000000000E+00  0.00000000000E+00  0.45593999997E+02  0.45594000000E+02  0.51100000000E-03 0. -1.
         11   -1    0    0    0    0 -0.00000000000E+00 -0.00000000000E+00 -0.45593999997E+02  0.45594000000E+02  0.51100000000E-03 0.  1.
    9900012    2    1    2    0    0 -0.28333428553E+02 -0.34795113920E+02 -0.39535292912E+01  0.46142317409E+02  0.99999967872E+01 0.  0.
         12    1    1    2    0    0  0.28333428553E+02  0.34795113920E+02  0.39535292912E+01  0.45045682591E+02  0.00000000000E+00 0. -1.
         11    1    3    3    0    0 -0.16485739157E+02 -0.17759335499E+02 -0.33929232399E+01  0.24468051032E+02  0.51100000000E-03 0. -1.
        -11    1    3    3    0    0 -0.57270034454E+01 -0.10366277715E+02  0.25273179204E+01  0.12109732378E+02  0.51100000000E-03 0.  1.
         12    1    3    3    0    0 -0.61206859505E+01 -0.66695007054E+01 -0.30879239717E+01  0.95645339991E+01  0.00000000000E+00 0. -1.
</event>
<event>
 7    1  0.2353206E-008  0.4614232E+02  0.7816164E-02  0.1320468E+00
        -11   -1    0    0    0    0  0.00000000000E+00  0.00000000000E+00  0.45593999997E+02  0.45594000000E+02  0.51100000000E-03 0.  1.
         11   -1    0    0    0    0 -0.00000000000E+00 -0.00000000000E+00 -0.45593999997E+02  0.45594000000E+02  0.51100000000E-03 0. -1.
    9900012    2    1    2    0    0 -0.25564509217E+02  0.23859507548E+02  0.28395303793E+02  0.46142317527E+02  0.99999978657E+01 0.  0.
         12    1    1    2    0    0  0.25564509217E+02 -0.23859507548E+02 -0.28395303793E+02  0.45045682473E+02  0.00000000000E+00 0. -1.
         11    1    3    3    0    0 -0.73970741503E+01  0.51654143757E+01  0.96738267756E+01  0.13228043559E+02  0.51100000000E-03 0. -1.
        -11    1    3    3    0    0 -0.11392662018E+02  0.16297855299E+02  0.13814791142E+02  0.24212833163E+02  0.51100000000E-03 0.  1.
         12    1    3    3    0    0 -0.67747730486E+01  0.23962378735E+01  0.49066858754E+01  0.87014408052E+01  0.00000000000E+00 0. -1.
</event>
<event>
 7    1  0.2353206E-008  0.4614232E+02  0.7816164E-02  0.1320468E+00
        -11   -1    0    0    0    0  0.00000000000E+00  0.00000000000E+00  0.45593999997E+02  0.45594000000E+02  0.51100000000E-03 0.  1.
         11   -1    0    0    0    0 -0.00000000000E+00 -0.00000000000E+00 -0.45593999997E+02  0.45594000000E+02  0.51100000000E-03 0. -1.
    9900012    2    1    2    0    0 -0.77577935561E+01  0.44688215192E+01  0.44147025076E+02  0.46142317081E+02  0.99999937941E+01 0.  0.
         12    1    1    2    0    0  0.77577935561E+01 -0.44688215192E+01 -0.44147025076E+02  0.45045682919E+02  0.00000000000E+00 0. -1.
         11    1    3    3    0    0  0.94720617114E+00 -0.11369270659E+01  0.42345178623E+01  0.44856375769E+01  0.51100000000E-03 0. -1.
        -11    1    3    3    0    0 -0.41542403726E+01  0.24915108119E+01  0.86719294424E+01  0.99331616172E+01  0.51100000000E-03 0.  1.
        -12    1    3    3    0    0 -0.45507593546E+01  0.31142377732E+01  0.31240577771E+02  0.31723517886E+02  0.00000000000E+00 0.  1.
</event>
<event>
 7    1  0.2353206E-008  0.4614232E+02  0.7816164E-02  0.1320468E+00
        -11   -1    0    0    0    0  0.00000000000E+00  0.00000000000E+00  0.45593999997E+02  0.45594000000E+02  0.51100000000E-03 0.  1.
         11   -1    0    0    0    0 -0.00000000000E+00 -0.00000000000E+00 -0.45593999997E+02  0.45594000000E+02  0.51100000000E-03 0. -1.
    9900012    2    1    2    0    0  0.57144251634E+01  0.44354694871E+02  0.53962769756E+01  0.46142318551E+02  0.10000007199E+02 0.  0.
         12    1    1    2    0    0 -0.57144251634E+01 -0.44354694871E+02 -0.53962769756E+01  0.45045681449E+02  0.00000000000E+00 0. -1.
         11    1    3    3    0    0 -0.10948176776E+01  0.26052826938E+01  0.25959222184E+00  0.28378710409E+01  0.51100000000E-03 0. -1.
        -11    1    3    3    0    0  0.30114097756E+01  0.23385656694E+02  0.66287734602E+01  0.24492818655E+02  0.51100000000E-03 0.  1.
        -12    1    3    3    0    0  0.37978330654E+01  0.18363755483E+02 -0.14920887065E+01  0.18811628854E+02  0.00000000000E+00 0.  1.
</event>
<event>
 7    1  0.2353206E-008  0.4614232E+02  0.7816164E-02  0.1320468E+00
        -11   -1    0    0    0    0  0.00000000000E+00  0.00000000000E+00  0.45593999997E+02  0.45594000000E+02  0.51100000000E-03 0. -1.
         11   -1    0    0    0    0 -0.00000000000E+00 -0.00000000000E+00 -0.45593999997E+02  0.45594000000E+02  0.51100000000E-03 0.  1.
    9900012    2    1    2    0    0 -0.69853219688E+01  0.30845402311E+02 -0.32076160349E+02  0.46142316195E+02  0.99999857194E+01 0.  0.
         12    1    1    2    0    0  0.69853219688E+01 -0.30845402311E+02  0.32076160349E+02  0.45045683805E+02  0.00000000000E+00 0. -1.
         11    1    3    3    0    0 -0.73187436601E+01  0.11702831283E+02 -0.10928492101E+02  0.17605459626E+02  0.51100000000E-03 0. -1.
        -11    1    3    3    0    0  0.15874440731E+00  0.73580303696E+01 -0.75837112209E+01  0.10567804259E+02  0.51100000000E-03 0.  1.
         12    1    3    3    0    0  0.17467728393E+00  0.11784540658E+02 -0.13563957027E+02  0.17969052310E+02  0.00000000000E+00 0. -1.
</event>
<event>
 7    1  0.2353206E-008  0.4614232E+02  0.7816164E-02  0.1320468E+00
        -11   -1    0    0    0    0  0.00000000000E+00  0.00000000000E+00  0.45593999997E+02  0.45594000000E+02  0.51100000000E-03 0. -1.
         11   -1    0    0    0    0 -0.00000000000E+00 -0.00000000000E+00 -0.45593999997E+02  0.45594000000E+02  0.51100000000E-03 0.  1.
    9900012    2    1    2    0    0  0.36617126706E+02 -0.18169292139E+02 -0.18925548896E+02  0.46142317120E+02  0.99999941564E+01 0.  0.
         12    1    1    2    0    0 -0.36617126706E+02  0.18169292139E+02  0.18925548896E+02  0.45045682880E+02  0.00000000000E+00 0. -1.
         11    1    3    3    0    0  0.21243364809E+02 -0.67145134251E+01 -0.13489690753E+02  0.26044903452E+02  0.51100000000E-03 0. -1.
        -11    1    3    3    0    0  0.19067145703E+01 -0.18057526114E+01 -0.16562633728E+01  0.31047562815E+01  0.51100000000E-03 0.  1.
         12    1    3    3    0    0  0.13467047327E+02 -0.96490261025E+01 -0.37795947705E+01  0.16992657387E+02  0.00000000000E+00 0. -1.
</event>
<event>
 7    1  0.2353206E-008  0.4614232E+02  0.7816164E-02  0.1320468E+00
        -11   -1    0    0    0    0  0.00000000000E+00  0.00000000000E+00  0.45593999997E+02  0.45594000000E+02  0.51100000000E-03 0.  1.
         11   -1    0    0    0    0 -0.00000000000E+00 -0.00000000000E+00 -0.45593999997E+02  0.45594000000E+02  0.51100000000E-03 0. -1.
    9900012    2    1    2    0    0 -0.34918378077E+01  0.90894419679E+01  0.43980708726E+02  0.46142316226E+02  0.99999860041E+01 0.  0.
         12    1    1    2    0    0  0.34918378077E+01 -0.90894419679E+01 -0.43980708726E+02  0.45045683774E+02  0.00000000000E+00 0. -1.
         11    1    3    3    0    0 -0.80416709586E+00  0.78216304636E-01  0.58518224809E+00  0.99761767876E+00  0.51100000000E-03 0. -1.
        -11    1    3    3    0    0 -0.17149915709E+01  0.10245708597E+01  0.15386806092E+01  0.25216026279E+01  0.51100000000E-03 0.  1.
        -12    1    3    3    0    0 -0.97267914096E+00  0.79866548036E+01  0.41856845869E+02  0.42623095920E+02  0.00000000000E+00 0.  1.
</event>
<event>
 7    1  0.2353206E-008  0.4614232E+02  0.7816164E-02  0.1320468E+00
        -11   -1    0    0    0    0  0.00000000000E+00  0.00000000000E+00  0.45593999997E+02  0.45594000000E+02  0.51100000000E-03 0. -1.
         11   -1    0    0    0    0 -0.00000000000E+00 -0.00000000000E+00 -0.45593999997E+02  0.45594000000E+02  0.51100000000E-03 0.  1.
    9900012    2    1    2    0    0 -0.75483328093E+01 -0.28738005313E+02  0.33856508308E+02  0.46142318383E+02  0.10000005668E+02 0.  0.
         12    1    1    2    0    0  0.75483328093E+01  0.28738005313E+02 -0.33856508308E+02  0.45045681617E+02  0.00000000000E+00 0. -1.
         11    1    3    3    0    0  0.22774626986E+00 -0.54823873589E+01  0.95067974191E+01  0.10976686064E+02  0.51100000000E-03 0. -1.
        -11    1    3    3    0    0 -0.22719275507E+01 -0.10823126249E+02  0.15118680279E+02  0.18731690000E+02  0.51100000000E-03 0.  1.
        -12    1    3    3    0    0 -0.55041515284E+01 -0.12432491705E+02  0.92310306101E+01  0.16433942319E+02  0.00000000000E+00 0.  1.
</event>
<event>
 7    1  0.2353206E-008  0.4614232E+02  0.7816164E-02  0.1320468E+00
        -11   -1    0    0    0    0  0.00000000000E+00  0.00000000000E+00  0.45593999997E+02  0.45594000000E+02  0.51100000000E-03 0. -1.
         11   -1    0    0    0    0 -0.00000000000E+00 -0.00000000000E+00 -0.45593999997E+02  0.45594000000E+02  0.51100000000E-03 0.  1.
    9900012    2    1    2    0    0 -0.26004949021E+01 -0.16469751045E+02 -0.41846124311E+02  0.46142318819E+02  0.10000009648E+02 0.  0.
         12    1    1    2    0    0  0.26004949021E+01  0.16469751045E+02  0.41846124311E+02  0.45045681181E+02  0.00000000000E+00 0. -1.
         11    1    3    3    0    0 -0.37177551464E-01 -0.14179142465E+00 -0.35086329075E+01  0.35116936254E+01  0.51100000000E-03 0. -1.
        -11    1    3    3    0    0 -0.47502183330E+01 -0.47042834561E+01 -0.16345343659E+02  0.17659703187E+02  0.51100000000E-03 0.  1.
        -12    1    3    3    0    0  0.21869009823E+01 -0.11623676164E+02 -0.21992147744E+02  0.24970922007E+02  0.00000000000E+00 0.  1.
</event>
<event>
 7    1  0.2353206E-008  0.4614232E+02  0.7816164E-02  0.1320468E+00
        -11   -1    0    0    0    0  0.00000000000E+00  0.00000000000E+00  0.45593999997E+02  0.45594000000E+02  0.51100000000E-03 0.  1.
         11   -1    0    0    0    0 -0.00000000000E+00 -0.00000000000E+00 -0.45593999997E+02  0.45594000000E+02  0.51100000000E-03 0. -1.
    9900012    2    1    2    0    0 -0.98969717057E+01  0.34941051747E+02  0.26651191190E+02  0.46142321651E+02  0.10000035469E+02 0.  0.
         12    1    1    2    0    0  0.98969717057E+01 -0.34941051747E+02 -0.26651191190E+02  0.45045678349E+02  0.00000000000E+00 0. -1.
         11    1    3    3    0    0 -0.75537402223E+01  0.23083144568E+02  0.16133234946E+02  0.29157706092E+02  0.51100000000E-03 0.  1.
        -11    1    3    3    0    0  0.46183042384E+00  0.99099040080E+01  0.77792704172E+01  0.12607003342E+02  0.51100000000E-03 0. -1.
        -12    1    3    3    0    0 -0.28050619073E+01  0.19480031710E+01  0.27386858272E+01  0.43776122166E+01  0.00000000000E+00 0.  1.
</event>
<event>
 7    1  0.2353206E-008  0.4614232E+02  0.7816164E-02  0.1320468E+00
        -11   -1    0    0    0    0  0.00000000000E+00  0.00000000000E+00  0.45593999997E+02  0.45594000000E+02  0.51100000000E-03 0.  1.
         11   -1    0    0    0    0 -0.00000000000E+00 -0.00000000000E+00 -0.45593999997E+02  0.45594000000E+02  0.51100000000E-03 0. -1.
    9900012    2    1    2    0    0  0.14536512036E+02 -0.23515936058E+02  0.35564083787E+02  0.46142317782E+02  0.10000000192E+02 0.  0.
         12    1    1    2    0    0 -0.14536512036E+02  0.23515936058E+02 -0.35564083787E+02  0.45045682218E+02  0.00000000000E+00 0. -1.
         11    1    3    3    0    0  0.10973954065E+01 -0.36575106296E+01  0.96970056672E+00  0.39397944279E+01  0.51100000000E-03 0. -1.
        -11    1    3    3    0    0  0.18201593315E+01 -0.20255790330E+01  0.56807859117E+01  0.62997840635E+01  0.51100000000E-03 0.  1.
         12    1    3    3    0    0  0.11618957298E+02 -0.17832846396E+02  0.28913597308E+02  0.35902739291E+02  0.00000000000E+00 0. -1.
</event>
<event>
 7    1  0.2353206E-008  0.4614232E+02  0.7816164E-02  0.1320468E+00
        -11   -1    0    0    0    0  0.00000000000E+00  0.00000000000E+00  0.45593999997E+02  0.45594000000E+02  0.51100000000E-03 0. -1.
         11   -1    0    0    0    0 -0.00000000000E+00 -0.00000000000E+00 -0.45593999997E+02  0.45594000000E+02  0.51100000000E-03 0.  1.
    9900012    2    1    2    0    0  0.16351321016E+02 -0.32756880232E+02 -0.26243754087E+02  0.46142317298E+02  0.99999957773E+01 0.  0.
         12    1    1    2    0    0 -0.16351321016E+02  0.32756880232E+02  0.26243754087E+02  0.45045682702E+02  0.00000000000E+00 0. -1.
         11    1    3    3    0    0  0.43322127906E+01 -0.14384308545E+02 -0.11616818188E+02  0.18990178121E+02  0.51100000000E-03 0. -1.
        -11    1    3    3    0    0  0.10169648409E+02 -0.18402844927E+02 -0.13439808834E+02  0.24954256389E+02  0.51100000000E-03 0.  1.
         12    1    3    3    0    0  0.18494598164E+01  0.30273240386E-01 -0.11871270653E+01  0.21978827882E+01  0.00000000000E+00 0. -1.
</event>
<event>
 7    1  0.2353206E-008  0.4614232E+02  0.7816164E-02  0.1320468E+00
        -11   -1    0    0    0    0  0.00000000000E+00  0.00000000000E+00  0.45593999997E+02  0.45594000000E+02  0.51100000000E-03 0.  1.
         11   -1    0    0    0    0 -0.00000000000E+00 -0.00000000000E+00 -0.45593999997E+02  0.45594000000E+02  0.51100000000E-03 0. -1.
    9900012    2    1    2    0    0  0.37982165265E+01 -0.24505505101E+01  0.44818320090E+02  0.46142318051E+02  0.10000002642E+02 0.  0.
         12    1    1    2    0    0 -0.37982165265E+01  0.24505505101E+01 -0.44818320090E+02  0.45045681949E+02  0.00000000000E+00 0. -1.
         11    1    3    3    0    0  0.56204060397E+01  0.20003456729E+00  0.23479066361E+02  0.24143229596E+02  0.51100000000E-03 0.  1.
        -11    1    3    3    0    0 -0.60694300456E+00 -0.31962746831E+01  0.86755727993E+01  0.92655337308E+01  0.51100000000E-03 0. -1.
        -12    1    3    3    0    0 -0.12152465087E+01  0.54568960578E+00  0.12663680930E+02  0.12733554724E+02  0.00000000000E+00 0.  1.
</event>
<event>
 7    1  0.2353206E-008  0.4614232E+02  0.7816164E-02  0.1320468E+00
        -11   -1    0    0    0    0  0.00000000000E+00  0.00000000000E+00  0.45593999997E+02  0.45594000000E+02  0.51100000000E-03 0.  1.
         11   -1    0    0    0    0 -0.00000000000E+00 -0.00000000000E+00 -0.45593999997E+02  0.45594000000E+02  0.51100000000E-03 0. -1.
    9900012    2    1    2    0    0 -0.16764564925E+02  0.19384853741E+02  0.37044436905E+02  0.46142317663E+02  0.99999991022E+01 0.  0.
         12    1    1    2    0    0  0.16764564925E+02 -0.19384853741E+02 -0.37044436905E+02  0.45045682337E+02  0.00000000000E+00 0. -1.
         11    1    3    3    0    0 -0.40651605526E+01  0.47536542631E+00  0.33305238018E+01  0.52767311531E+01  0.51100000000E-03 0. -1.
        -11    1    3    3    0    0 -0.78401451184E+01  0.84615144197E+01  0.18017401990E+02  0.21393734515E+02  0.51100000000E-03 0.  1.
         12    1    3    3    0    0 -0.48592592536E+01  0.10447973895E+02  0.15696511113E+02  0.19471851995E+02  0.00000000000E+00 0. -1.
</event>
<event>
 7    1  0.2353206E-008  0.4614232E+02  0.7816164E-02  0.1320468E+00
        -11   -1    0    0    0    0  0.00000000000E+00  0.00000000000E+00  0.45593999997E+02  0.45594000000E+02  0.51100000000E-03 0. -1.
         11   -1    0    0    0    0 -0.00000000000E+00 -0.00000000000E+00 -0.45593999997E+02  0.45594000000E+02  0.51100000000E-03 0.  1.
    9900012    2    1    2    0    0  0.14385053398E+02 -0.34812699748E+02 -0.24703436543E+02  0.46142316500E+02  0.99999884962E+01 0.  0.
         12    1    1    2    0    0 -0.14385053398E+02  0.34812699748E+02  0.24703436543E+02  0.45045683500E+02  0.00000000000E+00 0. -1.
         11    1    3    3    0    0 -0.24159681393E-01  0.28596928635E+00 -0.37347038664E+00  0.47100160696E+00  0.51100000000E-03 0. -1.
        -11    1    3    3    0    0  0.49996946676E+01 -0.18008913802E+02 -0.15392717735E+02  0.24212676074E+02  0.51100000000E-03 0.  1.
        -12    1    3    3    0    0  0.94095184115E+01 -0.17089755232E+02 -0.89372484210E+01  0.21458638819E+02  0.00000000000E+00 0.  1.
</event>
<event>
 7    1  0.2353206E-008  0.4614232E+02  0.7816164E-02  0.1320468E+00
        -11   -1    0    0    0    0  0.00000000000E+00  0.00000000000E+00  0.45593999997E+02  0.45594000000E+02  0.51100000000E-03 0.  1.
         11   -1    0    0    0    0 -0.00000000000E+00 -0.00000000000E+00 -0.45593999997E+02  0.45594000000E+02  0.51100000000E-03 0. -1.
    9900012    2    1    2    0    0  0.83277285598E+01  0.40723155480E+02  0.17360502576E+02  0.46142317577E+02  0.99999983228E+01 0.  0.
         12    1    1    2    0    0 -0.83277285598E+01 -0.40723155480E+02 -0.17360502576E+02  0.45045682423E+02  0.00000000000E+00 0. -1.
         11    1    3    3    0    0  0.65211952796E+01  0.16661138707E+02  0.59446740363E+01  0.18853611870E+02  0.51100000000E-03 0. -1.
        -11    1    3    3    0    0 -0.57018744301E+00  0.86780096255E+01  0.14806513043E+01  0.88218645040E+01  0.51100000000E-03 0.  1.
        -12    1    3    3    0    0  0.23767207232E+01  0.15384007148E+02  0.99351772355E+01  0.18466841204E+02  0.00000000000E+00 0.  1.
</event>
<event>
 7    1  0.2353206E-008  0.4614232E+02  0.7816164E-02  0.1320468E+00
        -11   -1    0    0    0    0  0.00000000000E+00  0.00000000000E+00  0.45593999997E+02  0.45594000000E+02  0.51100000000E-03 0.  1.
         11   -1    0    0    0    0 -0.00000000000E+00 -0.00000000000E+00 -0.45593999997E+02  0.45594000000E+02  0.51100000000E-03 0. -1.
    9900012    2    1    2    0    0 -0.35787262200E+02  0.27322581408E+02 -0.13645385493E+01  0.46142317010E+02  0.99999931535E+01 0.  0.
         12    1    1    2    0    0  0.35787262200E+02 -0.27322581408E+02  0.13645385493E+01  0.45045682990E+02  0.00000000000E+00 0. -1.
         11    1    3    3    0    0 -0.23987642432E+02  0.19924736941E+02 -0.32604130378E+01  0.31353347908E+02  0.51100000000E-03 0. -1.
        -11    1    3    3    0    0 -0.11611386003E+02  0.57008533601E+01  0.19454209621E+01  0.13080851536E+02  0.51100000000E-03 0.  1.
         12    1    3    3    0    0 -0.18823376568E+00  0.16969911063E+01 -0.49546473613E-01  0.17081175658E+01  0.00000000000E+00 0. -1.
</event>
<event>
 7    1  0.2353206E-008  0.4614232E+02  0.7816164E-02  0.1320468E+00
        -11   -1    0    0    0    0  0.00000000000E+00  0.00000000000E+00  0.45593999997E+02  0.45594000000E+02  0.51100000000E-03 0.  1.
         11   -1    0    0    0    0 -0.00000000000E+00 -0.00000000000E+00 -0.45593999997E+02  0.45594000000E+02  0.51100000000E-03 0. -1.
    9900012    2    1    2    0    0 -0.27403098568E+02  0.34828744046E+02  0.80710805372E+01  0.46142316922E+02  0.99999923466E+01 0.  0.
         12    1    1    2    0    0  0.27403098568E+02 -0.34828744046E+02 -0.80710805372E+01  0.45045683078E+02  0.00000000000E+00 0. -1.
         11    1    3    3    0    0 -0.18901421170E+02  0.23389214651E+02  0.78698721021E+01  0.31084625965E+02  0.51100000000E-03 0.  1.
        -11    1    3    3    0    0 -0.85365231620E+01  0.11575288216E+02 -0.45190292534E+00  0.14389709569E+02  0.51100000000E-03 0. -1.
         12    1    3    3    0    0  0.34845764123E-01 -0.13575882068E+00  0.65311136044E+00  0.66798138732E+00  0.00000000000E+00 0. -1.
</event>
<event>
 7    1  0.2353206E-008  0.4614232E+02  0.7816164E-02  0.1320468E+00
        -11   -1    0    0    0    0  0.00000000000E+00  0.00000000000E+00  0.45593999997E+02  0.45594000000E+02  0.51100000000E-03 0.  1.
         11   -1    0    0    0    0 -0.00000000000E+00 -0.00000000000E+00 -0.45593999997E+02  0.45594000000E+02  0.51100000000E-03 0. -1.
    9900012    2    1    2    0    0  0.41364442249E+02  0.16220154159E+02 -0.74164020157E+01  0.46142317606E+02  0.99999985812E+01 0.  0.
         12    1    1    2    0    0 -0.41364442249E+02 -0.16220154159E+02  0.74164020157E+01  0.45045682394E+02  0.00000000000E+00 0. -1.
         11    1    3    3    0    0  0.10752455038E+02  0.10807183073E+01 -0.20548339871E+01  0.11000253833E+02  0.51100000000E-03 0. -1.
        -11    1    3    3    0    0  0.26511216327E+02  0.10781756282E+02 -0.55606819729E+01  0.29154966025E+02  0.51100000000E-03 0.  1.
         12    1    3    3    0    0  0.41007708839E+01  0.43576795703E+01  0.19911394427E+00  0.59870977478E+01  0.00000000000E+00 0. -1.
</event>
<event>
 7    1  0.2353206E-008  0.4614232E+02  0.7816164E-02  0.1320468E+00
        -11   -1    0    0    0    0  0.00000000000E+00  0.00000000000E+00  0.45593999997E+02  0.45594000000E+02  0.51100000000E-03 0.  1.
         11   -1    0    0    0    0 -0.00000000000E+00 -0.00000000000E+00 -0.45593999997E+02  0.45594000000E+02  0.51100000000E-03 0. -1.
    9900012    2    1    2    0    0  0.31580651868E+01  0.42368908748E+02  0.14967149302E+02  0.46142319158E+02  0.10000012742E+02 0.  0.
         12    1    1    2    0    0 -0.31580651868E+01 -0.42368908748E+02 -0.14967149302E+02  0.45045680842E+02  0.00000000000E+00 0. -1.
         11    1    3    3    0    0 -0.17468775610E+00  0.10524779615E+02  0.30185070210E+01  0.10950474266E+02  0.51100000000E-03 0. -1.
        -11    1    3    3    0    0 -0.17187807882E+01  0.13129496686E+02  0.19618102798E+01  0.13386059557E+02  0.51100000000E-03 0.  1.
         12    1    3    3    0    0  0.50515337311E+01  0.18714632447E+02  0.99868320011E+01  0.21805785335E+02  0.00000000000E+00 0. -1.
</event>
<event>
 7    1  0.2353206E-008  0.4614232E+02  0.7816164E-02  0.1320468E+00
        -11   -1    0    0    0    0  0.00000000000E+00  0.00000000000E+00  0.45593999997E+02  0.45594000000E+02  0.51100000000E-03 0.  1.
         11   -1    0    0    0    0 -0.00000000000E+00 -0.00000000000E+00 -0.45593999997E+02  0.45594000000E+02  0.51100000000E-03 0. -1.
    9900012    2    1    2    0    0 -0.37305939043E+02  0.24574941029E+02 -0.57838210665E+01  0.46142318735E+02  0.10000008883E+02 0.  0.
         12    1    1    2    0    0  0.37305939043E+02 -0.24574941029E+02  0.57838210665E+01  0.45045681265E+02  0.00000000000E+00 0. -1.
         11    1    3    3    0    0 -0.56860585880E+01  0.25428131337E+01  0.10932496415E+01  0.63239509754E+01  0.51100000000E-03 0. -1.
        -11    1    3    3    0    0 -0.14028789064E+02  0.10488605795E+02  0.49670842682E+00  0.17523255795E+02  0.51100000000E-03 0.  1.
         12    1    3    3    0    0 -0.17591091391E+02  0.11543522101E+02 -0.73737791349E+01  0.22295111965E+02  0.00000000000E+00 0. -1.
</event>
<event>
 7    1  0.2353206E-008  0.4614232E+02  0.7816164E-02  0.1320468E+00
        -11   -1    0    0    0    0  0.00000000000E+00  0.00000000000E+00  0.45593999997E+02  0.45594000000E+02  0.51100000000E-03 0.  1.
         11   -1    0    0    0    0 -0.00000000000E+00 -0.00000000000E+00 -0.45593999997E+02  0.45594000000E+02  0.51100000000E-03 0. -1.
    9900012    2    1    2    0    0  0.34803342780E+02 -0.72009252374E+01  0.27676478167E+02  0.46142318335E+02  0.10000005233E+02 0.  0.
         12    1    1    2    0    0 -0.34803342780E+02  0.72009252374E+01 -0.27676478167E+02  0.45045681665E+02  0.00000000000E+00 0. -1.
         11    1    3    3    0    0  0.61609000497E+01  0.20477199422E+01  0.46612758381E+01  0.79923300160E+01  0.51100000000E-03 0. -1.
        -11    1    3    3    0    0  0.15085689144E+02 -0.71759328679E+01  0.13013891772E+02  0.21176246334E+02  0.51100000000E-03 0.  1.
        -12    1    3    3    0    0  0.13556753587E+02 -0.20727123116E+01  0.10001310556E+02  0.16973741985E+02  0.00000000000E+00 0.  1.
</event>
<event>
 7    1  0.2353206E-008  0.4614232E+02  0.7816164E-02  0.1320468E+00
        -11   -1    0    0    0    0  0.00000000000E+00  0.00000000000E+00  0.45593999997E+02  0.45594000000E+02  0.51100000000E-03 0. -1.
         11   -1    0    0    0    0 -0.00000000000E+00 -0.00000000000E+00 -0.45593999997E+02  0.45594000000E+02  0.51100000000E-03 0.  1.
    9900012    2    1    2    0    0 -0.32629703438E+02 -0.55959571873E+01 -0.30546707123E+02  0.46142316529E+02  0.99999887668E+01 0.  0.
         12    1    1    2    0    0  0.32629703438E+02  0.55959571873E+01  0.30546707123E+02  0.45045683471E+02  0.00000000000E+00 0. -1.
         11    1    3    3    0    0 -0.55563510410E+01 -0.28126743555E+01 -0.59864356977E+01  0.86383786988E+01  0.51100000000E-03 0. -1.
        -11    1    3    3    0    0 -0.34531117409E+01 -0.15120370735E+01 -0.56872898060E+00  0.38123076635E+01  0.51100000000E-03 0.  1.
        -12    1    3    3    0    0 -0.23620240656E+02 -0.12712457583E+01 -0.23991542444E+02  0.33691630167E+02  0.00000000000E+00 0.  1.
</event>
<event>
 7    1  0.2353206E-008  0.4614232E+02  0.7816164E-02  0.1320468E+00
        -11   -1    0    0    0    0  0.00000000000E+00  0.00000000000E+00  0.45593999997E+02  0.45594000000E+02  0.51100000000E-03 0. -1.
         11   -1    0    0    0    0 -0.00000000000E+00 -0.00000000000E+00 -0.45593999997E+02  0.45594000000E+02  0.51100000000E-03 0.  1.
    9900012    2    1    2    0    0  0.94451829276E+01  0.30026601638E+02 -0.32222743647E+02  0.46142317692E+02  0.99999993701E+01 0.  0.
         12    1    1    2    0    0 -0.94451829276E+01 -0.30026601638E+02  0.32222743647E+02  0.45045682308E+02  0.00000000000E+00 0. -1.
         11    1    3    3    0    0 -0.15803695252E+01  0.49463174250E+01 -0.30416512326E+01  0.60179121286E+01  0.51100000000E-03 0. -1.
        -11    1    3    3    0    0  0.44325945720E+01  0.74462787900E+01 -0.10314096873E+02  0.13471286391E+02  0.51100000000E-03 0.  1.
         12    1    3    3    0    0  0.65929578809E+01  0.17634005423E+02 -0.18866995541E+02  0.26653119173E+02  0.00000000000E+00 0. -1.
</event>
<event>
 7    1  0.2353206E-008  0.4614232E+02  0.7816164E-02  0.1320468E+00
        -11   -1    0    0    0    0  0.00000000000E+00  0.00000000000E+00  0.45593999997E+02  0.45594000000E+02  0.51100000000E-03 0.  1.
         11   -1    0    0    0    0 -0.00000000000E+00 -0.00000000000E+00 -0.45593999997E+02  0.45594000000E+02  0.51100000000E-03 0. -1.
    9900012    2    1    2    0    0  0.26582599056E+01 -0.86147852044E+01  0.44134257384E+02  0.46142317136E+02  0.99999942977E+01 0.  0.
         12    1    1    2    0    0 -0.26582599056E+01  0.86147852044E+01 -0.44134257384E+02  0.45045682864E+02  0.00000000000E+00 0. -1.
         11    1    3    3    0    0  0.25650611159E+01 -0.17159073088E+01  0.22766952654E+02  0.22975160714E+02  0.51100000000E-03 0. -1.
        -11    1    3    3    0    0 -0.13454224398E+01 -0.25891137371E+01  0.15362429191E+02  0.15637068216E+02  0.51100000000E-03 0.  1.
        -12    1    3    3    0    0  0.14386212295E+01 -0.43097641585E+01  0.60048755391E+01  0.75300882056E+01  0.00000000000E+00 0.  1.
</event>
<event>
 7    1  0.2353206E-008  0.4614232E+02  0.7816164E-02  0.1320468E+00
        -11   -1    0    0    0    0  0.00000000000E+00  0.00000000000E+00  0.45593999997E+02  0.45594000000E+02  0.51100000000E-03 0. -1.
         11   -1    0    0    0    0 -0.00000000000E+00 -0.00000000000E+00 -0.45593999997E+02  0.45594000000E+02  0.51100000000E-03 0.  1.
    9900012    2    1    2    0    0 -0.31285523981E+02  0.31246922641E+02 -0.85999586178E+01  0.46142317926E+02  0.10000001503E+02 0.  0.
         12    1    1    2    0    0  0.31285523981E+02 -0.31246922641E+02  0.85999586178E+01  0.45045682074E+02  0.00000000000E+00 0. -1.
         11    1    3    3    0    0 -0.27819528403E+01  0.34573022977E+01 -0.36460659794E+01  0.57433438144E+01  0.51100000000E-03 0. -1.
        -11    1    3    3    0    0 -0.11166046937E+02  0.13913181761E+02 -0.12308840682E+01  0.17882178468E+02  0.51100000000E-03 0.  1.
        -12    1    3    3    0    0 -0.17337524203E+02  0.13876438583E+02 -0.37230085703E+01  0.22516795644E+02  0.00000000000E+00 0.  1.
</event>
<event>
 7    1  0.2353206E-008  0.4614231E+02  0.7816164E-02  0.1320468E+00
        -11   -1    0    0    0    0  0.00000000000E+00  0.00000000000E+00  0.45593999997E+02  0.45594000000E+02  0.51100000000E-03 0.  1.
         11   -1    0    0    0    0 -0.00000000000E+00 -0.00000000000E+00 -0.45593999997E+02  0.45594000000E+02  0.51100000000E-03 0. -1.
    9900012    2    1    2    0    0 -0.36024891956E+02  0.22476468372E+01  0.26949392725E+02  0.46142306255E+02  0.99998950765E+01 0.  0.
         12    1    1    2    0    0  0.36024891956E+02 -0.22476468372E+01 -0.26949392725E+02  0.45045693745E+02  0.00000000000E+00 0. -1.
         11    1    3    3    0    0 -0.17027950576E+01  0.25956294061E+01  0.21622166441E+01  0.37831183036E+01  0.51100000000E-03 0. -1.
        -11    1    3    3    0    0 -0.17166036059E+02  0.46821798761E+00  0.12605598059E+02  0.21302420631E+02  0.51100000000E-03 0.  1.
         12    1    3    3    0    0 -0.17156060840E+02 -0.81620055649E+00  0.12181578021E+02  0.21056767320E+02  0.00000000000E+00 0. -1.
</event>
<event>
 7    1  0.2353206E-008  0.4614232E+02  0.7816164E-02  0.1320468E+00
        -11   -1    0    0    0    0  0.00000000000E+00  0.00000000000E+00  0.45593999997E+02  0.45594000000E+02  0.51100000000E-03 0. -1.
         11   -1    0    0    0    0 -0.00000000000E+00 -0.00000000000E+00 -0.45593999997E+02  0.45594000000E+02  0.51100000000E-03 0.  1.
    9900012    2    1    2    0    0  0.19319691753E+02  0.29904446528E+02  0.27596858076E+02  0.46142323323E+02  0.10000050721E+02 0.  0.
         12    1    1    2    0    0 -0.19319691753E+02 -0.29904446528E+02 -0.27596858076E+02  0.45045676677E+02  0.00000000000E+00 0. -1.
         11    1    3    3    0    0  0.15773318088E+00  0.46601677113E+01  0.37567858451E+01  0.59879448061E+01  0.51100000000E-03 0. -1.
        -11    1    3    3    0    0  0.80988003599E+01  0.15827372180E+02  0.12805756773E+02  0.21910812038E+02  0.51100000000E-03 0.  1.
        -12    1    3    3    0    0  0.11063158213E+02  0.94169066367E+01  0.11034315458E+02  0.18243566479E+02  0.00000000000E+00 0.  1.
</event>
<event>
 7    1  0.2353206E-008  0.4614232E+02  0.7816164E-02  0.1320468E+00
        -11   -1    0    0    0    0  0.00000000000E+00  0.00000000000E+00  0.45593999997E+02  0.45594000000E+02  0.51100000000E-03 0.  1.
         11   -1    0    0    0    0 -0.00000000000E+00 -0.00000000000E+00 -0.45593999997E+02  0.45594000000E+02  0.51100000000E-03 0. -1.
    9900012    2    1    2    0    0  0.23496279174E+02  0.55198451430E+01  0.38033796151E+02  0.46142317909E+02  0.10000001346E+02 0.  0.
         12    1    1    2    0    0 -0.23496279174E+02 -0.55198451430E+01 -0.38033796151E+02  0.45045682091E+02  0.00000000000E+00 0. -1.
         11    1    3    3    0    0  0.81148783113E+00 -0.12384172850E+00  0.61308104411E+01  0.61855223061E+01  0.51100000000E-03 0. -1.
        -11    1    3    3    0    0  0.22656711597E+02  0.51839427481E+01  0.29737135619E+02  0.37742510223E+02  0.51100000000E-03 0.  1.
        -12    1    3    3    0    0  0.28079746336E-01  0.45974412339E+00  0.21658500901E+01  0.22142853800E+01  0.00000000000E+00 0.  1.
</event>
<event>
 7    1  0.2353206E-008  0.4614232E+02  0.7816164E-02  0.1320468E+00
        -11   -1    0    0    0    0  0.00000000000E+00  0.00000000000E+00  0.45593999997E+02  0.45594000000E+02  0.51100000000E-03 0. -1.
         11   -1    0    0    0    0 -0.00000000000E+00 -0.00000000000E+00 -0.45593999997E+02  0.45594000000E+02  0.51100000000E-03 0.  1.
    9900012    2    1    2    0    0  0.26144370775E+02 -0.31523423978E+02 -0.18757909155E+02  0.46142317206E+02  0.99999949361E+01 0.  0.
         12    1    1    2    0    0 -0.26144370775E+02  0.31523423978E+02  0.18757909155E+02  0.45045682794E+02  0.00000000000E+00 0. -1.
         11    1    3    3    0    0  0.57365525927E+01 -0.97520210167E+01 -0.82311471523E+01  0.13991487886E+02  0.51100000000E-03 0. -1.
        -11    1    3    3    0    0  0.12283150991E+02 -0.15269178116E+02 -0.92390096153E+01  0.21665246307E+02  0.51100000000E-03 0.  1.
        -12    1    3    3    0    0  0.81246671915E+01 -0.65022248449E+01 -0.12877523879E+01  0.10485583013E+02  0.00000000000E+00 0.  1.
</event>
<event>
 7    1  0.2353206E-008  0.4614232E+02  0.7816164E-02  0.1320468E+00
        -11   -1    0    0    0    0  0.00000000000E+00  0.00000000000E+00  0.45593999997E+02  0.45594000000E+02  0.51100000000E-03 0.  1.
         11   -1    0    0    0    0 -0.00000000000E+00 -0.00000000000E+00 -0.45593999997E+02  0.45594000000E+02  0.51100000000E-03 0. -1.
    9900012    2    1    2    0    0 -0.13951427805E+02 -0.95372261573E+01  0.41755388078E+02  0.46142318141E+02  0.10000003464E+02 0.  0.
         12    1    1    2    0    0  0.13951427805E+02  0.95372261573E+01 -0.41755388078E+02  0.45045681859E+02  0.00000000000E+00 0. -1.
         11    1    3    3    0    0 -0.39047673167E+01 -0.63509397031E+01  0.10300019913E+02  0.12715032575E+02  0.51100000000E-03 0. -1.
        -11    1    3    3    0    0 -0.53197839187E+01 -0.36864247461E+01  0.16070034812E+02  0.17324429211E+02  0.51100000000E-03 0.  1.
         12    1    3    3    0    0 -0.47268765700E+01  0.50013829189E+00  0.15385333353E+02  0.16102856355E+02  0.00000000000E+00 0. -1.
</event>
<event>
 7    1  0.2353206E-008  0.4614232E+02  0.7816164E-02  0.1320468E+00
        -11   -1    0    0    0    0  0.00000000000E+00  0.00000000000E+00  0.45593999997E+02  0.45594000000E+02  0.51100000000E-03 0.  1.
         11   -1    0    0    0    0 -0.00000000000E+00 -0.00000000000E+00 -0.45593999997E+02  0.45594000000E+02  0.51100000000E-03 0. -1.
    9900012    2    1    2    0    0 -0.31788685723E+02  0.17167894550E+02  0.26904574877E+02  0.46142319934E+02  0.10000019819E+02 0.  0.
         12    1    1    2    0    0  0.31788685723E+02 -0.17167894550E+02 -0.26904574877E+02  0.45045680066E+02  0.00000000000E+00 0. -1.
         11    1    3    3    0    0 -0.58674668444E+01 -0.55917926901E+00  0.27551559558E+01  0.65062072843E+01  0.51100000000E-03 0. -1.
        -11    1    3    3    0    0 -0.10747350622E+02  0.75102138707E+01  0.10871443017E+02  0.17032238000E+02  0.51100000000E-03 0.  1.
         12    1    3    3    0    0 -0.15173868257E+02  0.10216859948E+02  0.13277975904E+02  0.22603874650E+02  0.00000000000E+00 0. -1.
</event>
<event>
 7    1  0.2353206E-008  0.4614232E+02  0.7816164E-02  0.1320468E+00
        -11   -1    0    0    0    0  0.00000000000E+00  0.00000000000E+00  0.45593999997E+02  0.45594000000E+02  0.51100000000E-03 0.  1.
         11   -1    0    0    0    0 -0.00000000000E+00 -0.00000000000E+00 -0.45593999997E+02  0.45594000000E+02  0.51100000000E-03 0. -1.
    9900012    2    1    2    0    0  0.32939954856E+02 -0.15852110250E+01  0.30684850176E+02  0.46142317074E+02  0.99999937364E+01 0.  0.
         12    1    1    2    0    0 -0.32939954856E+02  0.15852110250E+01 -0.30684850176E+02  0.45045682926E+02  0.00000000000E+00 0. -1.
         11    1    3    3    0    0  0.42168580331E+01  0.13464542683E+01  0.43905231478E+01  0.62347032440E+01  0.51100000000E-03 0. -1.
        -11    1    3    3    0    0  0.10106378972E+02  0.20660285379E+01  0.12487764054E+02  0.16197272029E+02  0.51100000000E-03 0.  1.
        -12    1    3    3    0    0  0.18616717851E+02 -0.49976938311E+01  0.13806562974E+02  0.23710341801E+02  0.00000000000E+00 0.  1.
</event>
<event>
 7    1  0.2353206E-008  0.4614232E+02  0.7816164E-02  0.1320468E+00
        -11   -1    0    0    0    0  0.00000000000E+00  0.00000000000E+00  0.45593999997E+02  0.45594000000E+02  0.51100000000E-03 0.  1.
         11   -1    0    0    0    0 -0.00000000000E+00 -0.00000000000E+00 -0.45593999997E+02  0.45594000000E+02  0.51100000000E-03 0. -1.
    9900012    2    1    2    0    0 -0.15974585692E+02  0.88541749496E+01  0.41176810491E+02  0.46142317363E+02  0.99999963689E+01 0.  0.
         12    1    1    2    0    0  0.15974585692E+02 -0.88541749496E+01 -0.41176810491E+02  0.45045682637E+02  0.00000000000E+00 0. -1.
         11    1    3    3    0    0  0.16976825310E+00 -0.86080042426E+00  0.49567489399E+01  0.50338016394E+01  0.51100000000E-03 0. -1.
        -11    1    3    3    0    0 -0.76526097541E+01  0.69424332183E+01  0.22164090799E+02  0.24454176253E+02  0.51100000000E-03 0.  1.
         12    1    3    3    0    0 -0.84917441906E+01  0.27725421556E+01  0.14055970752E+02  0.16654339470E+02  0.00000000000E+00 0. -1.
</event>
<event>
 7    1  0.2353206E-008  0.4614232E+02  0.7816164E-02  0.1320468E+00
        -11   -1    0    0    0    0  0.00000000000E+00  0.00000000000E+00  0.45593999997E+02  0.45594000000E+02  0.51100000000E-03 0. -1.
         11   -1    0    0    0    0 -0.00000000000E+00 -0.00000000000E+00 -0.45593999997E+02  0.45594000000E+02  0.51100000000E-03 0.  1.
    9900012    2    1    2    0    0 -0.33371829090E+02 -0.12272883995E+02 -0.27655213163E+02  0.46142317926E+02  0.10000001508E+02 0.  0.
         12    1    1    2    0    0  0.33371829090E+02  0.12272883995E+02  0.27655213163E+02  0.45045682074E+02  0.00000000000E+00 0. -1.
         11    1    3    3    0    0 -0.39683801742E+00 -0.70219235835E+00 -0.80994866259E+00  0.11430536371E+01  0.51100000000E-03 0. -1.
        -11    1    3    3    0    0 -0.45731065674E-01  0.88341844303E+00 -0.41825027057E+00  0.97849528656E+00  0.51100000000E-03 0.  1.
        -12    1    3    3    0    0 -0.32929260007E+02 -0.12454110079E+02 -0.26427014230E+02  0.44020769003E+02  0.00000000000E+00 0.  1.
</event>
<event>
 7    1  0.2353206E-008  0.4614232E+02  0.7816164E-02  0.1320468E+00
        -11   -1    0    0    0    0  0.00000000000E+00  0.00000000000E+00  0.45593999997E+02  0.45594000000E+02  0.51100000000E-03 0.  1.
         11   -1    0    0    0    0 -0.00000000000E+00 -0.00000000000E+00 -0.45593999997E+02  0.45594000000E+02  0.51100000000E-03 0. -1.
    9900012    2    1    2    0    0 -0.27246282059E+02  0.35871261790E+02 -0.78370083066E-01  0.46142318184E+02  0.10000003855E+02 0.  0.
         12    1    1    2    0    0  0.27246282059E+02 -0.35871261790E+02  0.78370083066E-01  0.45045681816E+02  0.00000000000E+00 0. -1.
         11    1    3    3    0    0 -0.10915193791E+02  0.12187273761E+02  0.44463538840E+01  0.16954089782E+02  0.51100000000E-03 0. -1.
        -11    1    3    3    0    0 -0.11039730985E+02  0.14419384872E+02 -0.25632057699E+01  0.18340238395E+02  0.51100000000E-03 0.  1.
         12    1    3    3    0    0 -0.52913572833E+01  0.92646031567E+01 -0.19615181971E+01  0.10847990007E+02  0.00000000000E+00 0. -1.
</event>
<event>
 7    1  0.2353206E-008  0.4614232E+02  0.7816164E-02  0.1320468E+00
        -11   -1    0    0    0    0  0.00000000000E+00  0.00000000000E+00  0.45593999997E+02  0.45594000000E+02  0.51100000000E-03 0.  1.
         11   -1    0    0    0    0 -0.00000000000E+00 -0.00000000000E+00 -0.45593999997E+02  0.45594000000E+02  0.51100000000E-03 0. -1.
    9900012    2    1    2    0    0 -0.30365171031E+02 -0.33235784367E+02  0.15660585811E+01  0.46142317480E+02  0.99999974357E+01 0.  0.
         12    1    1    2    0    0  0.30365171031E+02  0.33235784367E+02 -0.15660585811E+01  0.45045682520E+02  0.00000000000E+00 0. -1.
         11    1    3    3    0    0 -0.60749892937E+01 -0.26475825868E+01 -0.74396684168E+00  0.66684837403E+01  0.51100000000E-03 0. -1.
        -11    1    3    3    0    0 -0.17570377490E+01 -0.49730394894E+01  0.69566904714E+00  0.53199867574E+01  0.51100000000E-03 0.  1.
        -12    1    3    3    0    0 -0.22533143989E+02 -0.25615162290E+02  0.16143563756E+01  0.34153846982E+02  0.00000000000E+00 0.  1.
</event>
<event>
 7    1  0.2353206E-008  0.4614232E+02  0.7816164E-02  0.1320468E+00
        -11   -1    0    0    0    0  0.00000000000E+00  0.00000000000E+00  0.45593999997E+02  0.45594000000E+02  0.51100000000E-03 0.  1.
         11   -1    0    0    0    0 -0.00000000000E+00 -0.00000000000E+00 -0.45593999997E+02  0.45594000000E+02  0.51100000000E-03 0. -1.
    9900012    2    1    2    0    0  0.37848059441E+02 -0.13916386600E+02  0.20074162657E+02  0.46142318455E+02  0.10000006330E+02 0.  0.
         12    1    1    2    0    0 -0.37848059441E+02  0.13916386600E+02 -0.20074162657E+02  0.45045681545E+02  0.00000000000E+00 0. -1.
         11    1    3    3    0    0  0.38997407066E+01 -0.27474431349E+01  0.41419166720E+01  0.63175861954E+01  0.51100000000E-03 0. -1.
        -11    1    3    3    0    0  0.31472294653E+02 -0.87915962138E+01  0.16016177986E+02  0.36391145245E+02  0.51100000000E-03 0.  1.
         12    1    3    3    0    0  0.24760240810E+01 -0.23773472518E+01 -0.83932001202E-01  0.34335870145E+01  0.00000000000E+00 0. -1.
</event>
<event>
 7    1  0.2353206E-008  0.4614232E+02  0.7816164E-02  0.1320468E+00
        -11   -1    0    0    0    0  0.00000000000E+00  0.00000000000E+00  0.45593999997E+02  0.45594000000E+02  0.51100000000E-03 0.  1.
         11   -1    0    0    0    0 -0.00000000000E+00 -0.00000000000E+00 -0.45593999997E+02  0.45594000000E+02  0.51100000000E-03 0. -1.
    9900012    2    1    2    0    0 -0.18505493399E+02  0.32979833662E+02  0.24474287431E+02  0.46142318081E+02  0.10000002914E+02 0.  0.
         12    1    1    2    0    0  0.18505493399E+02 -0.32979833662E+02 -0.24474287431E+02  0.45045681919E+02  0.00000000000E+00 0. -1.
         11    1    3    3    0    0 -0.63918847534E+01  0.99451369123E+01  0.10587777112E+02  0.15870191030E+02  0.51100000000E-03 0. -1.
        -11    1    3    3    0    0 -0.35912447438E+01  0.10496662860E+02  0.91755555810E+01  0.14396797925E+02  0.51100000000E-03 0.  1.
         12    1    3    3    0    0 -0.85223639018E+01  0.12538033890E+02  0.47109547380E+01  0.15875329126E+02  0.00000000000E+00 0. -1.
</event>
<event>
 7    1  0.2353206E-008  0.4614232E+02  0.7816164E-02  0.1320468E+00
        -11   -1    0    0    0    0  0.00000000000E+00  0.00000000000E+00  0.45593999997E+02  0.45594000000E+02  0.51100000000E-03 0.  1.
         11   -1    0    0    0    0 -0.00000000000E+00 -0.00000000000E+00 -0.45593999997E+02  0.45594000000E+02  0.51100000000E-03 0. -1.
    9900012    2    1    2    0    0  0.56192529261E+01  0.35230450423E+02  0.27501870168E+02  0.46142317596E+02  0.99999984966E+01 0.  0.
         12    1    1    2    0    0 -0.56192529261E+01 -0.35230450423E+02 -0.27501870168E+02  0.45045682404E+02  0.00000000000E+00 0. -1.
         11    1    3    3    0    0  0.37825786143E+01  0.53188757726E+01  0.54579675135E+01  0.85080990884E+01  0.51100000000E-03 0. -1.
        -11    1    3    3    0    0  0.24474906199E+01  0.85547078354E+01  0.86974284917E+01  0.12442608212E+02  0.51100000000E-03 0.  1.
        -12    1    3    3    0    0 -0.61081630813E+00  0.21356866815E+02  0.13346474163E+02  0.25191610296E+02  0.00000000000E+00 0.  1.
</event>
<event>
 7    1  0.2353206E-008  0.4614232E+02  0.7816164E-02  0.1320468E+00
        -11   -1    0    0    0    0  0.00000000000E+00  0.00000000000E+00  0.45593999997E+02  0.45594000000E+02  0.51100000000E-03 0.  1.
         11   -1    0    0    0    0 -0.00000000000E+00 -0.00000000000E+00 -0.45593999997E+02  0.45594000000E+02  0.51100000000E-03 0. -1.
    9900012    2    1    2    0    0 -0.32800998419E+02  0.29324495877E+02  0.96582507051E+01  0.46142319159E+02  0.10000012748E+02 0.  0.
         12    1    1    2    0    0  0.32800998419E+02 -0.29324495877E+02 -0.96582507051E+01  0.45045680841E+02  0.00000000000E+00 0. -1.
         11    1    3    3    0    0 -0.11284794540E+02  0.63758869227E+01  0.33429161388E+01  0.13385574714E+02  0.51100000000E-03 0. -1.
        -11    1    3    3    0    0 -0.19000366191E+02  0.22689150013E+02  0.55120120885E+01  0.30103051693E+02  0.51100000000E-03 0.  1.
        -12    1    3    3    0    0 -0.25158376886E+01  0.25945894087E+00  0.80332247782E+00  0.26536927518E+01  0.00000000000E+00 0.  1.
</event>
<event>
 7    1  0.2353206E-008  0.4614232E+02  0.7816164E-02  0.1320468E+00
        -11   -1    0    0    0    0  0.00000000000E+00  0.00000000000E+00  0.45593999997E+02  0.45594000000E+02  0.51100000000E-03 0.  1.
         11   -1    0    0    0    0 -0.00000000000E+00 -0.00000000000E+00 -0.45593999997E+02  0.45594000000E+02  0.51100000000E-03 0. -1.
    9900012    2    1    2    0    0  0.58330540514E+01 -0.26639967735E+02  0.35852490547E+02  0.46142317866E+02  0.10000000957E+02 0.  0.
         12    1    1    2    0    0 -0.58330540514E+01  0.26639967735E+02 -0.35852490547E+02  0.45045682134E+02  0.00000000000E+00 0. -1.
         11    1    3    3    0    0 -0.52363686895E+00  0.14319942690E+00  0.24335624952E+00  0.59491526429E+00  0.51100000000E-03 0. -1.
        -11    1    3    3    0    0 -0.12924552540E+01 -0.74764962614E+01  0.84101849531E+01  0.11326943460E+02  0.51100000000E-03 0.  1.
        -12    1    3    3    0    0  0.76491461744E+01 -0.19306670901E+02  0.27198949344E+02  0.34220459142E+02  0.00000000000E+00 0.  1.
</event>
<event>
 7    1  0.2353206E-008  0.4614232E+02  0.7816164E-02  0.1320468E+00
        -11   -1    0    0    0    0  0.00000000000E+00  0.00000000000E+00  0.45593999997E+02  0.45594000000E+02  0.51100000000E-03 0.  1.
         11   -1    0    0    0    0 -0.00000000000E+00 -0.00000000000E+00 -0.45593999997E+02  0.45594000000E+02  0.51100000000E-03 0. -1.
    9900012    2    1    2    0    0 -0.40347751382E+02  0.19899780807E+02  0.22740353765E+01  0.46142317025E+02  0.99999932883E+01 0.  0.
         12    1    1    2    0    0  0.40347751382E+02 -0.19899780807E+02 -0.22740353765E+01  0.45045682975E+02  0.00000000000E+00 0. -1.
         11    1    3    3    0    0 -0.10865238001E+02  0.27601440614E+01  0.17537697917E+01  0.11346695589E+02  0.51100000000E-03 0. -1.
        -11    1    3    3    0    0 -0.20654771308E+02  0.82345134622E+01  0.85290398961E+00  0.22252061370E+02  0.51100000000E-03 0.  1.
         12    1    3    3    0    0 -0.88277420736E+01  0.89051232834E+01 -0.33263840480E+00  0.12543560066E+02  0.00000000000E+00 0. -1.
</event>
<event>
 7    1  0.2353206E-008  0.4614232E+02  0.7816164E-02  0.1320468E+00
        -11   -1    0    0    0    0  0.00000000000E+00  0.00000000000E+00  0.45593999997E+02  0.45594000000E+02  0.51100000000E-03 0.  1.
         11   -1    0    0    0    0 -0.00000000000E+00 -0.00000000000E+00 -0.45593999997E+02  0.45594000000E+02  0.51100000000E-03 0. -1.
    9900012    2    1    2    0    0  0.83608197260E-01 -0.30125227803E+02  0.33489956046E+02  0.46142317671E+02  0.99999991786E+01 0.  0.
         12    1    1    2    0    0 -0.83608197260E-01  0.30125227803E+02 -0.33489956046E+02  0.45045682329E+02  0.00000000000E+00 0. -1.
         11    1    3    3    0    0 -0.21323332032E+01 -0.80911834437E+01  0.45780185530E+01  0.95379425738E+01  0.51100000000E-03 0. -1.
        -11    1    3    3    0    0 -0.28983381148E+00 -0.61455670037E+01  0.58689428199E+01  0.85027341202E+01  0.51100000000E-03 0.  1.
        -12    1    3    3    0    0  0.25057752119E+01 -0.15888477356E+02  0.23042994673E+02  0.28101640977E+02  0.00000000000E+00 0.  1.
</event>
<event>
 7    1  0.2353206E-008  0.4614232E+02  0.7816164E-02  0.1320468E+00
        -11   -1    0    0    0    0  0.00000000000E+00  0.00000000000E+00  0.45593999997E+02  0.45594000000E+02  0.51100000000E-03 0.  1.
         11   -1    0    0    0    0 -0.00000000000E+00 -0.00000000000E+00 -0.45593999997E+02  0.45594000000E+02  0.51100000000E-03 0. -1.
    9900012    2    1    2    0    0  0.36601152567E+01  0.40912937122E+02  0.18489144440E+02  0.46142319522E+02  0.10000016054E+02 0.  0.
         12    1    1    2    0    0 -0.36601152567E+01 -0.40912937122E+02 -0.18489144440E+02  0.45045680478E+02  0.00000000000E+00 0. -1.
         11    1    3    3    0    0  0.28199125596E+01  0.70858945106E+01  0.32590096973E+01  0.82935488379E+01  0.51100000000E-03 0. -1.
        -11    1    3    3    0    0  0.49313200753E+00  0.33995214342E+02  0.14379137549E+02  0.36914460233E+02  0.51100000000E-03 0.  1.
        -12    1    3    3    0    0  0.34707068954E+00 -0.16817173097E+00  0.85099719412E+00  0.93431045110E+00  0.00000000000E+00 0.  1.
</event>
<event>
 7    1  0.2353206E-008  0.4614232E+02  0.7816164E-02  0.1320468E+00
        -11   -1    0    0    0    0  0.00000000000E+00  0.00000000000E+00  0.45593999997E+02  0.45594000000E+02  0.51100000000E-03 0. -1.
         11   -1    0    0    0    0 -0.00000000000E+00 -0.00000000000E+00 -0.45593999997E+02  0.45594000000E+02  0.51100000000E-03 0.  1.
    9900012    2    1    2    0    0  0.88087810586E+00 -0.29103003830E+02 -0.34370809326E+02  0.46142319720E+02  0.10000017860E+02 0.  0.
         12    1    1    2    0    0 -0.88087810586E+00  0.29103003830E+02  0.34370809326E+02  0.45045680280E+02  0.00000000000E+00 0. -1.
         11    1    3    3    0    0 -0.16208399605E+01 -0.15196891549E+02 -0.18183858064E+02  0.23753427738E+02  0.51100000000E-03 0. -1.
        -11    1    3    3    0    0 -0.76122046186E+00 -0.96658957943E+01 -0.12795972266E+02  0.16054466811E+02  0.51100000000E-03 0.  1.
         12    1    3    3    0    0  0.32629385282E+01 -0.42402164864E+01 -0.33909789959E+01  0.63344251706E+01  0.00000000000E+00 0. -1.
</event>
<event>
 7    1  0.2353206E-008  0.4614232E+02  0.7816164E-02  0.1320468E+00
        -11   -1    0    0    0    0  0.00000000000E+00  0.00000000000E+00  0.45593999997E+02  0.45594000000E+02  0.51100000000E-03 0.  1.
         11   -1    0    0    0    0 -0.00000000000E+00 -0.00000000000E+00 -0.45593999997E+02  0.45594000000E+02  0.51100000000E-03 0. -1.
    9900012    2    1    2    0    0 -0.34824165273E+02  0.16763229026E+02  0.23138391900E+02  0.46142317477E+02  0.99999974051E+01 0.  0.
         12    1    1    2    0    0  0.34824165273E+02 -0.16763229026E+02 -0.23138391900E+02  0.45045682523E+02  0.00000000000E+00 0. -1.
         11    1    3    3    0    0 -0.31284143973E+01 -0.91666291673E-01  0.23961245964E+01  0.39416738440E+01  0.51100000000E-03 0. -1.
        -11    1    3    3    0    0 -0.11998280394E+02  0.87108964495E+01  0.12337810176E+02  0.19288857135E+02  0.51100000000E-03 0.  1.
        -12    1    3    3    0    0 -0.19697470481E+02  0.81439988678E+01  0.84044571279E+01  0.22911786498E+02  0.00000000000E+00 0.  1.
</event>
<event>
 7    1  0.2353206E-008  0.4614232E+02  0.7816164E-02  0.1320468E+00
        -11   -1    0    0    0    0  0.00000000000E+00  0.00000000000E+00  0.45593999997E+02  0.45594000000E+02  0.51100000000E-03 0.  1.
         11   -1    0    0    0    0 -0.00000000000E+00 -0.00000000000E+00 -0.45593999997E+02  0.45594000000E+02  0.51100000000E-03 0. -1.
    9900012    2    1    2    0    0 -0.16884094042E+02 -0.33933827311E+01  0.41623621054E+02  0.46142317547E+02  0.99999980499E+01 0.  0.
         12    1    1    2    0    0  0.16884094042E+02  0.33933827311E+01 -0.41623621054E+02  0.45045682453E+02  0.00000000000E+00 0. -1.
         11    1    3    3    0    0 -0.32873490329E+01  0.80090817038E+00  0.12292838265E+02  0.12749980017E+02  0.51100000000E-03 0. -1.
        -11    1    3    3    0    0 -0.58360798064E+01  0.18508892165E+01  0.11448483368E+02  0.12982811332E+02  0.51100000000E-03 0.  1.
         12    1    3    3    0    0 -0.77606652031E+01 -0.60451801179E+01  0.17882299421E+02  0.20409526198E+02  0.00000000000E+00 0. -1.
</event>
<event>
 7    1  0.2353206E-008  0.4614232E+02  0.7816164E-02  0.1320468E+00
        -11   -1    0    0    0    0  0.00000000000E+00  0.00000000000E+00  0.45593999997E+02  0.45594000000E+02  0.51100000000E-03 0.  1.
         11   -1    0    0    0    0 -0.00000000000E+00 -0.00000000000E+00 -0.45593999997E+02  0.45594000000E+02  0.51100000000E-03 0. -1.
    9900012    2    1    2    0    0 -0.56847342760E+01  0.32885995789E+02  0.30254067575E+02  0.46142317325E+02  0.99999960197E+01 0.  0.
         12    1    1    2    0    0  0.56847342760E+01 -0.32885995789E+02 -0.30254067575E+02  0.45045682675E+02  0.00000000000E+00 0. -1.
         11    1    3    3    0    0  0.50598475082E+00 -0.37414036295E+00  0.12891840880E+01  0.14345722196E+01  0.51100000000E-03 0. -1.
        -11    1    3    3    0    0 -0.52518073668E+00  0.12158293571E+02  0.93678609630E+01  0.15357627963E+02  0.51100000000E-03 0.  1.
         12    1    3    3    0    0 -0.56655382901E+01  0.21101842582E+02  0.19597022524E+02  0.29350117142E+02  0.00000000000E+00 0. -1.
</event>
<event>
 7    1  0.2353206E-008  0.4614231E+02  0.7816164E-02  0.1320468E+00
        -11   -1    0    0    0    0  0.00000000000E+00  0.00000000000E+00  0.45593999997E+02  0.45594000000E+02  0.51100000000E-03 0.  1.
         11   -1    0    0    0    0 -0.00000000000E+00 -0.00000000000E+00 -0.45593999997E+02  0.45594000000E+02  0.51100000000E-03 0. -1.
    9900012    2    1    2    0    0 -0.34902831612E+02  0.25281631232E+02  0.13105165061E+02  0.46142313375E+02  0.99999600025E+01 0.  0.
         12    1    1    2    0    0  0.34902831612E+02 -0.25281631232E+02 -0.13105165061E+02  0.45045686625E+02  0.00000000000E+00 0. -1.
         11    1    3    3    0    0 -0.42548143023E+01  0.77354302399E+00  0.23908244693E+01  0.49414426498E+01  0.51100000000E-03 0. -1.
        -11    1    3    3    0    0 -0.10212048632E+02  0.11836604696E+02  0.56866933045E+01  0.16635192484E+02  0.51100000000E-03 0.  1.
        -12    1    3    3    0    0 -0.20435968678E+02  0.12671483511E+02  0.50276472876E+01  0.24565678241E+02  0.00000000000E+00 0.  1.
</event>
<event>
 7    1  0.2353206E-008  0.4614232E+02  0.7816164E-02  0.1320468E+00
        -11   -1    0    0    0    0  0.00000000000E+00  0.00000000000E+00  0.45593999997E+02  0.45594000000E+02  0.51100000000E-03 0. -1.
         11   -1    0    0    0    0 -0.00000000000E+00 -0.00000000000E+00 -0.45593999997E+02  0.45594000000E+02  0.51100000000E-03 0.  1.
    9900012    2    1    2    0    0  0.78448644235E+01 -0.38141510260E+02 -0.22645015932E+02  0.46142318195E+02  0.10000003959E+02 0.  0.
         12    1    1    2    0    0 -0.78448644235E+01  0.38141510260E+02  0.22645015932E+02  0.45045681805E+02  0.00000000000E+00 0. -1.
         11    1    3    3    0    0  0.20379504337E+00  0.14462640730E+00 -0.36222205231E-01  0.25251044862E+00  0.51100000000E-03 0. -1.
        -11    1    3    3    0    0  0.15839998322E+01 -0.14560283540E+02 -0.41433437886E+01  0.15220979280E+02  0.51100000000E-03 0.  1.
        -12    1    3    3    0    0  0.60570695479E+01 -0.23725853127E+02 -0.18465449938E+02  0.30668828467E+02  0.00000000000E+00 0.  1.
</event>
<event>
 7    1  0.2353206E-008  0.4614232E+02  0.7816164E-02  0.1320468E+00
        -11   -1    0    0    0    0  0.00000000000E+00  0.00000000000E+00  0.45593999997E+02  0.45594000000E+02  0.51100000000E-03 0.  1.
         11   -1    0    0    0    0 -0.00000000000E+00 -0.00000000000E+00 -0.45593999997E+02  0.45594000000E+02  0.51100000000E-03 0. -1.
    9900012    2    1    2    0    0 -0.30125375503E+02 -0.59058228090E+01  0.32965080368E+02  0.46142317455E+02  0.99999972124E+01 0.  0.
         12    1    1    2    0    0  0.30125375503E+02  0.59058228090E+01 -0.32965080368E+02  0.45045682545E+02  0.00000000000E+00 0. -1.
         11    1    3    3    0    0 -0.37183048313E+00 -0.11909760396E+01  0.30072745460E+01  0.32558228286E+01  0.51100000000E-03 0. -1.
        -11    1    3    3    0    0 -0.29783051843E+02 -0.40916843243E+01  0.29281618528E+02  0.41966477593E+02  0.51100000000E-03 0.  1.
        -12    1    3    3    0    0  0.29506823431E-01 -0.62316244506E+00  0.67618729395E+00  0.92001703357E+00  0.00000000000E+00 0.  1.
</event>
<event>
 7    1  0.2353206E-008  0.4614232E+02  0.7816164E-02  0.1320468E+00
        -11   -1    0    0    0    0  0.00000000000E+00  0.00000000000E+00  0.45593999997E+02  0.45594000000E+02  0.51100000000E-03 0.  1.
         11   -1    0    0    0    0 -0.00000000000E+00 -0.00000000000E+00 -0.45593999997E+02  0.45594000000E+02  0.51100000000E-03 0. -1.
    9900012    2    1    2    0    0  0.97404562991E+01 -0.37895563969E+02 -0.22319570802E+02  0.46142317652E+02  0.99999990009E+01 0.  0.
         12    1    1    2    0    0 -0.97404562991E+01  0.37895563969E+02  0.22319570802E+02  0.45045682348E+02  0.00000000000E+00 0. -1.
         11    1    3    3    0    0  0.18181549119E+01 -0.19114557666E+01 -0.55990680752E+00  0.26968215227E+01  0.51100000000E-03 0. -1.
        -11    1    3    3    0    0 -0.83314517717E+00 -0.64452894917E+00 -0.13322552356E+01  0.16983676653E+01  0.51100000000E-03 0.  1.
        -12    1    3    3    0    0  0.87554465643E+01 -0.35339579253E+02 -0.20427408759E+02  0.41747128464E+02  0.00000000000E+00 0.  1.
</event>
<event>
 7    1  0.2353206E-008  0.4614232E+02  0.7816164E-02  0.1320468E+00
        -11   -1    0    0    0    0  0.00000000000E+00  0.00000000000E+00  0.45593999997E+02  0.45594000000E+02  0.51100000000E-03 0. -1.
         11   -1    0    0    0    0 -0.00000000000E+00 -0.00000000000E+00 -0.45593999997E+02  0.45594000000E+02  0.51100000000E-03 0.  1.
    9900012    2    1    2    0    0 -0.11778938083E+02  0.34835475584E+02 -0.26016528925E+02  0.46142317423E+02  0.99999969188E+01 0.  0.
         12    1    1    2    0    0  0.11778938083E+02 -0.34835475584E+02  0.26016528925E+02  0.45045682577E+02  0.00000000000E+00 0. -1.
         11    1    3    3    0    0 -0.21367949312E+01  0.10178703751E+02 -0.97189436131E+01  0.14234808318E+02  0.51100000000E-03 0. -1.
        -11    1    3    3    0    0 -0.83594467927E+01  0.24664784937E+02 -0.14873427685E+02  0.29990845570E+02  0.51100000000E-03 0.  1.
         12    1    3    3    0    0 -0.12826963591E+01 -0.80131044285E-02 -0.14241576273E+01  0.19166635351E+01  0.00000000000E+00 0. -1.
</event>
<event>
 7    1  0.2353206E-008  0.4614233E+02  0.7816164E-02  0.1320468E+00
        -11   -1    0    0    0    0  0.00000000000E+00  0.00000000000E+00  0.45593999997E+02  0.45594000000E+02  0.51100000000E-03 0.  1.
         11   -1    0    0    0    0 -0.00000000000E+00 -0.00000000000E+00 -0.45593999997E+02  0.45594000000E+02  0.51100000000E-03 0. -1.
    9900012    2    1    2    0    0 -0.30115923295E+02 -0.24969102203E+02  0.22331316325E+02  0.46142327738E+02  0.10000090973E+02 0.  0.
         12    1    1    2    0    0  0.30115923295E+02  0.24969102203E+02 -0.22331316325E+02  0.45045672262E+02  0.00000000000E+00 0. -1.
         11    1    3    3    0    0 -0.81527590539E+01 -0.85481887738E+01  0.47087214545E+01  0.12716566734E+02  0.51100000000E-03 0. -1.
        -11    1    3    3    0    0 -0.21722855404E+02 -0.16670515703E+02  0.18108893521E+02  0.32828654640E+02  0.51100000000E-03 0.  1.
         12    1    3    3    0    0 -0.24030883746E+00  0.24960227342E+00 -0.48629864977E+00  0.59710636325E+00  0.00000000000E+00 0. -1.
</event>
<event>
 7    1  0.2353206E-008  0.4614232E+02  0.7816164E-02  0.1320468E+00
        -11   -1    0    0    0    0  0.00000000000E+00  0.00000000000E+00  0.45593999997E+02  0.45594000000E+02  0.51100000000E-03 0.  1.
         11   -1    0    0    0    0 -0.00000000000E+00 -0.00000000000E+00 -0.45593999997E+02  0.45594000000E+02  0.51100000000E-03 0. -1.
    9900012    2    1    2    0    0  0.14385809052E+01 -0.23458921693E+02  0.38428153739E+02  0.46142317390E+02  0.99999966166E+01 0.  0.
         12    1    1    2    0    0 -0.14385809052E+01  0.23458921693E+02 -0.38428153739E+02  0.45045682610E+02  0.00000000000E+00 0. -1.
         11    1    3    3    0    0 -0.86667632989E+00 -0.16712278027E+00  0.60544414880E+01  0.61184409678E+01  0.51100000000E-03 0. -1.
        -11    1    3    3    0    0  0.74980398512E+00 -0.94271174088E+01  0.15138107524E+02  0.17849231029E+02  0.51100000000E-03 0.  1.
         12    1    3    3    0    0  0.15554532500E+01 -0.13864681504E+02  0.17235604727E+02  0.22174645394E+02  0.00000000000E+00 0. -1.
</event>
<event>
 7    1  0.2353206E-008  0.4614232E+02  0.7816164E-02  0.1320468E+00
        -11   -1    0    0    0    0  0.00000000000E+00  0.00000000000E+00  0.45593999997E+02  0.45594000000E+02  0.51100000000E-03 0.  1.
         11   -1    0    0    0    0 -0.00000000000E+00 -0.00000000000E+00 -0.45593999997E+02  0.45594000000E+02  0.51100000000E-03 0. -1.
    9900012    2    1    2    0    0 -0.37649373108E+01 -0.13420892527E+02  0.42834780551E+02  0.46142317255E+02  0.99999953813E+01 0.  0.
         12    1    1    2    0    0  0.37649373108E+01  0.13420892527E+02 -0.42834780551E+02  0.45045682745E+02  0.00000000000E+00 0. -1.
         11    1    3    3    0    0  0.28629982720E+00 -0.31693027311E+01  0.17710294611E+02  0.17993915162E+02  0.51100000000E-03 0. -1.
        -11    1    3    3    0    0 -0.79238132218E+00  0.29357301457E+00  0.60664550979E+01  0.61250249787E+01  0.51100000000E-03 0.  1.
        -12    1    3    3    0    0 -0.32588558158E+01 -0.10545162810E+02  0.19058030842E+02  0.22023377114E+02  0.00000000000E+00 0.  1.
</event>
<event>
 7    1  0.2353206E-008  0.4614232E+02  0.7816164E-02  0.1320468E+00
        -11   -1    0    0    0    0  0.00000000000E+00  0.00000000000E+00  0.45593999997E+02  0.45594000000E+02  0.51100000000E-03 0.  1.
         11   -1    0    0    0    0 -0.00000000000E+00 -0.00000000000E+00 -0.45593999997E+02  0.45594000000E+02  0.51100000000E-03 0. -1.
    9900012    2    1    2    0    0 -0.32188975722E+02 -0.31329085428E+02  0.33869888479E+01  0.46142318240E+02  0.10000004370E+02 0.  0.
         12    1    1    2    0    0  0.32188975722E+02  0.31329085428E+02 -0.33869888479E+01  0.45045681760E+02  0.00000000000E+00 0. -1.
         11    1    3    3    0    0 -0.11882305138E+01 -0.20320644277E+01  0.52389552610E+00  0.24115647151E+01  0.51100000000E-03 0. -1.
        -11    1    3    3    0    0 -0.21504803717E+02 -0.20273792798E+02 -0.23147156872E+01  0.29645255376E+02  0.51100000000E-03 0.  1.
        -12    1    3    3    0    0 -0.94959414908E+01 -0.90232282016E+01  0.51778090090E+01  0.14085498149E+02  0.00000000000E+00 0.  1.
</event>
<event>
 7    1  0.2353206E-008  0.4614232E+02  0.7816164E-02  0.1320468E+00
        -11   -1    0    0    0    0  0.00000000000E+00  0.00000000000E+00  0.45593999997E+02  0.45594000000E+02  0.51100000000E-03 0.  1.
         11   -1    0    0    0    0 -0.00000000000E+00 -0.00000000000E+00 -0.45593999997E+02  0.45594000000E+02  0.51100000000E-03 0. -1.
    9900012    2    1    2    0    0  0.96270822312E+01  0.41318250454E+02  0.15140507397E+02  0.46142317664E+02  0.99999991186E+01 0.  0.
         12    1    1    2    0    0 -0.96270822312E+01 -0.41318250454E+02 -0.15140507397E+02  0.45045682336E+02  0.00000000000E+00 0. -1.
         11    1    3    3    0    0  0.35302407670E+01  0.10290310896E+02  0.33773903735E+01  0.11391218732E+02  0.51100000000E-03 0. -1.
        -11    1    3    3    0    0  0.60478476734E+01  0.10681044996E+02  0.55975650333E+01  0.13490512157E+02  0.51100000000E-03 0.  1.
         12    1    3    3    0    0  0.48993790766E-01  0.20346894562E+02  0.61655519901E+01  0.21260586776E+02  0.00000000000E+00 0. -1.
</event>
<event>
 7    1  0.2353206E-008  0.4614232E+02  0.7816164E-02  0.1320468E+00
        -11   -1    0    0    0    0  0.00000000000E+00  0.00000000000E+00  0.45593999997E+02  0.45594000000E+02  0.51100000000E-03 0. -1.
         11   -1    0    0    0    0 -0.00000000000E+00 -0.00000000000E+00 -0.45593999997E+02  0.45594000000E+02  0.51100000000E-03 0.  1.
    9900012    2    1    2    0    0  0.93946356626E+01  0.36840856789E+02 -0.24157930487E+02  0.46142317481E+02  0.99999974470E+01 0.  0.
         12    1    1    2    0    0 -0.93946356626E+01 -0.36840856789E+02  0.24157930487E+02  0.45045682519E+02  0.00000000000E+00 0. -1.
         11    1    3    3    0    0 -0.39947306920E+00 -0.23133934851E+00 -0.10483862714E+01  0.11455176394E+01  0.51100000000E-03 0. -1.
        -11    1    3    3    0    0  0.10434765220E+01  0.10299957624E+02 -0.76008917319E+01  0.12843345580E+02  0.51100000000E-03 0.  1.
         12    1    3    3    0    0  0.87506322099E+01  0.26772238514E+02 -0.15508652484E+02  0.32153454262E+02  0.00000000000E+00 0. -1.
</event>
<event>
 7    1  0.2353206E-008  0.4614232E+02  0.7816164E-02  0.1320468E+00
        -11   -1    0    0    0    0  0.00000000000E+00  0.00000000000E+00  0.45593999997E+02  0.45594000000E+02  0.51100000000E-03 0. -1.
         11   -1    0    0    0    0 -0.00000000000E+00 -0.00000000000E+00 -0.45593999997E+02  0.45594000000E+02  0.51100000000E-03 0.  1.
    9900012    2    1    2    0    0 -0.25631388456E+02  0.38800872667E+01 -0.36838707254E+02  0.46142317593E+02  0.99999984660E+01 0.  0.
         12    1    1    2    0    0  0.25631388456E+02 -0.38800872667E+01  0.36838707254E+02  0.45045682407E+02  0.00000000000E+00 0. -1.
         11    1    3    3    0    0 -0.92191718404E+01 -0.12875729090E+01 -0.89891438538E+01  0.12940466796E+02  0.51100000000E-03 0. -1.
        -11    1    3    3    0    0 -0.71653491126E+01  0.45883020506E+01 -0.16376571585E+02  0.18454995008E+02  0.51100000000E-03 0.  1.
        -12    1    3    3    0    0 -0.92468675025E+01  0.57935812512E+00 -0.11472991815E+02  0.14746855788E+02  0.00000000000E+00 0.  1.
</event>
<event>
 7    1  0.2353206E-008  0.4614232E+02  0.7816164E-02  0.1320468E+00
        -11   -1    0    0    0    0  0.00000000000E+00  0.00000000000E+00  0.45593999997E+02  0.45594000000E+02  0.51100000000E-03 0.  1.
         11   -1    0    0    0    0 -0.00000000000E+00 -0.00000000000E+00 -0.45593999997E+02  0.45594000000E+02  0.51100000000E-03 0. -1.
    9900012    2    1    2    0    0  0.46761410537E+01 -0.32274549566E+02  0.31074111909E+02  0.46142320121E+02  0.10000021521E+02 0.  0.
         12    1    1    2    0    0 -0.46761410537E+01  0.32274549566E+02 -0.31074111909E+02  0.45045679879E+02  0.00000000000E+00 0. -1.
         11    1    3    3    0    0 -0.41385097228E+00 -0.68188745255E+00  0.52520235594E+00  0.95502926710E+00  0.51100000000E-03 0. -1.
        -11    1    3    3    0    0  0.47995095027E+01 -0.69015931313E+01  0.57052958630E+01  0.10159610247E+02  0.51100000000E-03 0.  1.
        -12    1    3    3    0    0  0.29048252321E+00 -0.24691068982E+02  0.24843613690E+02  0.35027680607E+02  0.00000000000E+00 0.  1.
</event>
<event>
 7    1  0.2353206E-008  0.4614232E+02  0.7816164E-02  0.1320468E+00
        -11   -1    0    0    0    0  0.00000000000E+00  0.00000000000E+00  0.45593999997E+02  0.45594000000E+02  0.51100000000E-03 0.  1.
         11   -1    0    0    0    0 -0.00000000000E+00 -0.00000000000E+00 -0.45593999997E+02  0.45594000000E+02  0.51100000000E-03 0. -1.
    9900012    2    1    2    0    0  0.20567827930E+02 -0.41575317151E+01  0.39859665253E+02  0.46142317301E+02  0.99999958033E+01 0.  0.
         12    1    1    2    0    0 -0.20567827930E+02  0.41575317151E+01 -0.39859665253E+02  0.45045682699E+02  0.00000000000E+00 0. -1.
         11    1    3    3    0    0  0.26486786584E+01 -0.38687458488E+01  0.45239684810E+01  0.65152884937E+01  0.51100000000E-03 0. -1.
        -11    1    3    3    0    0  0.40574475450E+01 -0.11249589230E+00  0.73651404935E+01  0.84095678044E+01  0.51100000000E-03 0.  1.
         12    1    3    3    0    0  0.13861701727E+02 -0.17628997394E+00  0.27970556279E+02  0.31217461003E+02  0.00000000000E+00 0. -1.
</event>
<event>
 7    1  0.2353206E-008  0.4614232E+02  0.7816164E-02  0.1320468E+00
        -11   -1    0    0    0    0  0.00000000000E+00  0.00000000000E+00  0.45593999997E+02  0.45594000000E+02  0.51100000000E-03 0. -1.
         11   -1    0    0    0    0 -0.00000000000E+00 -0.00000000000E+00 -0.45593999997E+02  0.45594000000E+02  0.51100000000E-03 0.  1.
    9900012    2    1    2    0    0 -0.39284343954E+02  0.21760621151E+02 -0.35112960937E+01  0.46142317487E+02  0.99999975006E+01 0.  0.
         12    1    1    2    0    0  0.39284343954E+02 -0.21760621151E+02  0.35112960937E+01  0.45045682513E+02  0.00000000000E+00 0. -1.
         11    1    3    3    0    0 -0.75514431852E+01  0.72095181352E+01 -0.52868083365E+00  0.10453752896E+02  0.51100000000E-03 0. -1.
        -11    1    3    3    0    0 -0.11984327508E+02  0.78334326997E+01  0.13589277641E+01  0.14381705692E+02  0.51100000000E-03 0.  1.
         12    1    3    3    0    0 -0.19748573261E+02  0.67176703165E+01 -0.43415430242E+01  0.21306858899E+02  0.00000000000E+00 0. -1.
</event>
<event>
 7    1  0.2353206E-008  0.4614232E+02  0.7816164E-02  0.1320468E+00
        -11   -1    0    0    0    0  0.00000000000E+00  0.00000000000E+00  0.45593999997E+02  0.45594000000E+02  0.51100000000E-03 0. -1.
         11   -1    0    0    0    0 -0.00000000000E+00 -0.00000000000E+00 -0.45593999997E+02  0.45594000000E+02  0.51100000000E-03 0.  1.
    9900012    2    1    2    0    0 -0.38280229325E+02  0.49486983931E+01 -0.23221708074E+02  0.46142319865E+02  0.10000019188E+02 0.  0.
         12    1    1    2    0    0  0.38280229325E+02 -0.49486983931E+01  0.23221708074E+02  0.45045680135E+02  0.00000000000E+00 0. -1.
         11    1    3    3    0    0 -0.24626949037E+02  0.33464378015E+00 -0.12317018815E+02  0.27537384736E+02  0.51100000000E-03 0. -1.
        -11    1    3    3    0    0  0.16737778551E+00 -0.16463292044E+00  0.14523862422E+00  0.27606854341E+00  0.51100000000E-03 0.  1.
        -12    1    3    3    0    0 -0.13820658073E+02  0.47786875334E+01 -0.11049927883E+02  0.18328866586E+02  0.00000000000E+00 0.  1.
</event>
<event>
 7    1  0.2353206E-008  0.4614232E+02  0.7816164E-02  0.1320468E+00
        -11   -1    0    0    0    0  0.00000000000E+00  0.00000000000E+00  0.45593999997E+02  0.45594000000E+02  0.51100000000E-03 0.  1.
         11   -1    0    0    0    0 -0.00000000000E+00 -0.00000000000E+00 -0.45593999997E+02  0.45594000000E+02  0.51100000000E-03 0. -1.
    9900012    2    1    2    0    0 -0.19914380544E+02 -0.39373906751E+02 -0.90678693765E+01  0.46142319404E+02  0.10000014983E+02 0.  0.
         12    1    1    2    0    0  0.19914380544E+02  0.39373906751E+02  0.90678693765E+01  0.45045680596E+02  0.00000000000E+00 0. -1.
         11    1    3    3    0    0 -0.84757112154E+00 -0.61364420958E+00 -0.69356566802E+00  0.12553762858E+01  0.51100000000E-03 0. -1.
        -11    1    3    3    0    0 -0.10570421873E+02 -0.17715469986E+02 -0.81770361688E+01  0.22190890387E+02  0.51100000000E-03 0.  1.
        -12    1    3    3    0    0 -0.84963875494E+01 -0.21044792556E+02 -0.19726753966E+00  0.22696052732E+02  0.00000000000E+00 0.  1.
</event>
<event>
 7    1  0.2353206E-008  0.4614232E+02  0.7816164E-02  0.1320468E+00
        -11   -1    0    0    0    0  0.00000000000E+00  0.00000000000E+00  0.45593999997E+02  0.45594000000E+02  0.51100000000E-03 0.  1.
         11   -1    0    0    0    0 -0.00000000000E+00 -0.00000000000E+00 -0.45593999997E+02  0.45594000000E+02  0.51100000000E-03 0. -1.
    9900012    2    1    2    0    0 -0.29529507279E+02 -0.33511851688E+02 -0.58375879507E+01  0.46142318334E+02  0.10000005225E+02 0.  0.
         12    1    1    2    0    0  0.29529507279E+02  0.33511851688E+02  0.58375879507E+01  0.45045681666E+02  0.00000000000E+00 0. -1.
         11    1    3    3    0    0 -0.63944898523E+00 -0.10173575849E+01  0.46025197608E+00  0.12867570100E+01  0.51100000000E-03 0. -1.
        -11    1    3    3    0    0 -0.63819119631E+01 -0.65535923930E+01  0.23385993355E+01  0.94417911792E+01  0.51100000000E-03 0.  1.
        -12    1    3    3    0    0 -0.22508146330E+02 -0.25940901710E+02 -0.86364392623E+01  0.35413770145E+02  0.00000000000E+00 0.  1.
</event>
<event>
 7    1  0.2353206E-008  0.4614232E+02  0.7816164E-02  0.1320468E+00
        -11   -1    0    0    0    0  0.00000000000E+00  0.00000000000E+00  0.45593999997E+02  0.45594000000E+02  0.51100000000E-03 0.  1.
         11   -1    0    0    0    0 -0.00000000000E+00 -0.00000000000E+00 -0.45593999997E+02  0.45594000000E+02  0.51100000000E-03 0. -1.
    9900012    2    1    2    0    0 -0.12850750285E+02  0.26117165164E+02  0.34378269289E+02  0.46142317650E+02  0.99999989844E+01 0.  0.
         12    1    1    2    0    0  0.12850750285E+02 -0.26117165164E+02 -0.34378269289E+02  0.45045682350E+02  0.00000000000E+00 0. -1.
         11    1    3    3    0    0  0.33663872899E+00  0.37289632943E+01  0.11111260631E+01  0.39055209989E+01  0.51100000000E-03 0. -1.
        -11    1    3    3    0    0 -0.44179054253E+01  0.88525669841E+01  0.12392490104E+02  0.15857479049E+02  0.51100000000E-03 0.  1.
         12    1    3    3    0    0 -0.87694835884E+01  0.13535634885E+02  0.20874653122E+02  0.26379317602E+02  0.00000000000E+00 0. -1.
</event>
<event>
 7    1  0.2353206E-008  0.4614231E+02  0.7816164E-02  0.1320468E+00
        -11   -1    0    0    0    0  0.00000000000E+00  0.00000000000E+00  0.45593999997E+02  0.45594000000E+02  0.51100000000E-03 0.  1.
         11   -1    0    0    0    0 -0.00000000000E+00 -0.00000000000E+00 -0.45593999997E+02  0.45594000000E+02  0.51100000000E-03 0. -1.
    9900012    2    1    2    0    0 -0.34797991508E+02  0.27633436681E+00  0.28603111435E+02  0.46142305895E+02  0.99998917943E+01 0.  0.
         12    1    1    2    0    0  0.34797991508E+02 -0.27633436681E+00 -0.28603111435E+02  0.45045694105E+02  0.00000000000E+00 0. -1.
         11    1    3    3    0    0 -0.11178124823E+02  0.29165559763E+01  0.11697465686E+02  0.16440422046E+02  0.51100000000E-03 0. -1.
        -11    1    3    3    0    0  0.16156267398E-02 -0.45059452548E+00 -0.16038721267E+00  0.47829107848E+00  0.51100000000E-03 0.  1.
        -12    1    3    3    0    0 -0.23621482312E+02 -0.21896270840E+01  0.17066032962E+02  0.29223592770E+02  0.00000000000E+00 0.  1.
</event>
<event>
 7    1  0.2353206E-008  0.4614232E+02  0.7816164E-02  0.1320468E+00
        -11   -1    0    0    0    0  0.00000000000E+00  0.00000000000E+00  0.45593999997E+02  0.45594000000E+02  0.51100000000E-03 0.  1.
         11   -1    0    0    0    0 -0.00000000000E+00 -0.00000000000E+00 -0.45593999997E+02  0.45594000000E+02  0.51100000000E-03 0. -1.
    9900012    2    1    2    0    0  0.11890887699E+02 -0.30274798731E+02  0.31163390446E+02  0.46142317048E+02  0.99999935008E+01 0.  0.
         12    1    1    2    0    0 -0.11890887699E+02  0.30274798731E+02 -0.31163390446E+02  0.45045682952E+02  0.00000000000E+00 0. -1.
         11    1    3    3    0    0  0.16767138828E+00 -0.18516550596E+01 -0.66406764407E-01  0.18604166936E+01  0.51100000000E-03 0. -1.
        -11    1    3    3    0    0  0.20580374543E-01 -0.26798098744E+01  0.93124624290E+00  0.28370802493E+01  0.51100000000E-03 0.  1.
        -12    1    3    3    0    0  0.11702635936E+02 -0.25743333797E+02  0.30298550967E+02  0.41444820106E+02  0.00000000000E+00 0.  1.
</event>
<event>
 7    1  0.2353206E-008  0.4614232E+02  0.7816164E-02  0.1320468E+00
        -11   -1    0    0    0    0  0.00000000000E+00  0.00000000000E+00  0.45593999997E+02  0.45594000000E+02  0.51100000000E-03 0.  1.
         11   -1    0    0    0    0 -0.00000000000E+00 -0.00000000000E+00 -0.45593999997E+02  0.45594000000E+02  0.51100000000E-03 0. -1.
    9900012    2    1    2    0    0 -0.41132064255E+02  0.82557218909E+01 -0.16404570146E+02  0.46142316794E+02  0.99999911784E+01 0.  0.
         12    1    1    2    0    0  0.41132064255E+02 -0.82557218909E+01  0.16404570146E+02  0.45045683206E+02  0.00000000000E+00 0. -1.
         11    1    3    3    0    0 -0.37769534559E+01 -0.50214748703E+00 -0.45070100064E+00  0.38367513810E+01  0.51100000000E-03 0. -1.
        -11    1    3    3    0    0 -0.95970344844E+01  0.52543937480E+01 -0.23304640546E+01  0.11186723717E+02  0.51100000000E-03 0.  1.
        -12    1    3    3    0    0 -0.27758076315E+02  0.35034756300E+01 -0.13623405091E+02  0.31118841696E+02  0.00000000000E+00 0.  1.
</event>
<event>
 7    1  0.2353206E-008  0.4614232E+02  0.7816164E-02  0.1320468E+00
        -11   -1    0    0    0    0  0.00000000000E+00  0.00000000000E+00  0.45593999997E+02  0.45594000000E+02  0.51100000000E-03 0.  1.
         11   -1    0    0    0    0 -0.00000000000E+00 -0.00000000000E+00 -0.45593999997E+02  0.45594000000E+02  0.51100000000E-03 0. -1.
    9900012    2    1    2    0    0 -0.25900562890E+02 -0.29712054880E+02  0.21805232282E+02  0.46142317431E+02  0.99999969926E+01 0.  0.
         12    1    1    2    0    0  0.25900562890E+02  0.29712054880E+02 -0.21805232282E+02  0.45045682569E+02  0.00000000000E+00 0. -1.
         11    1    3    3    0    0 -0.95408994534E+01 -0.15324589769E+02  0.10313207284E+02  0.20790239506E+02  0.51100000000E-03 0. -1.
        -11    1    3    3    0    0 -0.97004025389E+01 -0.11365335898E+02  0.55863982432E+01  0.15952320054E+02  0.51100000000E-03 0.  1.
        -12    1    3    3    0    0 -0.66592608977E+01 -0.30221292124E+01  0.59056267545E+01  0.93997578715E+01  0.00000000000E+00 0.  1.
</event>
<event>
 7    1  0.2353206E-008  0.4614232E+02  0.7816164E-02  0.1320468E+00
        -11   -1    0    0    0    0  0.00000000000E+00  0.00000000000E+00  0.45593999997E+02  0.45594000000E+02  0.51100000000E-03 0. -1.
         11   -1    0    0    0    0 -0.00000000000E+00 -0.00000000000E+00 -0.45593999997E+02  0.45594000000E+02  0.51100000000E-03 0.  1.
    9900012    2    1    2    0    0  0.31401769833E+02  0.23044729965E+02 -0.22627036228E+02  0.46142317673E+02  0.99999991981E+01 0.  0.
         12    1    1    2    0    0 -0.31401769833E+02 -0.23044729965E+02  0.22627036228E+02  0.45045682327E+02  0.00000000000E+00 0. -1.
         11    1    3    3    0    0  0.94623602268E+00  0.14359611386E+01 -0.34406643020E+01  0.38464942613E+01  0.51100000000E-03 0. -1.
        -11    1    3    3    0    0  0.22502123509E+02  0.13515085216E+02 -0.14771766712E+02  0.30119896793E+02  0.51100000000E-03 0.  1.
         12    1    3    3    0    0  0.79534103013E+01  0.80936836111E+01 -0.44146052143E+01  0.12175926618E+02  0.00000000000E+00 0. -1.
</event>
<event>
 7    1  0.2353206E-008  0.4614232E+02  0.7816164E-02  0.1320468E+00
        -11   -1    0    0    0    0  0.00000000000E+00  0.00000000000E+00  0.45593999997E+02  0.45594000000E+02  0.51100000000E-03 0.  1.
         11   -1    0    0    0    0 -0.00000000000E+00 -0.00000000000E+00 -0.45593999997E+02  0.45594000000E+02  0.51100000000E-03 0. -1.
    9900012    2    1    2    0    0 -0.24606025802E+02 -0.35876630480E+02  0.11684353300E+02  0.46142320602E+02  0.10000025909E+02 0.  0.
         12    1    1    2    0    0  0.24606025802E+02  0.35876630480E+02 -0.11684353300E+02  0.45045679398E+02  0.00000000000E+00 0. -1.
         11    1    3    3    0    0  0.21500081815E+00 -0.25479653547E+01  0.12869115099E+01  0.28626027137E+01  0.51100000000E-03 0. -1.
        -11    1    3    3    0    0 -0.15908057556E+02 -0.16384545149E+02  0.64707272280E+01  0.23735836325E+02  0.51100000000E-03 0.  1.
        -12    1    3    3    0    0 -0.89129690640E+01 -0.16944119976E+02  0.39267145621E+01  0.19543881563E+02  0.00000000000E+00 0.  1.
</event>
<event>
 7    1  0.2353206E-008  0.4614232E+02  0.7816164E-02  0.1320468E+00
        -11   -1    0    0    0    0  0.00000000000E+00  0.00000000000E+00  0.45593999997E+02  0.45594000000E+02  0.51100000000E-03 0.  1.
         11   -1    0    0    0    0 -0.00000000000E+00 -0.00000000000E+00 -0.45593999997E+02  0.45594000000E+02  0.51100000000E-03 0. -1.
    9900012    2    1    2    0    0 -0.31040901032E+02 -0.22925947020E+02  0.23237402811E+02  0.46142317931E+02  0.10000001551E+02 0.  0.
         12    1    1    2    0    0  0.31040901032E+02  0.22925947020E+02 -0.23237402811E+02  0.45045682069E+02  0.00000000000E+00 0. -1.
         11    1    3    3    0    0 -0.42646013218E+01 -0.49819583906E+01  0.12583673686E+01  0.66775910728E+01  0.51100000000E-03 0. -1.
        -11    1    3    3    0    0 -0.22605535629E+02 -0.17390232161E+02  0.18399728211E+02  0.33940836969E+02  0.51100000000E-03 0.  1.
         12    1    3    3    0    0 -0.41707640812E+01 -0.55375646800E+00  0.35793072317E+01  0.55238898890E+01  0.00000000000E+00 0. -1.
</event>
<event>
 7    1  0.2353206E-008  0.4614232E+02  0.7816164E-02  0.1320468E+00
        -11   -1    0    0    0    0  0.00000000000E+00  0.00000000000E+00  0.45593999997E+02  0.45594000000E+02  0.51100000000E-03 0. -1.
         11   -1    0    0    0    0 -0.00000000000E+00 -0.00000000000E+00 -0.45593999997E+02  0.45594000000E+02  0.51100000000E-03 0.  1.
    9900012    2    1    2    0    0 -0.35834129568E+00 -0.23982979815E+02 -0.38128754933E+02  0.46142315612E+02  0.99999804015E+01 0.  0.
         12    1    1    2    0    0  0.35834129568E+00  0.23982979815E+02  0.38128754933E+02  0.45045684388E+02  0.00000000000E+00 0. -1.
         11    1    3    3    0    0  0.10102936289E+01 -0.77580248773E+01 -0.69341405281E+01  0.10454183294E+02  0.51100000000E-03 0. -1.
        -11    1    3    3    0    0  0.23515160917E+01 -0.54952295916E+01 -0.10470838599E+02  0.12056767288E+02  0.51100000000E-03 0.  1.
        -12    1    3    3    0    0 -0.37201510163E+01 -0.10729725346E+02 -0.20723775805E+02  0.23631365030E+02  0.00000000000E+00 0.  1.
</event>
<event>
 7    1  0.2353206E-008  0.4614232E+02  0.7816164E-02  0.1320468E+00
        -11   -1    0    0    0    0  0.00000000000E+00  0.00000000000E+00  0.45593999997E+02  0.45594000000E+02  0.51100000000E-03 0. -1.
         11   -1    0    0    0    0 -0.00000000000E+00 -0.00000000000E+00 -0.45593999997E+02  0.45594000000E+02  0.51100000000E-03 0.  1.
    9900012    2    1    2    0    0  0.34289815091E+02  0.27992438660E+02 -0.83513700205E+01  0.46142318494E+02  0.10000006681E+02 0.  0.
         12    1    1    2    0    0 -0.34289815091E+02 -0.27992438660E+02  0.83513700205E+01  0.45045681506E+02  0.00000000000E+00 0. -1.
         11    1    3    3    0    0  0.15201988107E+02  0.10162141795E+02 -0.12814908155E+01  0.18330624300E+02  0.51100000000E-03 0. -1.
        -11    1    3    3    0    0  0.91939975334E+01  0.12725322630E+02 -0.31761959632E+01  0.16017229715E+02  0.51100000000E-03 0.  1.
        -12    1    3    3    0    0  0.98938294510E+01  0.51049742347E+01 -0.38936832418E+01  0.11794464478E+02  0.00000000000E+00 0.  1.
</event>
<event>
 7    1  0.2353206E-008  0.4614232E+02  0.7816164E-02  0.1320468E+00
        -11   -1    0    0    0    0  0.00000000000E+00  0.00000000000E+00  0.45593999997E+02  0.45594000000E+02  0.51100000000E-03 0.  1.
         11   -1    0    0    0    0 -0.00000000000E+00 -0.00000000000E+00 -0.45593999997E+02  0.45594000000E+02  0.51100000000E-03 0. -1.
    9900012    2    1    2    0    0  0.90034667627E+01 -0.40105142183E+02  0.18429015577E+02  0.46142318093E+02  0.10000003031E+02 0.  0.
         12    1    1    2    0    0 -0.90034667627E+01  0.40105142183E+02 -0.18429015577E+02  0.45045681907E+02  0.00000000000E+00 0. -1.
         11    1    3    3    0    0  0.95269195418E+00 -0.26101569199E+00 -0.20563634385E+00  0.10089785518E+01  0.51100000000E-03 0. -1.
        -11    1    3    3    0    0  0.56218291565E+01 -0.19962350673E+02  0.65878488066E+01  0.21760058815E+02  0.51100000000E-03 0.  1.
         12    1    3    3    0    0  0.24289456520E+01 -0.19881775818E+02  0.12046803114E+02  0.23373280727E+02  0.00000000000E+00 0. -1.
</event>
<event>
 7    1  0.2353206E-008  0.4614232E+02  0.7816164E-02  0.1320468E+00
        -11   -1    0    0    0    0  0.00000000000E+00  0.00000000000E+00  0.45593999997E+02  0.45594000000E+02  0.51100000000E-03 0. -1.
         11   -1    0    0    0    0 -0.00000000000E+00 -0.00000000000E+00 -0.45593999997E+02  0.45594000000E+02  0.51100000000E-03 0.  1.
    9900012    2    1    2    0    0  0.37521749718E+01  0.40785020644E+02  0.18751445621E+02  0.46142318311E+02  0.10000005012E+02 0.  0.
         12    1    1    2    0    0 -0.37521749718E+01 -0.40785020644E+02 -0.18751445621E+02  0.45045681689E+02  0.00000000000E+00 0. -1.
         11    1    3    3    0    0  0.18404844176E+01  0.40102631953E+01  0.17952657285E+00  0.44160869373E+01  0.51100000000E-03 0. -1.
        -11    1    3    3    0    0 -0.13273912495E+01  0.20834502089E+02  0.12680973665E+02  0.24426328790E+02  0.51100000000E-03 0.  1.
         12    1    3    3    0    0  0.32390818037E+01  0.15940255361E+02  0.58909453831E+01  0.17299902583E+02  0.00000000000E+00 0. -1.
</event>
<event>
 7    1  0.2353206E-008  0.4614232E+02  0.7816164E-02  0.1320468E+00
        -11   -1    0    0    0    0  0.00000000000E+00  0.00000000000E+00  0.45593999997E+02  0.45594000000E+02  0.51100000000E-03 0. -1.
         11   -1    0    0    0    0 -0.00000000000E+00 -0.00000000000E+00 -0.45593999997E+02  0.45594000000E+02  0.51100000000E-03 0.  1.
    9900012    2    1    2    0    0 -0.41413457056E+02 -0.13633901146E+01 -0.17668622344E+02  0.46142317926E+02  0.10000001505E+02 0.  0.
         12    1    1    2    0    0  0.41413457056E+02  0.13633901146E+01  0.17668622344E+02  0.45045682074E+02  0.00000000000E+00 0. -1.
         11    1    3    3    0    0 -0.96585136713E+01 -0.16394746311E+01 -0.19046452239E+01  0.99801020584E+01  0.51100000000E-03 0. -1.
        -11    1    3    3    0    0 -0.26227296297E+02 -0.21986876197E+01 -0.14207005548E+02  0.29908933535E+02  0.51100000000E-03 0.  1.
         12    1    3    3    0    0 -0.55276470881E+01  0.24747721362E+01 -0.15569715721E+01  0.62532823328E+01  0.00000000000E+00 0. -1.
</event>
<event>
 7    1  0.2353206E-008  0.4614232E+02  0.7816164E-02  0.1320468E+00
        -11   -1    0    0    0    0  0.00000000000E+00  0.00000000000E+00  0.45593999997E+02  0.45594000000E+02  0.51100000000E-03 0.  1.
         11   -1    0    0    0    0 -0.00000000000E+00 -0.00000000000E+00 -0.45593999997E+02  0.45594000000E+02  0.51100000000E-03 0. -1.
    9900012    2    1    2    0    0  0.27811929309E+02 -0.75935934707E+01  0.34611376514E+02  0.46142318099E+02  0.10000003080E+02 0.  0.
         12    1    1    2    0    0 -0.27811929309E+02  0.75935934707E+01 -0.34611376514E+02  0.45045681901E+02  0.00000000000E+00 0. -1.
         11    1    3    3    0    0  0.34908405554E+01 -0.10354978177E+00  0.21047997547E+01  0.40776062352E+01  0.51100000000E-03 0. -1.
        -11    1    3    3    0    0  0.16820878327E+02 -0.30169201708E+01  0.16100191001E+02  0.23478924710E+02  0.51100000000E-03 0.  1.
        -12    1    3    3    0    0  0.75002104267E+01 -0.44731235182E+01  0.16406385759E+02  0.18585787154E+02  0.00000000000E+00 0.  1.
</event>
<event>
 7    1  0.2353206E-008  0.4614232E+02  0.7816164E-02  0.1320468E+00
        -11   -1    0    0    0    0  0.00000000000E+00  0.00000000000E+00  0.45593999997E+02  0.45594000000E+02  0.51100000000E-03 0. -1.
         11   -1    0    0    0    0 -0.00000000000E+00 -0.00000000000E+00 -0.45593999997E+02  0.45594000000E+02  0.51100000000E-03 0.  1.
    9900012    2    1    2    0    0  0.13295104883E+02  0.33678880470E+02 -0.26797140352E+02  0.46142317248E+02  0.99999953202E+01 0.  0.
         12    1    1    2    0    0 -0.13295104883E+02 -0.33678880470E+02  0.26797140352E+02  0.45045682752E+02  0.00000000000E+00 0. -1.
         11    1    3    3    0    0  0.65177116512E+01  0.11413163078E+02 -0.74394262774E+01  0.15102513705E+02  0.51100000000E-03 0. -1.
        -11    1    3    3    0    0  0.39564854490E+01  0.16941114915E+02 -0.10478273831E+02  0.20308849657E+02  0.51100000000E-03 0.  1.
         12    1    3    3    0    0  0.28209077831E+01  0.53246024775E+01 -0.88794402434E+01  0.10730953886E+02  0.00000000000E+00 0. -1.
</event>
<event>
 7    1  0.2353206E-008  0.4614232E+02  0.7816164E-02  0.1320468E+00
        -11   -1    0    0    0    0  0.00000000000E+00  0.00000000000E+00  0.45593999997E+02  0.45594000000E+02  0.51100000000E-03 0.  1.
         11   -1    0    0    0    0 -0.00000000000E+00 -0.00000000000E+00 -0.45593999997E+02  0.45594000000E+02  0.51100000000E-03 0. -1.
    9900012    2    1    2    0    0 -0.28241291234E+01  0.41863810097E+02  0.16387781976E+02  0.46142315420E+02  0.99999786550E+01 0.  0.
         12    1    1    2    0    0  0.28241291234E+01 -0.41863810097E+02 -0.16387781976E+02  0.45045684580E+02  0.00000000000E+00 0. -1.
         11    1    3    3    0    0 -0.18944402395E+01  0.45401476126E+01  0.14933439799E+01  0.51411983690E+01  0.51100000000E-03 0. -1.
        -11    1    3    3    0    0 -0.10375563914E+01  0.20809055825E+01  0.30201730527E+01  0.38115793101E+01  0.51100000000E-03 0.  1.
         12    1    3    3    0    0  0.10786750753E+00  0.35242756902E+02  0.11874264943E+02  0.37189537741E+02  0.00000000000E+00 0. -1.
</event>
<event>
 7    1  0.2353206E-008  0.4614232E+02  0.7816164E-02  0.1320468E+00
        -11   -1    0    0    0    0  0.00000000000E+00  0.00000000000E+00  0.45593999997E+02  0.45594000000E+02  0.51100000000E-03 0.  1.
         11   -1    0    0    0    0 -0.00000000000E+00 -0.00000000000E+00 -0.45593999997E+02  0.45594000000E+02  0.51100000000E-03 0. -1.
    9900012    2    1    2    0    0  0.22977377543E+01 -0.14202355300E+02  0.42686380002E+02  0.46142317271E+02  0.99999955279E+01 0.  0.
         12    1    1    2    0    0 -0.22977377543E+01  0.14202355300E+02 -0.42686380002E+02  0.45045682729E+02  0.00000000000E+00 0. -1.
         11    1    3    3    0    0 -0.12561605885E+01 -0.24562780938E+01  0.37210954331E+01  0.46322557121E+01  0.51100000000E-03 0. -1.
        -11    1    3    3    0    0  0.45623640927E+00 -0.96983986977E+01  0.20603229042E+02  0.22776306465E+02  0.51100000000E-03 0.  1.
         12    1    3    3    0    0  0.30976619336E+01 -0.20476785080E+01  0.18362055528E+02  0.18733755094E+02  0.00000000000E+00 0. -1.
</event>
<event>
 7    1  0.2353206E-008  0.4614232E+02  0.7816164E-02  0.1320468E+00
        -11   -1    0    0    0    0  0.00000000000E+00  0.00000000000E+00  0.45593999997E+02  0.45594000000E+02  0.51100000000E-03 0. -1.
         11   -1    0    0    0    0 -0.00000000000E+00 -0.00000000000E+00 -0.45593999997E+02  0.45594000000E+02  0.51100000000E-03 0.  1.
    9900012    2    1    2    0    0  0.23148223691E+02 -0.27731552327E+02 -0.26911598923E+02  0.46142318618E+02  0.10000007817E+02 0.  0.
         12    1    1    2    0    0 -0.23148223691E+02  0.27731552327E+02  0.26911598923E+02  0.45045681382E+02  0.00000000000E+00 0. -1.
         11    1    3    3    0    0  0.19494948509E+01 -0.21523751197E+01  0.48768848711E-01  0.29044151719E+01  0.51100000000E-03 0. -1.
        -11    1    3    3    0    0  0.40869108486E+01 -0.74469903548E+01 -0.98109132557E+01  0.12977462186E+02  0.51100000000E-03 0.  1.
         12    1    3    3    0    0  0.17111817992E+02 -0.18132186853E+02 -0.17149454516E+02  0.30260441260E+02  0.00000000000E+00 0. -1.
</event>
<event>
 7    1  0.2353206E-008  0.4614232E+02  0.7816164E-02  0.1320468E+00
        -11   -1    0    0    0    0  0.00000000000E+00  0.00000000000E+00  0.45593999997E+02  0.45594000000E+02  0.51100000000E-03 0. -1.
         11   -1    0    0    0    0 -0.00000000000E+00 -0.00000000000E+00 -0.45593999997E+02  0.45594000000E+02  0.51100000000E-03 0.  1.
    9900012    2    1    2    0    0 -0.40117084651E+02  0.12214440664E+02  0.16448114999E+02  0.46142317314E+02  0.99999959252E+01 0.  0.
         12    1    1    2    0    0  0.40117084651E+02 -0.12214440664E+02 -0.16448114999E+02  0.45045682686E+02  0.00000000000E+00 0. -1.
         11    1    3    3    0    0 -0.22119291913E+01 -0.36387408480E+00  0.25229835661E+00  0.22558124520E+01  0.51100000000E-03 0. -1.
        -11    1    3    3    0    0 -0.95948381612E+01 -0.48159998084E+00  0.40873814520E+01  0.10440284732E+02  0.51100000000E-03 0.  1.
        -12    1    3    3    0    0 -0.28310317298E+02  0.13059914729E+02  0.12108435191E+02  0.33446220131E+02  0.00000000000E+00 0.  1.
</event>
<event>
 7    1  0.2353206E-008  0.4614232E+02  0.7816164E-02  0.1320468E+00
        -11   -1    0    0    0    0  0.00000000000E+00  0.00000000000E+00  0.45593999997E+02  0.45594000000E+02  0.51100000000E-03 0. -1.
         11   -1    0    0    0    0 -0.00000000000E+00 -0.00000000000E+00 -0.45593999997E+02  0.45594000000E+02  0.51100000000E-03 0.  1.
    9900012    2    1    2    0    0  0.28369488642E+01 -0.41826718858E+02 -0.16480013396E+02  0.46142317290E+02  0.99999957031E+01 0.  0.
         12    1    1    2    0    0 -0.28369488642E+01  0.41826718858E+02  0.16480013396E+02  0.45045682710E+02  0.00000000000E+00 0. -1.
         11    1    3    3    0    0 -0.76829856940E+00 -0.12477236171E+02 -0.50752819389E+01  0.13491856514E+02  0.51100000000E-03 0. -1.
        -11    1    3    3    0    0  0.13243860264E+01 -0.33251317634E+01 -0.42658813290E+01  0.55685045897E+01  0.51100000000E-03 0.  1.
         12    1    3    3    0    0  0.22808614072E+01 -0.26024350923E+02 -0.71388501282E+01  0.27081956186E+02  0.00000000000E+00 0. -1.
</event>
<event>
 7    1  0.2353206E-008  0.4614232E+02  0.7816164E-02  0.1320468E+00
        -11   -1    0    0    0    0  0.00000000000E+00  0.00000000000E+00  0.45593999997E+02  0.45594000000E+02  0.51100000000E-03 0.  1.
         11   -1    0    0    0    0 -0.00000000000E+00 -0.00000000000E+00 -0.45593999997E+02  0.45594000000E+02  0.51100000000E-03 0. -1.
    9900012    2    1    2    0    0 -0.21210038999E+02  0.32504952620E+02  0.22862103486E+02  0.46142317910E+02  0.10000001355E+02 0.  0.
         12    1    1    2    0    0  0.21210038999E+02 -0.32504952620E+02 -0.22862103486E+02  0.45045682090E+02  0.00000000000E+00 0. -1.
         11    1    3    3    0    0 -0.20352096064E+01  0.57491575031E+01  0.14936175891E+01  0.62789954532E+01  0.51100000000E-03 0. -1.
        -11    1    3    3    0    0 -0.13717410335E+02  0.23460239703E+02  0.16057574731E+02  0.31565739335E+02  0.51100000000E-03 0.  1.
        -12    1    3    3    0    0 -0.54574190577E+01  0.32955554138E+01  0.53109111656E+01  0.82975831219E+01  0.00000000000E+00 0.  1.
</event>
<event>
 7    1  0.2353206E-008  0.4614232E+02  0.7816164E-02  0.1320468E+00
        -11   -1    0    0    0    0  0.00000000000E+00  0.00000000000E+00  0.45593999997E+02  0.45594000000E+02  0.51100000000E-03 0.  1.
         11   -1    0    0    0    0 -0.00000000000E+00 -0.00000000000E+00 -0.45593999997E+02  0.45594000000E+02  0.51100000000E-03 0. -1.
    9900012    2    1    2    0    0 -0.86298741073E+01  0.40409977368E+02  0.17935230569E+02  0.46142317703E+02  0.99999994694E+01 0.  0.
         12    1    1    2    0    0  0.86298741073E+01 -0.40409977368E+02 -0.17935230569E+02  0.45045682297E+02  0.00000000000E+00 0. -1.
         11    1    3    3    0    0 -0.29842323186E+01  0.43752945693E+01  0.41475589240E+01  0.67268930710E+01  0.51100000000E-03 0. -1.
        -11    1    3    3    0    0 -0.35528300610E+01  0.93657022291E+01  0.54031468067E+01  0.11381255439E+02  0.51100000000E-03 0.  1.
         12    1    3    3    0    0 -0.20928117276E+01  0.26668980570E+02  0.83845248387E+01  0.28034169193E+02  0.00000000000E+00 0. -1.
</event>
<event>
 7    1  0.2353206E-008  0.4614232E+02  0.7816164E-02  0.1320468E+00
        -11   -1    0    0    0    0  0.00000000000E+00  0.00000000000E+00  0.45593999997E+02  0.45594000000E+02  0.51100000000E-03 0. -1.
         11   -1    0    0    0    0 -0.00000000000E+00 -0.00000000000E+00 -0.45593999997E+02  0.45594000000E+02  0.51100000000E-03 0.  1.
    9900012    2    1    2    0    0 -0.34409090510E+02 -0.17546328703E+02 -0.23178747486E+02  0.46142317680E+02  0.99999992582E+01 0.  0.
         12    1    1    2    0    0  0.34409090510E+02  0.17546328703E+02  0.23178747486E+02  0.45045682320E+02  0.00000000000E+00 0. -1.
         11    1    3    3    0    0 -0.22866493088E+01 -0.32088945507E+01 -0.63886304218E+00  0.39917308961E+01  0.51100000000E-03 0. -1.
        -11    1    3    3    0    0 -0.13380505317E+02 -0.64513307064E+01 -0.12782330396E+02  0.19597080421E+02  0.51100000000E-03 0.  1.
        -12    1    3    3    0    0 -0.18741935884E+02 -0.78861034460E+01 -0.97575540478E+01  0.22553506362E+02  0.00000000000E+00 0.  1.
</event>
<event>
 7    1  0.2353206E-008  0.4614232E+02  0.7816164E-02  0.1320468E+00
        -11   -1    0    0    0    0  0.00000000000E+00  0.00000000000E+00  0.45593999997E+02  0.45594000000E+02  0.51100000000E-03 0.  1.
         11   -1    0    0    0    0 -0.00000000000E+00 -0.00000000000E+00 -0.45593999997E+02  0.45594000000E+02  0.51100000000E-03 0. -1.
    9900012    2    1    2    0    0 -0.19279234581E+02 -0.22730240926E+02  0.33775151275E+02  0.46142316719E+02  0.99999904985E+01 0.  0.
         12    1    1    2    0    0  0.19279234581E+02  0.22730240926E+02 -0.33775151275E+02  0.45045683281E+02  0.00000000000E+00 0. -1.
         11    1    3    3    0    0 -0.44201818127E+01 -0.69911586435E+01  0.66919751360E+01  0.10639400261E+02  0.51100000000E-03 0. -1.
        -11    1    3    3    0    0 -0.99387162017E+01 -0.13568991011E+02  0.16145070825E+02  0.23314349852E+02  0.51100000000E-03 0.  1.
         12    1    3    3    0    0 -0.49203365663E+01 -0.21700912713E+01  0.10938105314E+02  0.12188566606E+02  0.00000000000E+00 0. -1.
</event>
<event>
 7    1  0.2353206E-008  0.4614232E+02  0.7816164E-02  0.1320468E+00
        -11   -1    0    0    0    0  0.00000000000E+00  0.00000000000E+00  0.45593999997E+02  0.45594000000E+02  0.51100000000E-03 0.  1.
         11   -1    0    0    0    0 -0.00000000000E+00 -0.00000000000E+00 -0.45593999997E+02  0.45594000000E+02  0.51100000000E-03 0. -1.
    9900012    2    1    2    0    0 -0.35865712122E+02  0.22649389583E+01  0.27159421989E+02  0.46142318107E+02  0.10000003150E+02 0.  0.
         12    1    1    2    0    0  0.35865712122E+02 -0.22649389583E+01 -0.27159421989E+02  0.45045681893E+02  0.00000000000E+00 0. -1.
         11    1    3    3    0    0 -0.36292638311E+01 -0.16812275320E+01  0.42239296009E+01  0.58171869065E+01  0.51100000000E-03 0. -1.
        -11    1    3    3    0    0 -0.21051757465E+02  0.32678210342E+01  0.18697522566E+02  0.28345237643E+02  0.51100000000E-03 0.  1.
        -12    1    3    3    0    0 -0.11184690826E+02  0.67834545613E+00  0.42379698215E+01  0.11979893557E+02  0.00000000000E+00 0.  1.
</event>
<event>
 7    1  0.2353206E-008  0.4614232E+02  0.7816164E-02  0.1320468E+00
        -11   -1    0    0    0    0  0.00000000000E+00  0.00000000000E+00  0.45593999997E+02  0.45594000000E+02  0.51100000000E-03 0. -1.
         11   -1    0    0    0    0 -0.00000000000E+00 -0.00000000000E+00 -0.45593999997E+02  0.45594000000E+02  0.51100000000E-03 0.  1.
    9900012    2    1    2    0    0  0.43797840076E+02  0.48526402972E+01 -0.93442362525E+01  0.46142315808E+02  0.99999821932E+01 0.  0.
         12    1    1    2    0    0 -0.43797840076E+02 -0.48526402972E+01  0.93442362525E+01  0.45045684192E+02  0.00000000000E+00 0. -1.
         11    1    3    3    0    0  0.17070630595E+01 -0.89116584458E+00 -0.23046670171E+00  0.19394215667E+01  0.51100000000E-03 0. -1.
        -11    1    3    3    0    0  0.40481518332E+02  0.59771167820E+01 -0.10291972364E+02  0.42194833178E+02  0.51100000000E-03 0.  1.
        -12    1    3    3    0    0  0.16092586839E+01 -0.23331064018E+00  0.11782028132E+01  0.20080610637E+01  0.00000000000E+00 0.  1.
</event>
<event>
 7    1  0.2353206E-008  0.4614232E+02  0.7816164E-02  0.1320468E+00
        -11   -1    0    0    0    0  0.00000000000E+00  0.00000000000E+00  0.45593999997E+02  0.45594000000E+02  0.51100000000E-03 0.  1.
         11   -1    0    0    0    0 -0.00000000000E+00 -0.00000000000E+00 -0.45593999997E+02  0.45594000000E+02  0.51100000000E-03 0. -1.
    9900012    2    1    2    0    0  0.21409390235E+02  0.39296365201E+02  0.51523974709E+01  0.46142317544E+02  0.99999980231E+01 0.  0.
         12    1    1    2    0    0 -0.21409390235E+02 -0.39296365201E+02 -0.51523974709E+01  0.45045682456E+02  0.00000000000E+00 0. -1.
         11    1    3    3    0    0  0.70138266396E+01  0.86033836734E+01  0.45257469100E+01  0.11987258240E+02  0.51100000000E-03 0. -1.
        -11    1    3    3    0    0  0.99357115138E+00  0.66496821256E+00  0.43264905169E+00  0.12714369114E+01  0.51100000000E-03 0.  1.
        -12    1    3    3    0    0  0.13401992444E+02  0.30028013315E+02  0.19400150923E+00  0.32883622393E+02  0.00000000000E+00 0.  1.
</event>
<event>
 7    1  0.2353206E-008  0.4614232E+02  0.7816164E-02  0.1320468E+00
        -11   -1    0    0    0    0  0.00000000000E+00  0.00000000000E+00  0.45593999997E+02  0.45594000000E+02  0.51100000000E-03 0.  1.
         11   -1    0    0    0    0 -0.00000000000E+00 -0.00000000000E+00 -0.45593999997E+02  0.45594000000E+02  0.51100000000E-03 0. -1.
    9900012    2    1    2    0    0 -0.30663353948E+02  0.28288799215E+01  0.32876581452E+02  0.46142318244E+02  0.10000004400E+02 0.  0.
         12    1    1    2    0    0  0.30663353948E+02 -0.28288799215E+01 -0.32876581452E+02  0.45045681756E+02  0.00000000000E+00 0. -1.
         11    1    3    3    0    0 -0.53137928898E+01  0.18534866064E+01  0.30856430685E+01  0.64181773801E+01  0.51100000000E-03 0. -1.
        -11    1    3    3    0    0 -0.59959774614E+01 -0.14769896000E+01  0.38899739132E+01  0.72982971509E+01  0.51100000000E-03 0.  1.
         12    1    3    3    0    0 -0.19353583597E+02  0.24523829151E+01  0.25900964470E+02  0.32425843713E+02  0.00000000000E+00 0. -1.
</event>
<event>
 7    1  0.2353206E-008  0.4614232E+02  0.7816164E-02  0.1320468E+00
        -11   -1    0    0    0    0  0.00000000000E+00  0.00000000000E+00  0.45593999997E+02  0.45594000000E+02  0.51100000000E-03 0.  1.
         11   -1    0    0    0    0 -0.00000000000E+00 -0.00000000000E+00 -0.45593999997E+02  0.45594000000E+02  0.51100000000E-03 0. -1.
    9900012    2    1    2    0    0  0.18862219599E+02 -0.40831023199E+02  0.24814750259E+01  0.46142317610E+02  0.99999986232E+01 0.  0.
         12    1    1    2    0    0 -0.18862219599E+02  0.40831023199E+02 -0.24814750259E+01  0.45045682390E+02  0.00000000000E+00 0. -1.
         11    1    3    3    0    0  0.51695321741E+01 -0.19881543405E+02 -0.96456862378E+00  0.20565267417E+02  0.51100000000E-03 0. -1.
        -11    1    3    3    0    0  0.63218623083E+01 -0.12311232741E+02  0.32678898957E+01  0.14220108976E+02  0.51100000000E-03 0.  1.
         12    1    3    3    0    0  0.73708251166E+01 -0.86382470528E+01  0.17815375397E+00  0.11356941217E+02  0.00000000000E+00 0. -1.
</event>
<event>
 7    1  0.2353206E-008  0.4614232E+02  0.7816164E-02  0.1320468E+00
        -11   -1    0    0    0    0  0.00000000000E+00  0.00000000000E+00  0.45593999997E+02  0.45594000000E+02  0.51100000000E-03 0.  1.
         11   -1    0    0    0    0 -0.00000000000E+00 -0.00000000000E+00 -0.45593999997E+02  0.45594000000E+02  0.51100000000E-03 0. -1.
    9900012    2    1    2    0    0  0.50108421542E+01 -0.17923626510E+02  0.41021320055E+02  0.46142316240E+02  0.99999861281E+01 0.  0.
         12    1    1    2    0    0 -0.50108421542E+01  0.17923626510E+02 -0.41021320055E+02  0.45045683760E+02  0.00000000000E+00 0. -1.
         11    1    3    3    0    0  0.36949997432E+01 -0.14303475507E+01  0.97846045799E+01  0.10556391631E+02  0.51100000000E-03 0. -1.
        -11    1    3    3    0    0  0.20288036637E+01 -0.43491654898E+01  0.10490604241E+02  0.11536206585E+02  0.51100000000E-03 0.  1.
        -12    1    3    3    0    0 -0.71296125275E+00 -0.12144113470E+02  0.20746111234E+02  0.24049718024E+02  0.00000000000E+00 0.  1.
</event>
<event>
 7    1  0.2353206E-008  0.4614232E+02  0.7816164E-02  0.1320468E+00
        -11   -1    0    0    0    0  0.00000000000E+00  0.00000000000E+00  0.45593999997E+02  0.45594000000E+02  0.51100000000E-03 0. -1.
         11   -1    0    0    0    0 -0.00000000000E+00 -0.00000000000E+00 -0.45593999997E+02  0.45594000000E+02  0.51100000000E-03 0.  1.
    9900012    2    1    2    0    0  0.37142688169E+02 -0.15850351883E+02  0.19957467714E+02  0.46142318111E+02  0.10000003192E+02 0.  0.
         12    1    1    2    0    0 -0.37142688169E+02  0.15850351883E+02 -0.19957467714E+02  0.45045681889E+02  0.00000000000E+00 0. -1.
         11    1    3    3    0    0  0.11379192618E+02 -0.19279011265E+01  0.28818131791E+01  0.11895699848E+02  0.51100000000E-03 0. -1.
        -11    1    3    3    0    0  0.72890307981E+01 -0.16641442613E+01  0.35653748162E+01  0.82831904445E+01  0.51100000000E-03 0.  1.
        -12    1    3    3    0    0  0.18474464753E+02 -0.12258306496E+02  0.13510279719E+02  0.25963427819E+02  0.00000000000E+00 0.  1.
</event>
<event>
 7    1  0.2353206E-008  0.4614232E+02  0.7816164E-02  0.1320468E+00
        -11   -1    0    0    0    0  0.00000000000E+00  0.00000000000E+00  0.45593999997E+02  0.45594000000E+02  0.51100000000E-03 0.  1.
         11   -1    0    0    0    0 -0.00000000000E+00 -0.00000000000E+00 -0.45593999997E+02  0.45594000000E+02  0.51100000000E-03 0. -1.
    9900012    2    1    2    0    0 -0.22639111607E+02 -0.14235226632E+02  0.36248344378E+02  0.46142317391E+02  0.99999966217E+01 0.  0.
         12    1    1    2    0    0  0.22639111607E+02  0.14235226632E+02 -0.36248344378E+02  0.45045682609E+02  0.00000000000E+00 0. -1.
         11    1    3    3    0    0 -0.14902682576E+00 -0.14449801597E+01  0.18760407130E+01  0.23727000810E+01  0.51100000000E-03 0. -1.
        -11    1    3    3    0    0 -0.98503158086E+01 -0.76175736197E+01  0.10597030171E+02  0.16350938753E+02  0.51100000000E-03 0.  1.
         12    1    3    3    0    0 -0.12639768972E+02 -0.51726728528E+01  0.23775273494E+02  0.27418678557E+02  0.00000000000E+00 0. -1.
</event>
<event>
 7    1  0.2353206E-008  0.4614232E+02  0.7816164E-02  0.1320468E+00
        -11   -1    0    0    0    0  0.00000000000E+00  0.00000000000E+00  0.45593999997E+02  0.45594000000E+02  0.51100000000E-03 0.  1.
         11   -1    0    0    0    0 -0.00000000000E+00 -0.00000000000E+00 -0.45593999997E+02  0.45594000000E+02  0.51100000000E-03 0. -1.
    9900012    2    1    2    0    0 -0.54166944293E+01  0.37428526221E+02  0.24471991111E+02  0.46142317604E+02  0.99999985646E+01 0.  0.
         12    1    1    2    0    0  0.54166944293E+01 -0.37428526221E+02 -0.24471991111E+02  0.45045682396E+02  0.00000000000E+00 0. -1.
         11    1    3    3    0    0 -0.15900077378E+01  0.99315434207E+01  0.61286304795E+01  0.11778106433E+02  0.51100000000E-03 0. -1.
        -11    1    3    3    0    0 -0.66016613671E+01  0.20242138940E+02  0.13447826955E+02  0.25182735589E+02  0.51100000000E-03 0.  1.
         12    1    3    3    0    0  0.27749746755E+01  0.72548438597E+01  0.48955336768E+01  0.91814755818E+01  0.00000000000E+00 0. -1.
</event>
<event>
 7    1  0.2353206E-008  0.4614232E+02  0.7816164E-02  0.1320468E+00
        -11   -1    0    0    0    0  0.00000000000E+00  0.00000000000E+00  0.45593999997E+02  0.45594000000E+02  0.51100000000E-03 0. -1.
         11   -1    0    0    0    0 -0.00000000000E+00 -0.00000000000E+00 -0.45593999997E+02  0.45594000000E+02  0.51100000000E-03 0.  1.
    9900012    2    1    2    0    0  0.44056684720E+02  0.30928184750E+01  0.88632072579E+01  0.46142318325E+02  0.10000005141E+02 0.  0.
         12    1    1    2    0    0 -0.44056684720E+02 -0.30928184750E+01 -0.88632072579E+01  0.45045681675E+02  0.00000000000E+00 0. -1.
         11    1    3    3    0    0  0.17596272104E+02  0.49716364681E+00  0.64874498129E+01  0.18760676133E+02  0.51100000000E-03 0. -1.
        -11    1    3    3    0    0  0.23225349861E+02  0.42775759149E+01  0.17351985421E+01  0.23679642018E+02  0.51100000000E-03 0.  1.
         12    1    3    3    0    0  0.32350627562E+01 -0.16819210868E+01  0.64055890290E+00  0.37020001738E+01  0.00000000000E+00 0. -1.
</event>
<event>
 7    1  0.2353206E-008  0.4614232E+02  0.7816164E-02  0.1320468E+00
        -11   -1    0    0    0    0  0.00000000000E+00  0.00000000000E+00  0.45593999997E+02  0.45594000000E+02  0.51100000000E-03 0. -1.
         11   -1    0    0    0    0 -0.00000000000E+00 -0.00000000000E+00 -0.45593999997E+02  0.45594000000E+02  0.51100000000E-03 0.  1.
    9900012    2    1    2    0    0  0.60182251435E+01 -0.36528210226E+02  0.25662896157E+02  0.46142318571E+02  0.10000007385E+02 0.  0.
         12    1    1    2    0    0 -0.60182251435E+01  0.36528210226E+02 -0.25662896157E+02  0.45045681429E+02  0.00000000000E+00 0. -1.
         11    1    3    3    0    0 -0.13799601064E+01 -0.10193281379E+02  0.57973369866E+01  0.11807471853E+02  0.51100000000E-03 0. -1.
        -11    1    3    3    0    0 -0.19993927750E-01 -0.95931357544E+01  0.82253618629E+01  0.12636662194E+02  0.51100000000E-03 0.  1.
        -12    1    3    3    0    0  0.74181791777E+01 -0.16741793093E+02  0.11640197308E+02  0.21698184524E+02  0.00000000000E+00 0.  1.
</event>
<event>
 7    1  0.2353206E-008  0.4614232E+02  0.7816164E-02  0.1320468E+00
        -11   -1    0    0    0    0  0.00000000000E+00  0.00000000000E+00  0.45593999997E+02  0.45594000000E+02  0.51100000000E-03 0.  1.
         11   -1    0    0    0    0 -0.00000000000E+00 -0.00000000000E+00 -0.45593999997E+02  0.45594000000E+02  0.51100000000E-03 0. -1.
    9900012    2    1    2    0    0 -0.29405590630E+02 -0.30851958914E+02  0.14580168148E+02  0.46142318383E+02  0.10000005672E+02 0.  0.
         12    1    1    2    0    0  0.29405590630E+02  0.30851958914E+02 -0.14580168148E+02  0.45045681617E+02  0.00000000000E+00 0. -1.
         11    1    3    3    0    0 -0.93945151057E+01 -0.11041601569E+02  0.39160175061E+01  0.15016959500E+02  0.51100000000E-03 0. -1.
        -11    1    3    3    0    0 -0.20378414852E+02 -0.19997730747E+02  0.10996282519E+02  0.30595869924E+02  0.51100000000E-03 0.  1.
         12    1    3    3    0    0  0.36733932773E+00  0.18737340142E+00 -0.33213187760E+00  0.52948895869E+00  0.00000000000E+00 0. -1.
</event>
<event>
 7    1  0.2353206E-008  0.4614232E+02  0.7816164E-02  0.1320468E+00
        -11   -1    0    0    0    0  0.00000000000E+00  0.00000000000E+00  0.45593999997E+02  0.45594000000E+02  0.51100000000E-03 0. -1.
         11   -1    0    0    0    0 -0.00000000000E+00 -0.00000000000E+00 -0.45593999997E+02  0.45594000000E+02  0.51100000000E-03 0.  1.
    9900012    2    1    2    0    0  0.21427514571E+02  0.26291197811E+02 -0.29643683534E+02  0.46142318337E+02  0.10000005251E+02 0.  0.
         12    1    1    2    0    0 -0.21427514571E+02 -0.26291197811E+02  0.29643683534E+02  0.45045681663E+02  0.00000000000E+00 0. -1.
         11    1    3    3    0    0  0.58477866288E+01  0.65064989501E+01 -0.75388429987E+01  0.11548389111E+02  0.51100000000E-03 0. -1.
        -11    1    3    3    0    0  0.79872744439E+01  0.16356396665E+02 -0.13916121393E+02  0.22912588239E+02  0.51100000000E-03 0.  1.
         12    1    3    3    0    0  0.75924534980E+01  0.34283021958E+01 -0.81887191423E+01  0.11681340987E+02  0.00000000000E+00 0. -1.
</event>
<event>
 7    1  0.2353206E-008  0.4614232E+02  0.7816164E-02  0.1320468E+00
        -11   -1    0    0    0    0  0.00000000000E+00  0.00000000000E+00  0.45593999997E+02  0.45594000000E+02  0.51100000000E-03 0.  1.
         11   -1    0    0    0    0 -0.00000000000E+00 -0.00000000000E+00 -0.45593999997E+02  0.45594000000E+02  0.51100000000E-03 0. -1.
    9900012    2    1    2    0    0 -0.35629876960E+02  0.26933772792E+02 -0.58478149339E+01  0.46142321090E+02  0.10000030353E+02 0.  0.
         12    1    1    2    0    0  0.35629876960E+02 -0.26933772792E+02  0.58478149339E+01  0.45045678910E+02  0.00000000000E+00 0. -1.
         11    1    3    3    0    0 -0.19994007843E+02  0.14769219227E+02 -0.50174031002E+01  0.25358716851E+02  0.51100000000E-03 0. -1.
        -11    1    3    3    0    0 -0.15874747282E+02  0.11821197074E+02  0.67829871218E-01  0.19792748740E+02  0.51100000000E-03 0.  1.
         12    1    3    3    0    0  0.23887816569E+00  0.34335649072E+00 -0.89824170493E+00  0.99085549817E+00  0.00000000000E+00 0. -1.
</event>
<event>
 7    1  0.2353206E-008  0.4614232E+02  0.7816164E-02  0.1320468E+00
        -11   -1    0    0    0    0  0.00000000000E+00  0.00000000000E+00  0.45593999997E+02  0.45594000000E+02  0.51100000000E-03 0.  1.
         11   -1    0    0    0    0 -0.00000000000E+00 -0.00000000000E+00 -0.45593999997E+02  0.45594000000E+02  0.51100000000E-03 0. -1.
    9900012    2    1    2    0    0  0.28288125939E+02 -0.17534736261E+02  0.30355039600E+02  0.46142317921E+02  0.10000001457E+02 0.  0.
         12    1    1    2    0    0 -0.28288125939E+02  0.17534736261E+02 -0.30355039600E+02  0.45045682079E+02  0.00000000000E+00 0. -1.
         11    1    3    3    0    0  0.24606888913E+01 -0.18704159419E+01 -0.49017613563E-01  0.30912535650E+01  0.51100000000E-03 0. -1.
        -11    1    3    3    0    0  0.34077987971E+00 -0.16498664950E+00 -0.94322099028E-01  0.39019026182E+00  0.51100000000E-03 0.  1.
        -12    1    3    3    0    0  0.25486657168E+02 -0.15499333670E+02  0.30498379312E+02  0.42660874094E+02  0.00000000000E+00 0.  1.
</event>
<event>
 7    1  0.2353206E-008  0.4614232E+02  0.7816164E-02  0.1320468E+00
        -11   -1    0    0    0    0  0.00000000000E+00  0.00000000000E+00  0.45593999997E+02  0.45594000000E+02  0.51100000000E-03 0. -1.
         11   -1    0    0    0    0 -0.00000000000E+00 -0.00000000000E+00 -0.45593999997E+02  0.45594000000E+02  0.51100000000E-03 0.  1.
    9900012    2    1    2    0    0  0.44695342182E+01  0.79176761626E+01 -0.44118557738E+02  0.46142317978E+02  0.10000001974E+02 0.  0.
         12    1    1    2    0    0 -0.44695342182E+01 -0.79176761626E+01  0.44118557738E+02  0.45045682022E+02  0.00000000000E+00 0. -1.
         11    1    3    3    0    0 -0.54167641375E-01  0.34341703333E+01 -0.11876163065E+02  0.12362835816E+02  0.51100000000E-03 0. -1.
        -11    1    3    3    0    0 -0.67158627634E+00 -0.40914388362E+00 -0.16226845041E+02  0.16245889545E+02  0.51100000000E-03 0.  1.
         12    1    3    3    0    0  0.51952881359E+01  0.48926497129E+01 -0.16015549632E+02  0.17533592616E+02  0.00000000000E+00 0. -1.
</event>
<event>
 7    1  0.2353206E-008  0.4614232E+02  0.7816164E-02  0.1320468E+00
        -11   -1    0    0    0    0  0.00000000000E+00  0.00000000000E+00  0.45593999997E+02  0.45594000000E+02  0.51100000000E-03 0.  1.
         11   -1    0    0    0    0 -0.00000000000E+00 -0.00000000000E+00 -0.45593999997E+02  0.45594000000E+02  0.51100000000E-03 0. -1.
    9900012    2    1    2    0    0 -0.27381495281E+02  0.32467842429E+02  0.15006878026E+02  0.46142318033E+02  0.10000002476E+02 0.  0.
         12    1    1    2    0    0  0.27381495281E+02 -0.32467842429E+02 -0.15006878026E+02  0.45045681967E+02  0.00000000000E+00 0. -1.
         11    1    3    3    0    0 -0.47097211011E+01  0.71082422808E+01  0.46916452684E+00  0.85398300210E+01  0.51100000000E-03 0. -1.
        -11    1    3    3    0    0 -0.18994201542E+02  0.20388208045E+02  0.89471354200E+01  0.29266191279E+02  0.51100000000E-03 0.  1.
        -12    1    3    3    0    0 -0.36775726382E+01  0.49713921030E+01  0.55905780794E+01  0.83362967325E+01  0.00000000000E+00 0.  1.
</event>
<event>
 7    1  0.2353206E-008  0.4614232E+02  0.7816164E-02  0.1320468E+00
        -11   -1    0    0    0    0  0.00000000000E+00  0.00000000000E+00  0.45593999997E+02  0.45594000000E+02  0.51100000000E-03 0.  1.
         11   -1    0    0    0    0 -0.00000000000E+00 -0.00000000000E+00 -0.45593999997E+02  0.45594000000E+02  0.51100000000E-03 0. -1.
    9900012    2    1    2    0    0  0.26814027135E+02  0.31167091878E+02  0.18404724140E+02  0.46142317210E+02  0.99999949780E+01 0.  0.
         12    1    1    2    0    0 -0.26814027135E+02 -0.31167091878E+02 -0.18404724140E+02  0.45045682790E+02  0.00000000000E+00 0. -1.
         11    1    3    3    0    0  0.73091685712E+00 -0.63457157906E+00  0.55327928886E+00  0.11149164873E+01  0.51100000000E-03 0. -1.
        -11    1    3    3    0    0  0.15264881774E+02  0.17766235564E+02  0.12305341234E+02  0.26458971349E+02  0.51100000000E-03 0.  1.
        -12    1    3    3    0    0  0.10818228503E+02  0.14035427893E+02  0.55461036169E+01  0.18568429374E+02  0.00000000000E+00 0.  1.
</event>
<event>
 7    1  0.2353206E-008  0.4614232E+02  0.7816164E-02  0.1320468E+00
        -11   -1    0    0    0    0  0.00000000000E+00  0.00000000000E+00  0.45593999997E+02  0.45594000000E+02  0.51100000000E-03 0.  1.
         11   -1    0    0    0    0 -0.00000000000E+00 -0.00000000000E+00 -0.45593999997E+02  0.45594000000E+02  0.51100000000E-03 0. -1.
    9900012    2    1    2    0    0 -0.12550710565E+02  0.26925243690E+01  0.43178044024E+02  0.46142317533E+02  0.99999979204E+01 0.  0.
         12    1    1    2    0    0  0.12550710565E+02 -0.26925243690E+01 -0.43178044024E+02  0.45045682467E+02  0.00000000000E+00 0. -1.
         11    1    3    3    0    0 -0.16641571026E+01  0.17532056213E+01  0.59811808380E+01  0.64511761169E+01  0.51100000000E-03 0. -1.
        -11    1    3    3    0    0 -0.11330387566E+02 -0.31156174129E+00  0.36442371697E+02  0.38164397130E+02  0.51100000000E-03 0.  1.
        -12    1    3    3    0    0  0.44383410347E+00  0.12508804889E+01  0.75449148910E+00  0.15267442864E+01  0.00000000000E+00 0.  1.
</event>
<event>
 7    1  0.2353206E-008  0.4614232E+02  0.7816164E-02  0.1320468E+00
        -11   -1    0    0    0    0  0.00000000000E+00  0.00000000000E+00  0.45593999997E+02  0.45594000000E+02  0.51100000000E-03 0.  1.
         11   -1    0    0    0    0 -0.00000000000E+00 -0.00000000000E+00 -0.45593999997E+02  0.45594000000E+02  0.51100000000E-03 0. -1.
    9900012    2    1    2    0    0 -0.41688242000E+01  0.30895174513E+02  0.32514958263E+02  0.46142318584E+02  0.10000007503E+02 0.  0.
         12    1    1    2    0    0  0.41688242000E+01 -0.30895174513E+02 -0.32514958263E+02  0.45045681416E+02  0.00000000000E+00 0. -1.
         11    1    3    3    0    0  0.12235515585E+01  0.15567671650E+01  0.61828211558E+00  0.20743373539E+01  0.51100000000E-03 0. -1.
        -11    1    3    3    0    0 -0.14800243700E+01  0.13230501017E+02  0.18291579730E+02  0.22623406432E+02  0.51100000000E-03 0.  1.
        -12    1    3    3    0    0 -0.39123513884E+01  0.16107906330E+02  0.13605096418E+02  0.21444574798E+02  0.00000000000E+00 0.  1.
</event>
<event>
 7    1  0.2353206E-008  0.4614232E+02  0.7816164E-02  0.1320468E+00
        -11   -1    0    0    0    0  0.00000000000E+00  0.00000000000E+00  0.45593999997E+02  0.45594000000E+02  0.51100000000E-03 0. -1.
         11   -1    0    0    0    0 -0.00000000000E+00 -0.00000000000E+00 -0.45593999997E+02  0.45594000000E+02  0.51100000000E-03 0.  1.
    9900012    2    1    2    0    0  0.37555076136E+02 -0.18304503937E+02 -0.16842651365E+02  0.46142317488E+02  0.99999975073E+01 0.  0.
         12    1    1    2    0    0 -0.37555076136E+02  0.18304503937E+02  0.16842651365E+02  0.45045682512E+02  0.00000000000E+00 0. -1.
         11    1    3    3    0    0  0.58166909185E+01 -0.36689332042E+01 -0.41961936102E+01  0.80562401388E+01  0.51100000000E-03 0.  1.
        -11    1    3    3    0    0  0.24183905907E+02 -0.11474957983E+02 -0.13263230127E+02  0.29873888921E+02  0.51100000000E-03 0. -1.
         12    1    3    3    0    0  0.75544793107E+01 -0.31606127503E+01  0.61677237179E+00  0.82121884276E+01  0.00000000000E+00 0. -1.
</event>
<event>
 7    1  0.2353206E-008  0.4614232E+02  0.7816164E-02  0.1320468E+00
        -11   -1    0    0    0    0  0.00000000000E+00  0.00000000000E+00  0.45593999997E+02  0.45594000000E+02  0.51100000000E-03 0.  1.
         11   -1    0    0    0    0 -0.00000000000E+00 -0.00000000000E+00 -0.45593999997E+02  0.45594000000E+02  0.51100000000E-03 0. -1.
    9900012    2    1    2    0    0  0.42938595738E+02  0.48211969690E+01 -0.12733680475E+02  0.46142316937E+02  0.99999924875E+01 0.  0.
         12    1    1    2    0    0 -0.42938595738E+02 -0.48211969690E+01  0.12733680475E+02  0.45045683063E+02  0.00000000000E+00 0. -1.
         11    1    3    3    0    0  0.17345567082E+02  0.31043522396E+01 -0.71622401168E+01  0.19021129935E+02  0.51100000000E-03 0. -1.
        -11    1    3    3    0    0  0.16791950979E+02 -0.14528057093E+00 -0.66489175500E+01  0.18060975305E+02  0.51100000000E-03 0.  1.
         12    1    3    3    0    0  0.88010776771E+01  0.18621253004E+01  0.10774771923E+01  0.90602116980E+01  0.00000000000E+00 0. -1.
</event>
<event>
 7    1  0.2353206E-008  0.4614232E+02  0.7816164E-02  0.1320468E+00
        -11   -1    0    0    0    0  0.00000000000E+00  0.00000000000E+00  0.45593999997E+02  0.45594000000E+02  0.51100000000E-03 0. -1.
         11   -1    0    0    0    0 -0.00000000000E+00 -0.00000000000E+00 -0.45593999997E+02  0.45594000000E+02  0.51100000000E-03 0.  1.
    9900012    2    1    2    0    0 -0.15580421283E+02  0.37943950675E+02 -0.18617749054E+02  0.46142317632E+02  0.99999988196E+01 0.  0.
         12    1    1    2    0    0  0.15580421283E+02 -0.37943950675E+02  0.18617749054E+02  0.45045682368E+02  0.00000000000E+00 0. -1.
         11    1    3    3    0    0 -0.65988442600E+01  0.10635547424E+02 -0.53396775521E+01  0.13607783478E+02  0.51100000000E-03 0. -1.
        -11    1    3    3    0    0 -0.33438128686E+01  0.39121611314E+01 -0.21298087043E+00  0.51508688908E+01  0.51100000000E-03 0.  1.
         12    1    3    3    0    0 -0.56377641540E+01  0.23396242120E+02 -0.13065090632E+02  0.27383665263E+02  0.00000000000E+00 0. -1.
</event>
<event>
 7    1  0.2353206E-008  0.4614232E+02  0.7816164E-02  0.1320468E+00
        -11   -1    0    0    0    0  0.00000000000E+00  0.00000000000E+00  0.45593999997E+02  0.45594000000E+02  0.51100000000E-03 0.  1.
         11   -1    0    0    0    0 -0.00000000000E+00 -0.00000000000E+00 -0.45593999997E+02  0.45594000000E+02  0.51100000000E-03 0. -1.
    9900012    2    1    2    0    0 -0.51205562369E+01  0.26563084570E+02  0.36017995213E+02  0.46142317219E+02  0.99999950553E+01 0.  0.
         12    1    1    2    0    0  0.51205562369E+01 -0.26563084570E+02 -0.36017995213E+02  0.45045682781E+02  0.00000000000E+00 0. -1.
         11    1    3    3    0    0 -0.27270140045E+01  0.30318351572E+01  0.83990329211E+01  0.93366152364E+01  0.51100000000E-03 0. -1.
        -11    1    3    3    0    0  0.75494562645E+00  0.12137479766E+01  0.35728340501E+01  0.38481515641E+01  0.51100000000E-03 0.  1.
        -12    1    3    3    0    0 -0.31484878588E+01  0.22317501436E+02  0.24046128242E+02  0.32957550418E+02  0.00000000000E+00 0.  1.
</event>
<event>
 7    1  0.2353206E-008  0.4614232E+02  0.7816164E-02  0.1320468E+00
        -11   -1    0    0    0    0  0.00000000000E+00  0.00000000000E+00  0.45593999997E+02  0.45594000000E+02  0.51100000000E-03 0.  1.
         11   -1    0    0    0    0 -0.00000000000E+00 -0.00000000000E+00 -0.45593999997E+02  0.45594000000E+02  0.51100000000E-03 0. -1.
    9900012    2    1    2    0    0 -0.23632965395E+01  0.44189451997E+02  0.84154976169E+01  0.46142318315E+02  0.10000005053E+02 0.  0.
         12    1    1    2    0    0  0.23632965395E+01 -0.44189451997E+02 -0.84154976169E+01  0.45045681685E+02  0.00000000000E+00 0. -1.
         11    1    3    3    0    0 -0.37274960654E+00  0.47388509924E+00  0.15867487125E+01  0.16974336789E+01  0.51100000000E-03 0. -1.
        -11    1    3    3    0    0  0.23930724494E+00  0.20016964791E+02  0.16616613595E+01  0.20087241377E+02  0.51100000000E-03 0.  1.
         12    1    3    3    0    0 -0.22298541779E+01  0.23698602106E+02  0.51670875449E+01  0.24357643259E+02  0.00000000000E+00 0. -1.
</event>
<event>
 7    1  0.2353206E-008  0.4614232E+02  0.7816164E-02  0.1320468E+00
        -11   -1    0    0    0    0  0.00000000000E+00  0.00000000000E+00  0.45593999997E+02  0.45594000000E+02  0.51100000000E-03 0. -1.
         11   -1    0    0    0    0 -0.00000000000E+00 -0.00000000000E+00 -0.45593999997E+02  0.45594000000E+02  0.51100000000E-03 0.  1.
    9900012    2    1    2    0    0 -0.29290727409E+01  0.40271006559E+02  0.19969476489E+02  0.46142318436E+02  0.10000006150E+02 0.  0.
         12    1    1    2    0    0  0.29290727409E+01 -0.40271006559E+02 -0.19969476489E+02  0.45045681564E+02  0.00000000000E+00 0. -1.
         11    1    3    3    0    0 -0.15471215284E+00 -0.22067399811E+00  0.23048965689E+00  0.35462459973E+00  0.51100000000E-03 0. -1.
        -11    1    3    3    0    0  0.12792144053E+01  0.30301830442E+02  0.15108137616E+02  0.33883523136E+02  0.51100000000E-03 0.  1.
        -12    1    3    3    0    0 -0.40535749934E+01  0.10189850115E+02  0.46308492160E+01  0.11904170700E+02  0.00000000000E+00 0.  1.
</event>
<event>
 7    1  0.2353206E-008  0.4614232E+02  0.7816164E-02  0.1320468E+00
        -11   -1    0    0    0    0  0.00000000000E+00  0.00000000000E+00  0.45593999997E+02  0.45594000000E+02  0.51100000000E-03 0.  1.
         11   -1    0    0    0    0 -0.00000000000E+00 -0.00000000000E+00 -0.45593999997E+02  0.45594000000E+02  0.51100000000E-03 0. -1.
    9900012    2    1    2    0    0  0.15445904514E+02 -0.41222662716E+02  0.95514175750E+01  0.46142318016E+02  0.10000002328E+02 0.  0.
         12    1    1    2    0    0 -0.15445904514E+02  0.41222662716E+02 -0.95514175750E+01  0.45045681984E+02  0.00000000000E+00 0. -1.
         11    1    3    3    0    0  0.60847736758E+01 -0.91829717624E+01  0.27788872327E+01  0.11361058735E+02  0.51100000000E-03 0. -1.
        -11    1    3    3    0    0  0.10522513050E+02 -0.29568581783E+02  0.62359315591E+01  0.31998611723E+02  0.51100000000E-03 0.  1.
         12    1    3    3    0    0 -0.11613822121E+01 -0.24711091708E+01  0.53659878310E+00  0.27826475577E+01  0.00000000000E+00 0. -1.
</event>
<event>
 7    1  0.2353206E-008  0.4614232E+02  0.7816164E-02  0.1320468E+00
        -11   -1    0    0    0    0  0.00000000000E+00  0.00000000000E+00  0.45593999997E+02  0.45594000000E+02  0.51100000000E-03 0. -1.
         11   -1    0    0    0    0 -0.00000000000E+00 -0.00000000000E+00 -0.45593999997E+02  0.45594000000E+02  0.51100000000E-03 0.  1.
    9900012    2    1    2    0    0  0.59580321487E+01  0.44612475614E+02 -0.18281780650E+01  0.46142319158E+02  0.10000012739E+02 0.  0.
         12    1    1    2    0    0 -0.59580321487E+01 -0.44612475614E+02  0.18281780650E+01  0.45045680842E+02  0.00000000000E+00 0. -1.
         11    1    3    3    0    0  0.23337642080E+01  0.51011760107E+01  0.19477375218E+00  0.56130552417E+01  0.51100000000E-03 0. -1.
        -11    1    3    3    0    0  0.50077373337E+00  0.75393857781E+01  0.27736902624E+01  0.80490042972E+01  0.51100000000E-03 0.  1.
         12    1    3    3    0    0  0.31234942074E+01  0.31971913825E+02 -0.47966420795E+01  0.32480259619E+02  0.00000000000E+00 0. -1.
</event>
<event>
 7    1  0.2353206E-008  0.4614232E+02  0.7816164E-02  0.1320468E+00
        -11   -1    0    0    0    0  0.00000000000E+00  0.00000000000E+00  0.45593999997E+02  0.45594000000E+02  0.51100000000E-03 0.  1.
         11   -1    0    0    0    0 -0.00000000000E+00 -0.00000000000E+00 -0.45593999997E+02  0.45594000000E+02  0.51100000000E-03 0. -1.
    9900012    2    1    2    0    0 -0.31538161764E+02 -0.31724602545E+02  0.52922132013E+01  0.46142316803E+02  0.99999912634E+01 0.  0.
         12    1    1    2    0    0  0.31538161764E+02  0.31724602545E+02 -0.52922132013E+01  0.45045683197E+02  0.00000000000E+00 0. -1.
         11    1    3    3    0    0 -0.11094776850E+02 -0.60064571800E+01  0.28436793140E+01  0.12932830839E+02  0.51100000000E-03 0. -1.
        -11    1    3    3    0    0 -0.98113081166E+01 -0.10190597872E+02  0.26373534700E+01  0.14389777119E+02  0.51100000000E-03 0.  1.
        -12    1    3    3    0    0 -0.10632076798E+02 -0.15527547492E+02 -0.18881958280E+00  0.18819708845E+02  0.00000000000E+00 0.  1.
</event>
<event>
 7    1  0.2353206E-008  0.4614232E+02  0.7816164E-02  0.1320468E+00
        -11   -1    0    0    0    0  0.00000000000E+00  0.00000000000E+00  0.45593999997E+02  0.45594000000E+02  0.51100000000E-03 0.  1.
         11   -1    0    0    0    0 -0.00000000000E+00 -0.00000000000E+00 -0.45593999997E+02  0.45594000000E+02  0.51100000000E-03 0. -1.
    9900012    2    1    2    0    0 -0.76484697654E+01 -0.46627335108E+01  0.44146045117E+02  0.46142317932E+02  0.10000001558E+02 0.  0.
         12    1    1    2    0    0  0.76484697654E+01  0.46627335108E+01 -0.44146045117E+02  0.45045682068E+02  0.00000000000E+00 0. -1.
         11    1    3    3    0    0 -0.22957888280E+01 -0.28248011056E+01  0.57024598548E+01  0.67652196037E+01  0.51100000000E-03 0. -1.
        -11    1    3    3    0    0 -0.60675758667E+01  0.36954862941E+00  0.30579251668E+02  0.31177598944E+02  0.51100000000E-03 0.  1.
        -12    1    3    3    0    0  0.71489492931E+00 -0.22074810346E+01  0.78643335941E+01  0.81994993845E+01  0.00000000000E+00 0.  1.
</event>
<event>
 7    1  0.2353206E-008  0.4614232E+02  0.7816164E-02  0.1320468E+00
        -11   -1    0    0    0    0  0.00000000000E+00  0.00000000000E+00  0.45593999997E+02  0.45594000000E+02  0.51100000000E-03 0.  1.
         11   -1    0    0    0    0 -0.00000000000E+00 -0.00000000000E+00 -0.45593999997E+02  0.45594000000E+02  0.51100000000E-03 0. -1.
    9900012    2    1    2    0    0  0.29609971169E+02  0.27796626121E+02  0.19486166032E+02  0.46142317821E+02  0.10000000549E+02 0.  0.
         12    1    1    2    0    0 -0.29609971169E+02 -0.27796626121E+02 -0.19486166032E+02  0.45045682179E+02  0.00000000000E+00 0. -1.
         11    1    3    3    0    0  0.16017872647E+02  0.14406486308E+02  0.80279012682E+01  0.22990569608E+02  0.51100000000E-03 0. -1.
        -11    1    3    3    0    0  0.64987533784E+01  0.79768698653E+01  0.26747921125E+01  0.10631028239E+02  0.51100000000E-03 0.  1.
         12    1    3    3    0    0  0.70933451429E+01  0.54132699484E+01  0.87834726508E+01  0.12520719974E+02  0.00000000000E+00 0. -1.
</event>
<event>
 7    1  0.2353206E-008  0.4614232E+02  0.7816164E-02  0.1320468E+00
        -11   -1    0    0    0    0  0.00000000000E+00  0.00000000000E+00  0.45593999997E+02  0.45594000000E+02  0.51100000000E-03 0. -1.
         11   -1    0    0    0    0 -0.00000000000E+00 -0.00000000000E+00 -0.45593999997E+02  0.45594000000E+02  0.51100000000E-03 0.  1.
    9900012    2    1    2    0    0  0.27190944178E+02 -0.11726502351E+02 -0.33944885500E+02  0.46142317029E+02  0.99999933236E+01 0.  0.
         12    1    1    2    0    0 -0.27190944178E+02  0.11726502351E+02  0.33944885500E+02  0.45045682971E+02  0.00000000000E+00 0. -1.
         11    1    3    3    0    0  0.33795752559E+01  0.15054919038E+01 -0.40511334408E+01  0.54863209165E+01  0.51100000000E-03 0. -1.
        -11    1    3    3    0    0  0.13632930637E+02 -0.63086722381E+01 -0.13836520641E+02  0.20423159571E+02  0.51100000000E-03 0.  1.
         12    1    3    3    0    0  0.10178438286E+02 -0.69233220171E+01 -0.16057231418E+02  0.20232836541E+02  0.00000000000E+00 0. -1.
</event>
<event>
 7    1  0.2353206E-008  0.4614232E+02  0.7816164E-02  0.1320468E+00
        -11   -1    0    0    0    0  0.00000000000E+00  0.00000000000E+00  0.45593999997E+02  0.45594000000E+02  0.51100000000E-03 0.  1.
         11   -1    0    0    0    0 -0.00000000000E+00 -0.00000000000E+00 -0.45593999997E+02  0.45594000000E+02  0.51100000000E-03 0. -1.
    9900012    2    1    2    0    0  0.43104039171E+02  0.97378202666E-01  0.13082272548E+02  0.46142317295E+02  0.99999957482E+01 0.  0.
         12    1    1    2    0    0 -0.43104039171E+02 -0.97378202666E-01 -0.13082272548E+02  0.45045682705E+02  0.00000000000E+00 0. -1.
         11    1    3    3    0    0  0.22823669059E+02 -0.76965797194E+00  0.98537698903E+01  0.24871852043E+02  0.51100000000E-03 0. -1.
        -11    1    3    3    0    0  0.14410901088E+02 -0.19158699933E+00  0.46415979586E+01  0.15141175899E+02  0.51100000000E-03 0.  1.
        -12    1    3    3    0    0  0.58694690237E+01  0.10586231739E+01 -0.14130953005E+01  0.61292893530E+01  0.00000000000E+00 0.  1.
</event>
<event>
 7    1  0.2353206E-008  0.4614232E+02  0.7816164E-02  0.1320468E+00
        -11   -1    0    0    0    0  0.00000000000E+00  0.00000000000E+00  0.45593999997E+02  0.45594000000E+02  0.51100000000E-03 0.  1.
         11   -1    0    0    0    0 -0.00000000000E+00 -0.00000000000E+00 -0.45593999997E+02  0.45594000000E+02  0.51100000000E-03 0. -1.
    9900012    2    1    2    0    0  0.13127989712E+02  0.20824852633E+02  0.37723931834E+02  0.46142316144E+02  0.99999852558E+01 0.  0.
         12    1    1    2    0    0 -0.13127989712E+02 -0.20824852633E+02 -0.37723931834E+02  0.45045683856E+02  0.00000000000E+00 0. -1.
         11    1    3    3    0    0  0.45312004140E+01  0.99133268625E+01  0.16242990857E+02  0.19561200856E+02  0.51100000000E-03 0. -1.
        -11    1    3    3    0    0  0.29817023808E+01  0.23453915704E+01  0.14088311756E+01  0.40467537915E+01  0.51100000000E-03 0.  1.
        -12    1    3    3    0    0  0.56150869169E+01  0.85661341997E+01  0.20072109801E+02  0.22534361497E+02  0.00000000000E+00 0.  1.
</event>
<event>
 7    1  0.2353206E-008  0.4614232E+02  0.7816164E-02  0.1320468E+00
        -11   -1    0    0    0    0  0.00000000000E+00  0.00000000000E+00  0.45593999997E+02  0.45594000000E+02  0.51100000000E-03 0. -1.
         11   -1    0    0    0    0 -0.00000000000E+00 -0.00000000000E+00 -0.45593999997E+02  0.45594000000E+02  0.51100000000E-03 0.  1.
    9900012    2    1    2    0    0 -0.25520730720E+02 -0.20341365488E+02 -0.31048905208E+02  0.46142319175E+02  0.10000012895E+02 0.  0.
         12    1    1    2    0    0  0.25520730720E+02  0.20341365488E+02  0.31048905208E+02  0.45045680825E+02  0.00000000000E+00 0. -1.
         11    1    3    3    0    0 -0.87102123712E+00 -0.13752502876E+01 -0.42054430456E+01  0.45095169165E+01  0.51100000000E-03 0. -1.
        -11    1    3    3    0    0 -0.45009275404E+01 -0.61088274404E+01 -0.91954800118E+01  0.11921953461E+02  0.51100000000E-03 0.  1.
        -12    1    3    3    0    0 -0.20148781943E+02 -0.12857287760E+02 -0.17647982150E+02  0.29710848798E+02  0.00000000000E+00 0.  1.
</event>
<event>
 7    1  0.2353206E-008  0.4614232E+02  0.7816164E-02  0.1320468E+00
        -11   -1    0    0    0    0  0.00000000000E+00  0.00000000000E+00  0.45593999997E+02  0.45594000000E+02  0.51100000000E-03 0.  1.
         11   -1    0    0    0    0 -0.00000000000E+00 -0.00000000000E+00 -0.45593999997E+02  0.45594000000E+02  0.51100000000E-03 0. -1.
    9900012    2    1    2    0    0  0.14069578827E+02  0.39487360289E+02  0.16489657826E+02  0.46142317786E+02  0.10000000227E+02 0.  0.
         12    1    1    2    0    0 -0.14069578827E+02 -0.39487360289E+02 -0.16489657826E+02  0.45045682214E+02  0.00000000000E+00 0. -1.
         11    1    3    3    0    0  0.33570900026E+01  0.38677806859E+01  0.41140982160E+01  0.65692910662E+01  0.51100000000E-03 0. -1.
        -11    1    3    3    0    0  0.21840180209E+01  0.92447170945E+01  0.79712895679E+00  0.95325832652E+01  0.51100000000E-03 0.  1.
        -12    1    3    3    0    0  0.85284708030E+01  0.26374862508E+02  0.11578430653E+02  0.30040443455E+02  0.00000000000E+00 0.  1.
</event>
<event>
 7    1  0.2353206E-008  0.4614232E+02  0.7816164E-02  0.1320468E+00
        -11   -1    0    0    0    0  0.00000000000E+00  0.00000000000E+00  0.45593999997E+02  0.45594000000E+02  0.51100000000E-03 0.  1.
         11   -1    0    0    0    0 -0.00000000000E+00 -0.00000000000E+00 -0.45593999997E+02  0.45594000000E+02  0.51100000000E-03 0. -1.
    9900012    2    1    2    0    0  0.27958095282E+02  0.15219775585E+02  0.31871882145E+02  0.46142317276E+02  0.99999955744E+01 0.  0.
         12    1    1    2    0    0 -0.27958095282E+02 -0.15219775585E+02 -0.31871882145E+02  0.45045682724E+02  0.00000000000E+00 0. -1.
         11    1    3    3    0    0  0.15182794857E+02  0.10763817102E+02  0.15189233456E+02  0.24022694093E+02  0.51100000000E-03 0. -1.
        -11    1    3    3    0    0  0.10763007231E+02  0.51279998824E+01  0.11700179829E+02  0.16704278366E+02  0.51100000000E-03 0.  1.
         12    1    3    3    0    0  0.20122931946E+01 -0.67204139920E+00  0.49824688594E+01  0.54153448162E+01  0.00000000000E+00 0. -1.
</event>
<event>
 7    1  0.2353206E-008  0.4614232E+02  0.7816164E-02  0.1320468E+00
        -11   -1    0    0    0    0  0.00000000000E+00  0.00000000000E+00  0.45593999997E+02  0.45594000000E+02  0.51100000000E-03 0.  1.
         11   -1    0    0    0    0 -0.00000000000E+00 -0.00000000000E+00 -0.45593999997E+02  0.45594000000E+02  0.51100000000E-03 0. -1.
    9900012    2    1    2    0    0  0.45509706786E+01 -0.40250652604E+02  0.19705003481E+02  0.46142317284E+02  0.99999956460E+01 0.  0.
         12    1    1    2    0    0 -0.45509706786E+01  0.40250652604E+02 -0.19705003481E+02  0.45045682716E+02  0.00000000000E+00 0. -1.
         11    1    3    3    0    0  0.43005659799E+01 -0.23698010360E+02  0.13774584922E+02  0.27745806040E+02  0.51100000000E-03 0. -1.
        -11    1    3    3    0    0  0.91478418890E+00 -0.70187766602E+01  0.52551365216E+01  0.88156971387E+01  0.51100000000E-03 0.  1.
        -12    1    3    3    0    0 -0.66437949025E+00 -0.95338655840E+01  0.67528203715E+00  0.95808141048E+01  0.00000000000E+00 0.  1.
</event>
<event>
 7    1  0.2353206E-008  0.4614232E+02  0.7816164E-02  0.1320468E+00
        -11   -1    0    0    0    0  0.00000000000E+00  0.00000000000E+00  0.45593999997E+02  0.45594000000E+02  0.51100000000E-03 0. -1.
         11   -1    0    0    0    0 -0.00000000000E+00 -0.00000000000E+00 -0.45593999997E+02  0.45594000000E+02  0.51100000000E-03 0.  1.
    9900012    2    1    2    0    0 -0.11142873365E+02  0.38392885842E+02 -0.20759002596E+02  0.46142317645E+02  0.99999989370E+01 0.  0.
         12    1    1    2    0    0  0.11142873365E+02 -0.38392885842E+02  0.20759002596E+02  0.45045682355E+02  0.00000000000E+00 0. -1.
         11    1    3    3    0    0 -0.10888724330E+02  0.22821395445E+02 -0.14833491590E+02  0.29315744586E+02  0.51100000000E-03 0.  1.
        -11    1    3    3    0    0 -0.57917202861E+00  0.34738709046E+01 -0.47461597771E+00  0.35536572553E+01  0.51100000000E-03 0. -1.
        -12    1    3    3    0    0  0.32502299347E+00  0.12097619492E+02 -0.54508950281E+01  0.13272915804E+02  0.00000000000E+00 0.  1.
</event>
<event>
 7    1  0.2353206E-008  0.4614232E+02  0.7816164E-02  0.1320468E+00
        -11   -1    0    0    0    0  0.00000000000E+00  0.00000000000E+00  0.45593999997E+02  0.45594000000E+02  0.51100000000E-03 0.  1.
         11   -1    0    0    0    0 -0.00000000000E+00 -0.00000000000E+00 -0.45593999997E+02  0.45594000000E+02  0.51100000000E-03 0. -1.
    9900012    2    1    2    0    0 -0.18656015538E+02 -0.40050535223E+02  0.87761749674E+01  0.46142317249E+02  0.99999953331E+01 0.  0.
         12    1    1    2    0    0  0.18656015538E+02  0.40050535223E+02 -0.87761749674E+01  0.45045682751E+02  0.00000000000E+00 0. -1.
         11    1    3    3    0    0 -0.11458855728E+02 -0.17096710777E+02  0.25343838690E+01  0.20737068159E+02  0.51100000000E-03 0. -1.
        -11    1    3    3    0    0 -0.66449382429E+01 -0.12511944901E+02  0.37893711604E+01  0.14665036772E+02  0.51100000000E-03 0.  1.
        -12    1    3    3    0    0 -0.55222156722E+00 -0.10441879545E+02  0.24524199380E+01  0.10740212318E+02  0.00000000000E+00 0.  1.
</event>
<event>
 7    1  0.2353206E-008  0.4614232E+02  0.7816164E-02  0.1320468E+00
        -11   -1    0    0    0    0  0.00000000000E+00  0.00000000000E+00  0.45593999997E+02  0.45594000000E+02  0.51100000000E-03 0.  1.
         11   -1    0    0    0    0 -0.00000000000E+00 -0.00000000000E+00 -0.45593999997E+02  0.45594000000E+02  0.51100000000E-03 0. -1.
    9900012    2    1    2    0    0 -0.17348229243E+02 -0.39341751694E+02  0.13430523797E+02  0.46142318146E+02  0.10000003505E+02 0.  0.
         12    1    1    2    0    0  0.17348229243E+02  0.39341751694E+02 -0.13430523797E+02  0.45045681854E+02  0.00000000000E+00 0. -1.
         11    1    3    3    0    0 -0.53588731428E+01 -0.18105338493E+02  0.52443868857E+01  0.19596540444E+02  0.51100000000E-03 0. -1.
        -11    1    3    3    0    0 -0.10073347749E+02 -0.19317129874E+02  0.49824342598E+01  0.22348344298E+02  0.51100000000E-03 0.  1.
         12    1    3    3    0    0 -0.19160083516E+01 -0.19192833270E+01  0.32037026520E+01  0.41974334033E+01  0.00000000000E+00 0. -1.
</event>
<event>
 7    1  0.2353206E-008  0.4614232E+02  0.7816164E-02  0.1320468E+00
        -11   -1    0    0    0    0  0.00000000000E+00  0.00000000000E+00  0.45593999997E+02  0.45594000000E+02  0.51100000000E-03 0.  1.
         11   -1    0    0    0    0 -0.00000000000E+00 -0.00000000000E+00 -0.45593999997E+02  0.45594000000E+02  0.51100000000E-03 0. -1.
    9900012    2    1    2    0    0 -0.19604627316E+02  0.31415696760E+02  0.25648123094E+02  0.46142316152E+02  0.99999853269E+01 0.  0.
         12    1    1    2    0    0  0.19604627316E+02 -0.31415696760E+02 -0.25648123094E+02  0.45045683848E+02  0.00000000000E+00 0. -1.
         11    1    3    3    0    0 -0.13463712564E+02  0.27503309172E+02  0.19049228474E+02  0.36063508941E+02  0.51100000000E-03 0.  1.
        -11    1    3    3    0    0 -0.48537208953E+01  0.39305685596E+01  0.48521411385E+01  0.79089347968E+01  0.51100000000E-03 0. -1.
        -12    1    3    3    0    0 -0.12871938567E+01 -0.18180971172E-01  0.17467534808E+01  0.21698724145E+01  0.00000000000E+00 0.  1.
</event>
<event>
 7    1  0.2353206E-008  0.4614232E+02  0.7816164E-02  0.1320468E+00
        -11   -1    0    0    0    0  0.00000000000E+00  0.00000000000E+00  0.45593999997E+02  0.45594000000E+02  0.51100000000E-03 0.  1.
         11   -1    0    0    0    0 -0.00000000000E+00 -0.00000000000E+00 -0.45593999997E+02  0.45594000000E+02  0.51100000000E-03 0. -1.
    9900012    2    1    2    0    0 -0.29041732364E+02 -0.10973883667E+02  0.32638399407E+02  0.46142318106E+02  0.10000003148E+02 0.  0.
         12    1    1    2    0    0  0.29041732364E+02  0.10973883667E+02 -0.32638399407E+02  0.45045681894E+02  0.00000000000E+00 0. -1.
         11    1    3    3    0    0 -0.10592625418E+01  0.11853497557E+01  0.18715583605E+01  0.24555696149E+01  0.51100000000E-03 0. -1.
        -11    1    3    3    0    0 -0.26042062985E+02 -0.12425927633E+02  0.27398474326E+02  0.39790314371E+02  0.51100000000E-03 0.  1.
        -12    1    3    3    0    0 -0.19404068370E+01  0.26669421055E+00  0.33683667201E+01  0.38964341206E+01  0.00000000000E+00 0.  1.
</event>
<event>
 7    1  0.2353206E-008  0.4614232E+02  0.7816164E-02  0.1320468E+00
        -11   -1    0    0    0    0  0.00000000000E+00  0.00000000000E+00  0.45593999997E+02  0.45594000000E+02  0.51100000000E-03 0.  1.
         11   -1    0    0    0    0 -0.00000000000E+00 -0.00000000000E+00 -0.45593999997E+02  0.45594000000E+02  0.51100000000E-03 0. -1.
    9900012    2    1    2    0    0 -0.21103659911E+02 -0.37223984200E+02  0.14075654636E+02  0.46142317468E+02  0.99999973241E+01 0.  0.
         12    1    1    2    0    0  0.21103659911E+02  0.37223984200E+02 -0.14075654636E+02  0.45045682532E+02  0.00000000000E+00 0. -1.
         11    1    3    3    0    0 -0.19725477356E+01 -0.94461301453E+00  0.18252351987E+01  0.28486351308E+01  0.51100000000E-03 0. -1.
        -11    1    3    3    0    0 -0.16006408435E+02 -0.33808709537E+02  0.12072609844E+02  0.39306257265E+02  0.51100000000E-03 0.  1.
        -12    1    3    3    0    0 -0.31247037404E+01 -0.24706616490E+01  0.17780959390E+00  0.39874250715E+01  0.00000000000E+00 0.  1.
</event>
<event>
 7    1  0.2353206E-008  0.4614231E+02  0.7816164E-02  0.1320468E+00
        -11   -1    0    0    0    0  0.00000000000E+00  0.00000000000E+00  0.45593999997E+02  0.45594000000E+02  0.51100000000E-03 0.  1.
         11   -1    0    0    0    0 -0.00000000000E+00 -0.00000000000E+00 -0.45593999997E+02  0.45594000000E+02  0.51100000000E-03 0. -1.
    9900012    2    1    2    0    0 -0.19038619860E+02  0.58366117640E+01  0.40405181314E+02  0.46142314745E+02  0.99999725007E+01 0.  0.
         12    1    1    2    0    0  0.19038619860E+02 -0.58366117640E+01 -0.40405181314E+02  0.45045685255E+02  0.00000000000E+00 0. -1.
         11    1    3    3    0    0 -0.93909334078E+01  0.68419607205E+01  0.16635504558E+02  0.20291428460E+02  0.51100000000E-03 0. -1.
        -11    1    3    3    0    0 -0.85094557369E+01  0.61122935149E-01  0.18667366189E+02  0.20515485216E+02  0.51100000000E-03 0.  1.
        -12    1    3    3    0    0 -0.11382307152E+01 -0.10664718916E+01  0.51023105671E+01  0.53354010701E+01  0.00000000000E+00 0.  1.
</event>
<event>
 7    1  0.2353206E-008  0.4614232E+02  0.7816164E-02  0.1320468E+00
        -11   -1    0    0    0    0  0.00000000000E+00  0.00000000000E+00  0.45593999997E+02  0.45594000000E+02  0.51100000000E-03 0.  1.
         11   -1    0    0    0    0 -0.00000000000E+00 -0.00000000000E+00 -0.45593999997E+02  0.45594000000E+02  0.51100000000E-03 0. -1.
    9900012    2    1    2    0    0  0.33373323477E+02 -0.26831935335E+02  0.13977909421E+02  0.46142318459E+02  0.10000006360E+02 0.  0.
         12    1    1    2    0    0 -0.33373323477E+02  0.26831935335E+02 -0.13977909421E+02  0.45045681541E+02  0.00000000000E+00 0. -1.
         11    1    3    3    0    0  0.94596464174E+01 -0.58719026691E+01  0.21036821583E+01  0.11330914799E+02  0.51100000000E-03 0. -1.
        -11    1    3    3    0    0  0.52762931252E+01 -0.92491303320E+00  0.17578207536E+01  0.56377892231E+01  0.51100000000E-03 0.  1.
        -12    1    3    3    0    0  0.18637383935E+02 -0.20035119633E+02  0.10116406509E+02  0.29173614436E+02  0.00000000000E+00 0.  1.
</event>
<event>
 7    1  0.2353206E-008  0.4614232E+02  0.7816164E-02  0.1320468E+00
        -11   -1    0    0    0    0  0.00000000000E+00  0.00000000000E+00  0.45593999997E+02  0.45594000000E+02  0.51100000000E-03 0.  1.
         11   -1    0    0    0    0 -0.00000000000E+00 -0.00000000000E+00 -0.45593999997E+02  0.45594000000E+02  0.51100000000E-03 0. -1.
    9900012    2    1    2    0    0  0.26377086222E+02 -0.34391904332E+02  0.12270277414E+02  0.46142317976E+02  0.10000001964E+02 0.  0.
         12    1    1    2    0    0 -0.26377086222E+02  0.34391904332E+02 -0.12270277414E+02  0.45045682024E+02  0.00000000000E+00 0. -1.
         11    1    3    3    0    0  0.10456999315E+02 -0.20128245957E+02  0.70946977510E+01  0.23766149381E+02  0.51100000000E-03 0. -1.
        -11    1    3    3    0    0  0.66035419920E+01 -0.82432188187E+01  0.13778907219E+01  0.10651572956E+02  0.51100000000E-03 0.  1.
        -12    1    3    3    0    0  0.93165449155E+01 -0.60204395565E+01  0.37976889416E+01  0.11724595640E+02  0.00000000000E+00 0.  1.
</event>
<event>
 7    1  0.2353206E-008  0.4614233E+02  0.7816164E-02  0.1320468E+00
        -11   -1    0    0    0    0  0.00000000000E+00  0.00000000000E+00  0.45593999997E+02  0.45594000000E+02  0.51100000000E-03 0. -1.
         11   -1    0    0    0    0 -0.00000000000E+00 -0.00000000000E+00 -0.45593999997E+02  0.45594000000E+02  0.51100000000E-03 0.  1.
    9900012    2    1    2    0    0 -0.26517588877E+02 -0.31472132740E+02  0.18314882190E+02  0.46142327969E+02  0.10000093086E+02 0.  0.
         12    1    1    2    0    0  0.26517588877E+02  0.31472132740E+02 -0.18314882190E+02  0.45045672031E+02  0.00000000000E+00 0. -1.
         11    1    3    3    0    0 -0.10088290084E+01 -0.42169747860E+01  0.16645753448E+01  0.46445046726E+01  0.51100000000E-03 0. -1.
        -11    1    3    3    0    0 -0.45763629665E+01 -0.54605042910E+01  0.64311979174E+01  0.95979431144E+01  0.51100000000E-03 0.  1.
        -12    1    3    3    0    0 -0.20932396902E+02 -0.21794653663E+02  0.10219108927E+02  0.31899880182E+02  0.00000000000E+00 0.  1.
</event>
<event>
 7    1  0.2353206E-008  0.4614232E+02  0.7816164E-02  0.1320468E+00
        -11   -1    0    0    0    0  0.00000000000E+00  0.00000000000E+00  0.45593999997E+02  0.45594000000E+02  0.51100000000E-03 0.  1.
         11   -1    0    0    0    0 -0.00000000000E+00 -0.00000000000E+00 -0.45593999997E+02  0.45594000000E+02  0.51100000000E-03 0. -1.
    9900012    2    1    2    0    0 -0.54531649580E+01 -0.43827449691E+02 -0.88617743688E+01  0.46142318748E+02  0.10000009003E+02 0.  0.
         12    1    1    2    0    0  0.54531649580E+01  0.43827449691E+02  0.88617743688E+01  0.45045681252E+02  0.00000000000E+00 0. -1.
         11    1    3    3    0    0  0.42467603426E+00 -0.14254614883E+01 -0.11552942615E+01  0.18833468296E+01  0.51100000000E-03 0. -1.
        -11    1    3    3    0    0 -0.78732491681E+01 -0.29811882321E+02 -0.56251882123E+01  0.31342927794E+02  0.51100000000E-03 0.  1.
         12    1    3    3    0    0  0.19954081758E+01 -0.12590105881E+02 -0.20812918949E+01  0.12916044125E+02  0.00000000000E+00 0. -1.
</event>
<event>
 7    1  0.2353206E-008  0.4614232E+02  0.7816164E-02  0.1320468E+00
        -11   -1    0    0    0    0  0.00000000000E+00  0.00000000000E+00  0.45593999997E+02  0.45594000000E+02  0.51100000000E-03 0. -1.
         11   -1    0    0    0    0 -0.00000000000E+00 -0.00000000000E+00 -0.45593999997E+02  0.45594000000E+02  0.51100000000E-03 0.  1.
    9900012    2    1    2    0    0 -0.17073665982E+02 -0.26442896038E+02 -0.32223853831E+02  0.46142316781E+02  0.99999910619E+01 0.  0.
         12    1    1    2    0    0  0.17073665982E+02  0.26442896038E+02  0.32223853831E+02  0.45045683219E+02  0.00000000000E+00 0. -1.
         11    1    3    3    0    0 -0.21718575106E+01 -0.96776654450E+01 -0.80192992721E+01  0.12754737731E+02  0.51100000000E-03 0. -1.
        -11    1    3    3    0    0 -0.18226265313E+00 -0.14525014238E+01 -0.47163463033E+00  0.15379920502E+01  0.51100000000E-03 0.  1.
        -12    1    3    3    0    0 -0.14719545818E+02 -0.15312729169E+02 -0.23732919929E+02  0.31849587000E+02  0.00000000000E+00 0.  1.
</event>
<event>
 7    1  0.2353206E-008  0.4614232E+02  0.7816164E-02  0.1320468E+00
        -11   -1    0    0    0    0  0.00000000000E+00  0.00000000000E+00  0.45593999997E+02  0.45594000000E+02  0.51100000000E-03 0.  1.
         11   -1    0    0    0    0 -0.00000000000E+00 -0.00000000000E+00 -0.45593999997E+02  0.45594000000E+02  0.51100000000E-03 0. -1.
    9900012    2    1    2    0    0  0.44559773558E+02  0.36263834097E+01 -0.55126492132E+01  0.46142318992E+02  0.10000011224E+02 0.  0.
         12    1    1    2    0    0 -0.44559773558E+02 -0.36263834097E+01  0.55126492132E+01  0.45045681008E+02  0.00000000000E+00 0. -1.
         11    1    3    3    0    0  0.29777980779E+02  0.25746606585E+01 -0.35612883378E+01  0.30100494874E+02  0.51100000000E-03 0.  1.
        -11    1    3    3    0    0  0.66754356741E+01  0.32021543384E+01 -0.19455260690E+01  0.76550836567E+01  0.51100000000E-03 0. -1.
         12    1    3    3    0    0  0.81063571045E+01 -0.21504315872E+01 -0.58348063508E-02  0.83867404611E+01  0.00000000000E+00 0. -1.
</event>
<event>
 7    1  0.2353206E-008  0.4614232E+02  0.7816164E-02  0.1320468E+00
        -11   -1    0    0    0    0  0.00000000000E+00  0.00000000000E+00  0.45593999997E+02  0.45594000000E+02  0.51100000000E-03 0. -1.
         11   -1    0    0    0    0 -0.00000000000E+00 -0.00000000000E+00 -0.45593999997E+02  0.45594000000E+02  0.51100000000E-03 0.  1.
    9900012    2    1    2    0    0  0.16353638218E+01 -0.26184780052E+02 -0.36616886612E+02  0.46142317562E+02  0.99999981845E+01 0.  0.
         12    1    1    2    0    0 -0.16353638218E+01  0.26184780052E+02  0.36616886612E+02  0.45045682438E+02  0.00000000000E+00 0. -1.
         11    1    3    3    0    0  0.23360153068E+01 -0.65863445174E+01 -0.14080844811E+02  0.15719640341E+02  0.51100000000E-03 0.  1.
        -11    1    3    3    0    0 -0.25590759128E+01 -0.84264829379E+01 -0.73020654553E+01  0.11440045647E+02  0.51100000000E-03 0. -1.
        -12    1    3    3    0    0  0.18584244279E+01 -0.11171952596E+02 -0.15233976346E+02  0.18982631574E+02  0.00000000000E+00 0.  1.
</event>
<event>
 7    1  0.2353206E-008  0.4614232E+02  0.7816164E-02  0.1320468E+00
        -11   -1    0    0    0    0  0.00000000000E+00  0.00000000000E+00  0.45593999997E+02  0.45594000000E+02  0.51100000000E-03 0.  1.
         11   -1    0    0    0    0 -0.00000000000E+00 -0.00000000000E+00 -0.45593999997E+02  0.45594000000E+02  0.51100000000E-03 0. -1.
    9900012    2    1    2    0    0  0.43712893039E+02  0.49647458433E+01  0.96771791956E+01  0.46142317451E+02  0.99999971710E+01 0.  0.
         12    1    1    2    0    0 -0.43712893039E+02 -0.49647458433E+01 -0.96771791956E+01  0.45045682549E+02  0.00000000000E+00 0. -1.
         11    1    3    3    0    0  0.24574120391E+02  0.57168792094E+01  0.19148498005E+01  0.25302900049E+02  0.51100000000E-03 0. -1.
        -11    1    3    3    0    0  0.14709269545E+02 -0.16294424402E+01  0.54937243321E+01  0.15786028649E+02  0.51100000000E-03 0.  1.
        -12    1    3    3    0    0  0.44295031035E+01  0.87730907415E+00  0.22686050629E+01  0.50533887528E+01  0.00000000000E+00 0.  1.
</event>
<event>
 7    1  0.2353206E-008  0.4614232E+02  0.7816164E-02  0.1320468E+00
        -11   -1    0    0    0    0  0.00000000000E+00  0.00000000000E+00  0.45593999997E+02  0.45594000000E+02  0.51100000000E-03 0.  1.
         11   -1    0    0    0    0 -0.00000000000E+00 -0.00000000000E+00 -0.45593999997E+02  0.45594000000E+02  0.51100000000E-03 0. -1.
    9900012    2    1    2    0    0 -0.47286044753E+01 -0.25504799485E+02  0.36827425056E+02  0.46142315043E+02  0.99999752118E+01 0.  0.
         12    1    1    2    0    0  0.47286044753E+01  0.25504799485E+02 -0.36827425056E+02  0.45045684957E+02  0.00000000000E+00 0. -1.
         11    1    3    3    0    0 -0.61459524790E+01 -0.10048748875E+02  0.18062726074E+02  0.21564140589E+02  0.51100000000E-03 0. -1.
        -11    1    3    3    0    0 -0.52331798881E+00 -0.96879083879E+01  0.10266029602E+02  0.14125182997E+02  0.51100000000E-03 0.  1.
         12    1    3    3    0    0  0.19406659925E+01 -0.57681422215E+01  0.84986693789E+01  0.10452991457E+02  0.00000000000E+00 0. -1.
</event>
<event>
 7    1  0.2353206E-008  0.4614232E+02  0.7816164E-02  0.1320468E+00
        -11   -1    0    0    0    0  0.00000000000E+00  0.00000000000E+00  0.45593999997E+02  0.45594000000E+02  0.51100000000E-03 0.  1.
         11   -1    0    0    0    0 -0.00000000000E+00 -0.00000000000E+00 -0.45593999997E+02  0.45594000000E+02  0.51100000000E-03 0. -1.
    9900012    2    1    2    0    0 -0.36694158474E+02  0.59057385695E+01  0.25451413633E+02  0.46142317964E+02  0.10000001849E+02 0.  0.
         12    1    1    2    0    0  0.36694158474E+02 -0.59057385695E+01 -0.25451413633E+02  0.45045682036E+02  0.00000000000E+00 0. -1.
         11    1    3    3    0    0 -0.17965893179E+02 -0.85070263613E+00  0.91239815645E+01  0.20167896582E+02  0.51100000000E-03 0. -1.
        -11    1    3    3    0    0 -0.56794359405E+00 -0.16890904702E-01  0.13974090083E+01  0.15085083448E+01  0.51100000000E-03 0.  1.
        -12    1    3    3    0    0 -0.18160321702E+02  0.67733321103E+01  0.14930023060E+02  0.24465913037E+02  0.00000000000E+00 0.  1.
</event>
<event>
 7    1  0.2353206E-008  0.4614232E+02  0.7816164E-02  0.1320468E+00
        -11   -1    0    0    0    0  0.00000000000E+00  0.00000000000E+00  0.45593999997E+02  0.45594000000E+02  0.51100000000E-03 0.  1.
         11   -1    0    0    0    0 -0.00000000000E+00 -0.00000000000E+00 -0.45593999997E+02  0.45594000000E+02  0.51100000000E-03 0. -1.
    9900012    2    1    2    0    0  0.10683403064E+02  0.43730698993E+02  0.16137191067E+01  0.46142320687E+02  0.10000026681E+02 0.  0.
         12    1    1    2    0    0 -0.10683403064E+02 -0.43730698993E+02 -0.16137191067E+01  0.45045679313E+02  0.00000000000E+00 0. -1.
         11    1    3    3    0    0  0.32478208862E+01  0.44192364214E+01 -0.93787052628E+00  0.55639547484E+01  0.51100000000E-03 0. -1.
        -11    1    3    3    0    0  0.54699681969E+01  0.15844212237E+02 -0.85592620271E+00  0.16783689207E+02  0.51100000000E-03 0.  1.
        -12    1    3    3    0    0  0.19656139807E+01  0.23467250334E+02  0.34075158357E+01  0.23794676731E+02  0.00000000000E+00 0.  1.
</event>
<event>
 7    1  0.2353206E-008  0.4614232E+02  0.7816164E-02  0.1320468E+00
        -11   -1    0    0    0    0  0.00000000000E+00  0.00000000000E+00  0.45593999997E+02  0.45594000000E+02  0.51100000000E-03 0.  1.
         11   -1    0    0    0    0 -0.00000000000E+00 -0.00000000000E+00 -0.45593999997E+02  0.45594000000E+02  0.51100000000E-03 0. -1.
    9900012    2    1    2    0    0 -0.10738501143E+02  0.30400690009E+02  0.31457848809E+02  0.46142316394E+02  0.99999875301E+01 0.  0.
         12    1    1    2    0    0  0.10738501143E+02 -0.30400690009E+02 -0.31457848809E+02  0.45045683606E+02  0.00000000000E+00 0. -1.
         11    1    3    3    0    0 -0.39922476614E+00  0.23757718955E+00 -0.23192419564E+00  0.51924216753E+00  0.51100000000E-03 0. -1.
        -11    1    3    3    0    0 -0.67719862010E+01  0.10128796793E+02  0.90192536504E+01  0.15159131184E+02  0.51100000000E-03 0.  1.
        -12    1    3    3    0    0 -0.35672901758E+01  0.20034316027E+02  0.22670519355E+02  0.30463943042E+02  0.00000000000E+00 0.  1.
</event>
<event>
 7    1  0.2353206E-008  0.4614232E+02  0.7816164E-02  0.1320468E+00
        -11   -1    0    0    0    0  0.00000000000E+00  0.00000000000E+00  0.45593999997E+02  0.45594000000E+02  0.51100000000E-03 0.  1.
         11   -1    0    0    0    0 -0.00000000000E+00 -0.00000000000E+00 -0.45593999997E+02  0.45594000000E+02  0.51100000000E-03 0. -1.
    9900012    2    1    2    0    0 -0.28804958826E+02  0.30041855455E+01  0.34501633670E+02  0.46142317525E+02  0.99999978443E+01 0.  0.
         12    1    1    2    0    0  0.28804958826E+02 -0.30041855455E+01 -0.34501633670E+02  0.45045682475E+02  0.00000000000E+00 0. -1.
         11    1    3    3    0    0 -0.24883757130E+00 -0.31334031195E+00 -0.79519140495E-01  0.40795323606E+00  0.51100000000E-03 0. -1.
        -11    1    3    3    0    0 -0.20764455534E+02  0.44591643085E+01  0.20052238537E+02  0.29208543794E+02  0.51100000000E-03 0.  1.
        -12    1    3    3    0    0 -0.77916657210E+01 -0.11416384511E+01  0.14528914274E+02  0.16525820495E+02  0.00000000000E+00 0.  1.
</event>
<event>
 7    1  0.2353206E-008  0.4614232E+02  0.7816164E-02  0.1320468E+00
        -11   -1    0    0    0    0  0.00000000000E+00  0.00000000000E+00  0.45593999997E+02  0.45594000000E+02  0.51100000000E-03 0.  1.
         11   -1    0    0    0    0 -0.00000000000E+00 -0.00000000000E+00 -0.45593999997E+02  0.45594000000E+02  0.51100000000E-03 0. -1.
    9900012    2    1    2    0    0 -0.97264542973E+01  0.14127978285E+01  0.43960365599E+02  0.46142315917E+02  0.99999831853E+01 0.  0.
         12    1    1    2    0    0  0.97264542973E+01 -0.14127978285E+01 -0.43960365599E+02  0.45045684083E+02  0.00000000000E+00 0. -1.
         11    1    3    3    0    0 -0.22238092554E+01  0.13232551794E+01  0.65521046323E+01  0.70446012838E+01  0.51100000000E-03 0. -1.
        -11    1    3    3    0    0 -0.69022774875E+01  0.13992399066E+01  0.36905957069E+02  0.37571917362E+02  0.51100000000E-03 0.  1.
        -12    1    3    3    0    0 -0.60036755444E+00 -0.13096972575E+01  0.50230389743E+00  0.15257972710E+01  0.00000000000E+00 0.  1.
</event>
<event>
 7    1  0.2353206E-008  0.4614232E+02  0.7816164E-02  0.1320468E+00
        -11   -1    0    0    0    0  0.00000000000E+00  0.00000000000E+00  0.45593999997E+02  0.45594000000E+02  0.51100000000E-03 0.  1.
         11   -1    0    0    0    0 -0.00000000000E+00 -0.00000000000E+00 -0.45593999997E+02  0.45594000000E+02  0.51100000000E-03 0. -1.
    9900012    2    1    2    0    0 -0.63481284831E+01  0.22172767981E+02  0.38693450116E+02  0.46142318109E+02  0.10000003169E+02 0.  0.
         12    1    1    2    0    0  0.63481284831E+01 -0.22172767981E+02 -0.38693450116E+02  0.45045681891E+02  0.00000000000E+00 0. -1.
         11    1    3    3    0    0 -0.22969037931E+01  0.33640200395E+01  0.13369420459E+02  0.13976186945E+02  0.51100000000E-03 0. -1.
        -11    1    3    3    0    0 -0.30607542332E+01  0.13906177184E+02  0.21835964036E+02  0.26068358329E+02  0.51100000000E-03 0.  1.
         12    1    3    3    0    0 -0.99047045680E+00  0.49025707577E+01  0.34880656217E+01  0.60977728345E+01  0.00000000000E+00 0. -1.
</event>
<event>
 7    1  0.2353206E-008  0.4614232E+02  0.7816164E-02  0.1320468E+00
        -11   -1    0    0    0    0  0.00000000000E+00  0.00000000000E+00  0.45593999997E+02  0.45594000000E+02  0.51100000000E-03 0.  1.
         11   -1    0    0    0    0 -0.00000000000E+00 -0.00000000000E+00 -0.45593999997E+02  0.45594000000E+02  0.51100000000E-03 0. -1.
    9900012    2    1    2    0    0  0.12189458269E+01 -0.37861598153E+02  0.24374719868E+02  0.46142318606E+02  0.10000007706E+02 0.  0.
         12    1    1    2    0    0 -0.12189458269E+01  0.37861598153E+02 -0.24374719868E+02  0.45045681394E+02  0.00000000000E+00 0. -1.
         11    1    3    3    0    0  0.12469592196E+01 -0.13981255574E+00  0.36187805974E+00  0.13059137939E+01  0.51100000000E-03 0. -1.
        -11    1    3    3    0    0 -0.96664303656E+00 -0.22180216084E+02  0.12558873927E+02  0.25507287172E+02  0.51100000000E-03 0.  1.
         12    1    3    3    0    0  0.93862964390E+00 -0.15541569513E+02  0.11453967881E+02  0.19329117640E+02  0.00000000000E+00 0. -1.
</event>
<event>
 7    1  0.2353206E-008  0.4614232E+02  0.7816164E-02  0.1320468E+00
        -11   -1    0    0    0    0  0.00000000000E+00  0.00000000000E+00  0.45593999997E+02  0.45594000000E+02  0.51100000000E-03 0. -1.
         11   -1    0    0    0    0 -0.00000000000E+00 -0.00000000000E+00 -0.45593999997E+02  0.45594000000E+02  0.51100000000E-03 0.  1.
    9900012    2    1    2    0    0  0.15206043849E+02  0.37408103147E+02 -0.19963053808E+02  0.46142317988E+02  0.10000002065E+02 0.  0.
         12    1    1    2    0    0 -0.15206043849E+02 -0.37408103147E+02  0.19963053808E+02  0.45045682012E+02  0.00000000000E+00 0. -1.
         11    1    3    3    0    0  0.11095307606E+02  0.29230952607E+02 -0.16862660323E+02  0.35523284683E+02  0.51100000000E-03 0. -1.
        -11    1    3    3    0    0  0.24360909752E+01  0.78322135901E+01 -0.34073460956E+01  0.88818982564E+01  0.51100000000E-03 0.  1.
         12    1    3    3    0    0  0.16746452677E+01  0.34493694986E+00  0.30695261056E+00  0.17371350487E+01  0.00000000000E+00 0. -1.
</event>
<event>
 7    1  0.2353206E-008  0.4614232E+02  0.7816164E-02  0.1320468E+00
        -11   -1    0    0    0    0  0.00000000000E+00  0.00000000000E+00  0.45593999997E+02  0.45594000000E+02  0.51100000000E-03 0. -1.
         11   -1    0    0    0    0 -0.00000000000E+00 -0.00000000000E+00 -0.45593999997E+02  0.45594000000E+02  0.51100000000E-03 0.  1.
    9900012    2    1    2    0    0  0.16976759200E+02 -0.22793256177E+02 -0.34948112380E+02  0.46142318309E+02  0.10000004994E+02 0.  0.
         12    1    1    2    0    0 -0.16976759200E+02  0.22793256177E+02  0.34948112380E+02  0.45045681691E+02  0.00000000000E+00 0. -1.
         11    1    3    3    0    0  0.18645400921E+01 -0.84989423258E+01 -0.11092499707E+02  0.14097945965E+02  0.51100000000E-03 0. -1.
        -11    1    3    3    0    0  0.87975066421E+01 -0.86794306342E+01 -0.17710913318E+02  0.21596413824E+02  0.51100000000E-03 0.  1.
         12    1    3    3    0    0  0.63147124655E+01 -0.56148832172E+01 -0.61446993551E+01  0.10447958520E+02  0.00000000000E+00 0. -1.
</event>
<event>
 7    1  0.2353206E-008  0.4614232E+02  0.7816164E-02  0.1320468E+00
        -11   -1    0    0    0    0  0.00000000000E+00  0.00000000000E+00  0.45593999997E+02  0.45594000000E+02  0.51100000000E-03 0. -1.
         11   -1    0    0    0    0 -0.00000000000E+00 -0.00000000000E+00 -0.45593999997E+02  0.45594000000E+02  0.51100000000E-03 0.  1.
    9900012    2    1    2    0    0  0.27697216990E+02 -0.28724700728E+02 -0.20901417835E+02  0.46142317316E+02  0.99999959434E+01 0.  0.
         12    1    1    2    0    0 -0.27697216990E+02  0.28724700728E+02  0.20901417835E+02  0.45045682684E+02  0.00000000000E+00 0. -1.
         11    1    3    3    0    0  0.28095843183E+00 -0.26452485579E+01 -0.20549130055E+01  0.33613903812E+01  0.51100000000E-03 0. -1.
        -11    1    3    3    0    0  0.13255249040E+02 -0.11948279228E+02 -0.52839276133E+01  0.18611364670E+02  0.51100000000E-03 0.  1.
         12    1    3    3    0    0  0.14161009519E+02 -0.14131172943E+02 -0.13562577216E+02  0.24169562265E+02  0.00000000000E+00 0. -1.
</event>
<event>
 7    1  0.2353206E-008  0.4614232E+02  0.7816164E-02  0.1320468E+00
        -11   -1    0    0    0    0  0.00000000000E+00  0.00000000000E+00  0.45593999997E+02  0.45594000000E+02  0.51100000000E-03 0. -1.
         11   -1    0    0    0    0 -0.00000000000E+00 -0.00000000000E+00 -0.45593999997E+02  0.45594000000E+02  0.51100000000E-03 0.  1.
    9900012    2    1    2    0    0  0.15281676313E+02 -0.22758384484E+02 -0.35744087567E+02  0.46142317729E+02  0.99999997106E+01 0.  0.
         12    1    1    2    0    0 -0.15281676313E+02  0.22758384484E+02  0.35744087567E+02  0.45045682271E+02  0.00000000000E+00 0. -1.
         11    1    3    3    0    0  0.86628278029E+01 -0.95675094567E+01 -0.14355812680E+02  0.19304693230E+02  0.51100000000E-03 0. -1.
        -11    1    3    3    0    0  0.19958537756E+01 -0.93401004622E-01 -0.11929565754E+01  0.23270800788E+01  0.51100000000E-03 0.  1.
        -12    1    3    3    0    0  0.46229947341E+01 -0.13097474023E+02 -0.20195318312E+02  0.24510544421E+02  0.00000000000E+00 0.  1.
</event>
<event>
 7    1  0.2353206E-008  0.4614232E+02  0.7816164E-02  0.1320468E+00
        -11   -1    0    0    0    0  0.00000000000E+00  0.00000000000E+00  0.45593999997E+02  0.45594000000E+02  0.51100000000E-03 0.  1.
         11   -1    0    0    0    0 -0.00000000000E+00 -0.00000000000E+00 -0.45593999997E+02  0.45594000000E+02  0.51100000000E-03 0. -1.
    9900012    2    1    2    0    0 -0.13340064403E+01 -0.42915279066E+02  0.13623977398E+02  0.46142317514E+02  0.99999977451E+01 0.  0.
         12    1    1    2    0    0  0.13340064403E+01  0.42915279066E+02 -0.13623977398E+02  0.45045682486E+02  0.00000000000E+00 0. -1.
         11    1    3    3    0    0 -0.36859447748E+01 -0.31223539393E+02  0.10692177874E+02  0.33208707729E+02  0.51100000000E-03 0. -1.
        -11    1    3    3    0    0 -0.63840178386E-01 -0.58505003992E+01  0.30774847256E+01  0.66108503982E+01  0.51100000000E-03 0.  1.
         12    1    3    3    0    0  0.24157785128E+01 -0.58412392743E+01 -0.14568520165E+00  0.63227593865E+01  0.00000000000E+00 0. -1.
</event>
<event>
 7    1  0.2353206E-008  0.4614232E+02  0.7816164E-02  0.1320468E+00
        -11   -1    0    0    0    0  0.00000000000E+00  0.00000000000E+00  0.45593999997E+02  0.45594000000E+02  0.51100000000E-03 0. -1.
         11   -1    0    0    0    0 -0.00000000000E+00 -0.00000000000E+00 -0.45593999997E+02  0.45594000000E+02  0.51100000000E-03 0.  1.
    9900012    2    1    2    0    0  0.60861248065E+01  0.39918345701E+02 -0.19964926541E+02  0.46142317294E+02  0.99999957390E+01 0.  0.
         12    1    1    2    0    0 -0.60861248065E+01 -0.39918345701E+02  0.19964926541E+02  0.45045682706E+02  0.00000000000E+00 0. -1.
         11    1    3    3    0    0 -0.14893770359E+00  0.18422748432E+01  0.35168001956E+00  0.18814457565E+01  0.51100000000E-03 0. -1.
        -11    1    3    3    0    0 -0.87731911847E+00  0.14651822965E+02 -0.56799712318E+01  0.15738731794E+02  0.51100000000E-03 0.  1.
         12    1    3    3    0    0  0.71123816285E+01  0.23424247893E+02 -0.14636635329E+02  0.28522139744E+02  0.00000000000E+00 0. -1.
</event>
<event>
 7    1  0.2353206E-008  0.4614232E+02  0.7816164E-02  0.1320468E+00
        -11   -1    0    0    0    0  0.00000000000E+00  0.00000000000E+00  0.45593999997E+02  0.45594000000E+02  0.51100000000E-03 0.  1.
         11   -1    0    0    0    0 -0.00000000000E+00 -0.00000000000E+00 -0.45593999997E+02  0.45594000000E+02  0.51100000000E-03 0. -1.
    9900012    2    1    2    0    0  0.12122075643E+02 -0.74222542610E+01  0.42744343987E+02  0.46142317420E+02  0.99999968912E+01 0.  0.
         12    1    1    2    0    0 -0.12122075643E+02  0.74222542610E+01 -0.42744343987E+02  0.45045682580E+02  0.00000000000E+00 0. -1.
         11    1    3    3    0    0  0.61647836468E+01 -0.20143977749E+01  0.76799178102E+01  0.10052039278E+02  0.51100000000E-03 0. -1.
        -11    1    3    3    0    0  0.71905503246E+00 -0.22291585439E+01  0.77057979436E+01  0.80539127238E+01  0.51100000000E-03 0.  1.
         12    1    3    3    0    0  0.52382369640E+01 -0.31786979422E+01  0.27358628233E+02  0.28036365419E+02  0.00000000000E+00 0. -1.
</event>
<event>
 7    1  0.2353206E-008  0.4614232E+02  0.7816164E-02  0.1320468E+00
        -11   -1    0    0    0    0  0.00000000000E+00  0.00000000000E+00  0.45593999997E+02  0.45594000000E+02  0.51100000000E-03 0.  1.
         11   -1    0    0    0    0 -0.00000000000E+00 -0.00000000000E+00 -0.45593999997E+02  0.45594000000E+02  0.51100000000E-03 0. -1.
    9900012    2    1    2    0    0 -0.27529186545E+01  0.16293800822E+02  0.41905213772E+02  0.46142318214E+02  0.10000004126E+02 0.  0.
         12    1    1    2    0    0  0.27529186545E+01 -0.16293800822E+02 -0.41905213772E+02  0.45045681786E+02  0.00000000000E+00 0. -1.
         11    1    3    3    0    0 -0.90444226828E-01  0.15961882484E+01  0.99992246591E+00  0.18856941113E+01  0.51100000000E-03 0. -1.
        -11    1    3    3    0    0 -0.99020221879E+00  0.14718974851E+02  0.39125963359E+02  0.41814707103E+02  0.51100000000E-03 0.  1.
        -12    1    3    3    0    0 -0.16722722089E+01 -0.21362277480E-01  0.17793279470E+01  0.24419169991E+01  0.00000000000E+00 0.  1.
</event>
<event>
 7    1  0.2353206E-008  0.4614232E+02  0.7816164E-02  0.1320468E+00
        -11   -1    0    0    0    0  0.00000000000E+00  0.00000000000E+00  0.45593999997E+02  0.45594000000E+02  0.51100000000E-03 0.  1.
         11   -1    0    0    0    0 -0.00000000000E+00 -0.00000000000E+00 -0.45593999997E+02  0.45594000000E+02  0.51100000000E-03 0. -1.
    9900012    2    1    2    0    0  0.37118358557E+02  0.24726118982E+02  0.63213939461E+01  0.46142317373E+02  0.99999964645E+01 0.  0.
         12    1    1    2    0    0 -0.37118358557E+02 -0.24726118982E+02 -0.63213939461E+01  0.45045682627E+02  0.00000000000E+00 0. -1.
         11    1    3    3    0    0  0.91649727864E+00  0.92806672823E+00 -0.13461514659E+00  0.13112576454E+01  0.51100000000E-03 0. -1.
        -11    1    3    3    0    0  0.13067309464E+02  0.14042792513E+02  0.40836468556E+01  0.19612005764E+02  0.51100000000E-03 0.  1.
        -12    1    3    3    0    0  0.23134551814E+02  0.97552597413E+01  0.23723622371E+01  0.25219053964E+02  0.00000000000E+00 0.  1.
</event>
<event>
 7    1  0.2353206E-008  0.4614232E+02  0.7816164E-02  0.1320468E+00
        -11   -1    0    0    0    0  0.00000000000E+00  0.00000000000E+00  0.45593999997E+02  0.45594000000E+02  0.51100000000E-03 0.  1.
         11   -1    0    0    0    0 -0.00000000000E+00 -0.00000000000E+00 -0.45593999997E+02  0.45594000000E+02  0.51100000000E-03 0. -1.
    9900012    2    1    2    0    0 -0.67783211113E+01  0.32513931919E+02  0.30430445138E+02  0.46142318773E+02  0.10000009224E+02 0.  0.
         12    1    1    2    0    0  0.67783211113E+01 -0.32513931919E+02 -0.30430445138E+02  0.45045681227E+02  0.00000000000E+00 0. -1.
         11    1    3    3    0    0 -0.70230748015E+01  0.29058692975E+02  0.25881735796E+02  0.39542324984E+02  0.51100000000E-03 0. -1.
        -11    1    3    3    0    0 -0.11979280162E+01  0.92057235551E+00  0.28478716524E+01  0.32237956206E+01  0.51100000000E-03 0.  1.
         12    1    3    3    0    0  0.14426817064E+01  0.25346665884E+01  0.17008376898E+01  0.33761981677E+01  0.00000000000E+00 0. -1.
</event>
<event>
 7    1  0.2353206E-008  0.4614232E+02  0.7816164E-02  0.1320468E+00
        -11   -1    0    0    0    0  0.00000000000E+00  0.00000000000E+00  0.45593999997E+02  0.45594000000E+02  0.51100000000E-03 0.  1.
         11   -1    0    0    0    0 -0.00000000000E+00 -0.00000000000E+00 -0.45593999997E+02  0.45594000000E+02  0.51100000000E-03 0. -1.
    9900012    2    1    2    0    0  0.96504536147E+01  0.12698927414E+02  0.42127414666E+02  0.46142322307E+02  0.10000041449E+02 0.  0.
         12    1    1    2    0    0 -0.96504536147E+01 -0.12698927414E+02 -0.42127414666E+02  0.45045677693E+02  0.00000000000E+00 0. -1.
         11    1    3    3    0    0 -0.15273094830E+01  0.33379271182E+01  0.10326805470E+02  0.10959805801E+02  0.51100000000E-03 0. -1.
        -11    1    3    3    0    0  0.50035493883E+01  0.48781229215E+01  0.19426713620E+02  0.20645309202E+02  0.51100000000E-03 0.  1.
         12    1    3    3    0    0  0.61742137094E+01  0.44828773741E+01  0.12373895576E+02  0.14537207304E+02  0.00000000000E+00 0. -1.
</event>
<event>
 7    1  0.2353206E-008  0.4614232E+02  0.7816164E-02  0.1320468E+00
        -11   -1    0    0    0    0  0.00000000000E+00  0.00000000000E+00  0.45593999997E+02  0.45594000000E+02  0.51100000000E-03 0.  1.
         11   -1    0    0    0    0 -0.00000000000E+00 -0.00000000000E+00 -0.45593999997E+02  0.45594000000E+02  0.51100000000E-03 0. -1.
    9900012    2    1    2    0    0  0.44510676141E+02  0.36611609303E+01  0.58744386557E+01  0.46142318527E+02  0.10000006982E+02 0.  0.
         12    1    1    2    0    0 -0.44510676141E+02 -0.36611609303E+01 -0.58744386557E+01  0.45045681473E+02  0.00000000000E+00 0. -1.
         11    1    3    3    0    0  0.16144335448E+02  0.35159018077E+01  0.52202676505E+01  0.17327790603E+02  0.51100000000E-03 0. -1.
        -11    1    3    3    0    0  0.72772725207E+01  0.22111092357E+01 -0.18328313340E+00  0.76079755757E+01  0.51100000000E-03 0.  1.
        -12    1    3    3    0    0  0.21089068172E+02 -0.20658501131E+01  0.83745413854E+00  0.21206552348E+02  0.00000000000E+00 0.  1.
</event>
<event>
 7    1  0.2353206E-008  0.4614232E+02  0.7816164E-02  0.1320468E+00
        -11   -1    0    0    0    0  0.00000000000E+00  0.00000000000E+00  0.45593999997E+02  0.45594000000E+02  0.51100000000E-03 0. -1.
         11   -1    0    0    0    0 -0.00000000000E+00 -0.00000000000E+00 -0.45593999997E+02  0.45594000000E+02  0.51100000000E-03 0.  1.
    9900012    2    1    2    0    0 -0.32399235342E+02  0.14253391319E+02 -0.27861148167E+02  0.46142321050E+02  0.10000029994E+02 0.  0.
         12    1    1    2    0    0  0.32399235342E+02 -0.14253391319E+02  0.27861148167E+02  0.45045678950E+02  0.00000000000E+00 0. -1.
         11    1    3    3    0    0 -0.11037214301E+02  0.57822175496E+01 -0.15924580944E+02  0.20219950985E+02  0.51100000000E-03 0. -1.
        -11    1    3    3    0    0 -0.16403663933E+02  0.59735028941E+01 -0.89413327718E+01  0.19614034752E+02  0.51100000000E-03 0.  1.
         12    1    3    3    0    0 -0.49583571079E+01  0.24976708751E+01 -0.29952344514E+01  0.63083353136E+01  0.00000000000E+00 0. -1.
</event>
<event>
 7    1  0.2353206E-008  0.4614232E+02  0.7816164E-02  0.1320468E+00
        -11   -1    0    0    0    0  0.00000000000E+00  0.00000000000E+00  0.45593999997E+02  0.45594000000E+02  0.51100000000E-03 0.  1.
         11   -1    0    0    0    0 -0.00000000000E+00 -0.00000000000E+00 -0.45593999997E+02  0.45594000000E+02  0.51100000000E-03 0. -1.
    9900012    2    1    2    0    0  0.32983830690E+02 -0.23335040254E+02  0.19916232525E+02  0.46142317537E+02  0.99999979536E+01 0.  0.
         12    1    1    2    0    0 -0.32983830690E+02  0.23335040254E+02 -0.19916232525E+02  0.45045682463E+02  0.00000000000E+00 0. -1.
         11    1    3    3    0    0  0.76357558925E+01 -0.29972234607E+01  0.33858682440E+01  0.88742447876E+01  0.51100000000E-03 0. -1.
        -11    1    3    3    0    0  0.72643299768E+01 -0.82309757328E+01  0.21582092846E+01  0.11188267029E+02  0.51100000000E-03 0.  1.
        -12    1    3    3    0    0  0.18083744820E+02 -0.12106841060E+02  0.14372154996E+02  0.26079805720E+02  0.00000000000E+00 0.  1.
</event>
<event>
 7    1  0.2353206E-008  0.4614231E+02  0.7816164E-02  0.1320468E+00
        -11   -1    0    0    0    0  0.00000000000E+00  0.00000000000E+00  0.45593999997E+02  0.45594000000E+02  0.51100000000E-03 0.  1.
         11   -1    0    0    0    0 -0.00000000000E+00 -0.00000000000E+00 -0.45593999997E+02  0.45594000000E+02  0.51100000000E-03 0. -1.
    9900012    2    1    2    0    0  0.11272933451E+02 -0.40025089759E+02  0.17321286303E+02  0.46142314325E+02  0.99999686634E+01 0.  0.
         12    1    1    2    0    0 -0.11272933451E+02  0.40025089759E+02 -0.17321286303E+02  0.45045685675E+02  0.00000000000E+00 0. -1.
         11    1    3    3    0    0  0.54342856859E+01 -0.22138586507E+02  0.12900696170E+02  0.26193060825E+02  0.51100000000E-03 0. -1.
        -11    1    3    3    0    0  0.63093964139E+01 -0.12190518667E+02  0.34309324918E+01  0.14148799472E+02  0.51100000000E-03 0.  1.
         12    1    3    3    0    0 -0.47074864887E+00 -0.56959845847E+01  0.98965764079E+00  0.58004540275E+01  0.00000000000E+00 0. -1.
</event>
<event>
 7    1  0.2353206E-008  0.4614232E+02  0.7816164E-02  0.1320468E+00
        -11   -1    0    0    0    0  0.00000000000E+00  0.00000000000E+00  0.45593999997E+02  0.45594000000E+02  0.51100000000E-03 0. -1.
         11   -1    0    0    0    0 -0.00000000000E+00 -0.00000000000E+00 -0.45593999997E+02  0.45594000000E+02  0.51100000000E-03 0.  1.
    9900012    2    1    2    0    0  0.24146045985E+02 -0.31036637836E+02 -0.21972914393E+02  0.46142318833E+02  0.10000009776E+02 0.  0.
         12    1    1    2    0    0 -0.24146045985E+02  0.31036637836E+02  0.21972914393E+02  0.45045681167E+02  0.00000000000E+00 0. -1.
         11    1    3    3    0    0  0.15795108764E+02 -0.18390684470E+02 -0.10285633814E+02  0.26334331193E+02  0.51100000000E-03 0. -1.
        -11    1    3    3    0    0  0.19107749725E+01 -0.12937014007E+00 -0.14800882475E+01  0.24204253986E+01  0.51100000000E-03 0.  1.
        -12    1    3    3    0    0  0.64401622485E+01 -0.12516583226E+02 -0.10207192331E+02  0.17387562242E+02  0.00000000000E+00 0.  1.
</event>
<event>
 7    1  0.2353206E-008  0.4614232E+02  0.7816164E-02  0.1320468E+00
        -11   -1    0    0    0    0  0.00000000000E+00  0.00000000000E+00  0.45593999997E+02  0.45594000000E+02  0.51100000000E-03 0.  1.
         11   -1    0    0    0    0 -0.00000000000E+00 -0.00000000000E+00 -0.45593999997E+02  0.45594000000E+02  0.51100000000E-03 0. -1.
    9900012    2    1    2    0    0  0.27991268208E+02  0.16764240968E+02  0.31057409018E+02  0.46142317343E+02  0.99999961849E+01 0.  0.
         12    1    1    2    0    0 -0.27991268208E+02 -0.16764240968E+02 -0.31057409018E+02  0.45045682657E+02  0.00000000000E+00 0. -1.
         11    1    3    3    0    0  0.17780936893E+02  0.13059043264E+02  0.16867536015E+02  0.27770741784E+02  0.51100000000E-03 0. -1.
        -11    1    3    3    0    0  0.98641544742E+01  0.44311538517E+01  0.13594748554E+02  0.17371063769E+02  0.51100000000E-03 0.  1.
        -12    1    3    3    0    0  0.34617684154E+00 -0.72595614687E+00  0.59512444804E+00  0.10005117898E+01  0.00000000000E+00 0.  1.
</event>
<event>
 7    1  0.2353206E-008  0.4614232E+02  0.7816164E-02  0.1320468E+00
        -11   -1    0    0    0    0  0.00000000000E+00  0.00000000000E+00  0.45593999997E+02  0.45594000000E+02  0.51100000000E-03 0. -1.
         11   -1    0    0    0    0 -0.00000000000E+00 -0.00000000000E+00 -0.45593999997E+02  0.45594000000E+02  0.51100000000E-03 0.  1.
    9900012    2    1    2    0    0 -0.41457327074E+02  0.15397513136E+02  0.85627119964E+01  0.46142318569E+02  0.10000007364E+02 0.  0.
         12    1    1    2    0    0  0.41457327074E+02 -0.15397513136E+02 -0.85627119964E+01  0.45045681431E+02  0.00000000000E+00 0. -1.
         11    1    3    3    0    0 -0.61233531661E-01 -0.14091948716E-01 -0.56632099166E+00  0.56979632776E+00  0.51100000000E-03 0. -1.
        -11    1    3    3    0    0 -0.12769957032E+02  0.78405702972E+01  0.41249670003E+01  0.15542255248E+02  0.51100000000E-03 0.  1.
        -12    1    3    3    0    0 -0.28626136510E+02  0.75710347876E+01  0.50040659878E+01  0.30030266993E+02  0.00000000000E+00 0.  1.
</event>
<event>
 7    1  0.2353206E-008  0.4614232E+02  0.7816164E-02  0.1320468E+00
        -11   -1    0    0    0    0  0.00000000000E+00  0.00000000000E+00  0.45593999997E+02  0.45594000000E+02  0.51100000000E-03 0.  1.
         11   -1    0    0    0    0 -0.00000000000E+00 -0.00000000000E+00 -0.45593999997E+02  0.45594000000E+02  0.51100000000E-03 0. -1.
    9900012    2    1    2    0    0  0.40641287485E+02 -0.19392463433E+02 -0.11538789659E+01  0.46142319595E+02  0.10000016722E+02 0.  0.
         12    1    1    2    0    0 -0.40641287485E+02  0.19392463433E+02  0.11538789659E+01  0.45045680405E+02  0.00000000000E+00 0. -1.
         11    1    3    3    0    0  0.40578990587E+01  0.46757525230E+00 -0.71318918867E+00  0.41465419891E+01  0.51100000000E-03 0. -1.
        -11    1    3    3    0    0  0.16397727811E+02 -0.60181419790E+01  0.83213304160E+00  0.17487022499E+02  0.51100000000E-03 0.  1.
        -12    1    3    3    0    0  0.20185660616E+02 -0.13841896707E+02 -0.12728228188E+01  0.24508755107E+02  0.00000000000E+00 0.  1.
</event>
<event>
 7    1  0.2353206E-008  0.4614232E+02  0.7816164E-02  0.1320468E+00
        -11   -1    0    0    0    0  0.00000000000E+00  0.00000000000E+00  0.45593999997E+02  0.45594000000E+02  0.51100000000E-03 0. -1.
         11   -1    0    0    0    0 -0.00000000000E+00 -0.00000000000E+00 -0.45593999997E+02  0.45594000000E+02  0.51100000000E-03 0.  1.
    9900012    2    1    2    0    0 -0.11257285309E+02  0.12147101645E+02 -0.41890749084E+02  0.46142318634E+02  0.10000007956E+02 0.  0.
         12    1    1    2    0    0  0.11257285309E+02 -0.12147101645E+02  0.41890749084E+02  0.45045681366E+02  0.00000000000E+00 0. -1.
         11    1    3    3    0    0 -0.75196237863E+00 -0.73919860824E+00 -0.62606946688E+01  0.63488707656E+01  0.51100000000E-03 0. -1.
        -11    1    3    3    0    0 -0.34095087841E+01  0.10625723423E+01 -0.44918810132E+01  0.57385368719E+01  0.51100000000E-03 0.  1.
        -12    1    3    3    0    0 -0.70958141465E+01  0.11823727911E+02 -0.31138173402E+02  0.34054910996E+02  0.00000000000E+00 0.  1.
</event>
<event>
 7    1  0.2353206E-008  0.4614232E+02  0.7816164E-02  0.1320468E+00
        -11   -1    0    0    0    0  0.00000000000E+00  0.00000000000E+00  0.45593999997E+02  0.45594000000E+02  0.51100000000E-03 0.  1.
         11   -1    0    0    0    0 -0.00000000000E+00 -0.00000000000E+00 -0.45593999997E+02  0.45594000000E+02  0.51100000000E-03 0. -1.
    9900012    2    1    2    0    0  0.16524810118E+02 -0.23614516054E+02  0.34617898446E+02  0.46142316403E+02  0.99999876181E+01 0.  0.
         12    1    1    2    0    0 -0.16524810118E+02  0.23614516054E+02 -0.34617898446E+02  0.45045683597E+02  0.00000000000E+00 0. -1.
         11    1    3    3    0    0  0.17902347897E+01 -0.35227981964E+01  0.20779559536E+01  0.44646331251E+01  0.51100000000E-03 0. -1.
        -11    1    3    3    0    0  0.10131197769E+02 -0.16380439458E+02  0.19748090173E+02  0.27585268366E+02  0.51100000000E-03 0.  1.
        -12    1    3    3    0    0  0.46033775594E+01 -0.37112783996E+01  0.12791852319E+02  0.14092414912E+02  0.00000000000E+00 0.  1.
</event>
<event>
 7    1  0.2353206E-008  0.4614232E+02  0.7816164E-02  0.1320468E+00
        -11   -1    0    0    0    0  0.00000000000E+00  0.00000000000E+00  0.45593999997E+02  0.45594000000E+02  0.51100000000E-03 0.  1.
         11   -1    0    0    0    0 -0.00000000000E+00 -0.00000000000E+00 -0.45593999997E+02  0.45594000000E+02  0.51100000000E-03 0. -1.
    9900012    2    1    2    0    0 -0.17796119560E+02  0.38478253198E+02  0.15226151255E+02  0.46142317381E+02  0.99999965330E+01 0.  0.
         12    1    1    2    0    0  0.17796119560E+02 -0.38478253198E+02 -0.15226151255E+02  0.45045682619E+02  0.00000000000E+00 0. -1.
         11    1    3    3    0    0 -0.79422381983E+01  0.17757336255E+02  0.39047802246E+01  0.19840600982E+02  0.51100000000E-03 0. -1.
        -11    1    3    3    0    0 -0.95211949579E+01  0.16175138935E+02  0.70336185617E+01  0.20043953286E+02  0.51100000000E-03 0.  1.
         12    1    3    3    0    0 -0.33268640388E+00  0.45457780082E+01  0.42877524689E+01  0.62577631130E+01  0.00000000000E+00 0. -1.
</event>
<event>
 7    1  0.2353206E-008  0.4614232E+02  0.7816164E-02  0.1320468E+00
        -11   -1    0    0    0    0  0.00000000000E+00  0.00000000000E+00  0.45593999997E+02  0.45594000000E+02  0.51100000000E-03 0.  1.
         11   -1    0    0    0    0 -0.00000000000E+00 -0.00000000000E+00 -0.45593999997E+02  0.45594000000E+02  0.51100000000E-03 0. -1.
    9900012    2    1    2    0    0 -0.93065497936E+01  0.44055949095E+02 -0.12550249667E+01  0.46142316440E+02  0.99999879527E+01 0.  0.
         12    1    1    2    0    0  0.93065497936E+01 -0.44055949095E+02  0.12550249667E+01  0.45045683560E+02  0.00000000000E+00 0. -1.
         11    1    3    3    0    0 -0.21575499300E+01  0.14475280759E+02  0.39894361288E+01  0.15169191661E+02  0.51100000000E-03 0. -1.
        -11    1    3    3    0    0 -0.35390413585E+01  0.16867813417E+02 -0.18886931557E+01  0.17338255544E+02  0.51100000000E-03 0.  1.
         12    1    3    3    0    0 -0.36099585051E+01  0.12712854919E+02 -0.33557679397E+01  0.13634869236E+02  0.00000000000E+00 0. -1.
</event>
<event>
 7    1  0.2353206E-008  0.4614232E+02  0.7816164E-02  0.1320468E+00
        -11   -1    0    0    0    0  0.00000000000E+00  0.00000000000E+00  0.45593999997E+02  0.45594000000E+02  0.51100000000E-03 0.  1.
         11   -1    0    0    0    0 -0.00000000000E+00 -0.00000000000E+00 -0.45593999997E+02  0.45594000000E+02  0.51100000000E-03 0. -1.
    9900012    2    1    2    0    0  0.77246292236E+01 -0.40960760167E+02  0.17078047417E+02  0.46142317924E+02  0.10000001485E+02 0.  0.
         12    1    1    2    0    0 -0.77246292236E+01  0.40960760167E+02 -0.17078047417E+02  0.45045682076E+02  0.00000000000E+00 0. -1.
         11    1    3    3    0    0  0.32694282789E+01 -0.12417959036E+02  0.68771384310E+01  0.14566739551E+02  0.51100000000E-03 0. -1.
        -11    1    3    3    0    0  0.62915012696E+01 -0.17280495992E+02  0.51574450459E+01  0.19099679830E+02  0.51100000000E-03 0.  1.
        -12    1    3    3    0    0 -0.18363003248E+01 -0.11262305140E+02  0.50434639398E+01  0.12475898543E+02  0.00000000000E+00 0.  1.
</event>
<event>
 7    1  0.2353206E-008  0.4614232E+02  0.7816164E-02  0.1320468E+00
        -11   -1    0    0    0    0  0.00000000000E+00  0.00000000000E+00  0.45593999997E+02  0.45594000000E+02  0.51100000000E-03 0.  1.
         11   -1    0    0    0    0 -0.00000000000E+00 -0.00000000000E+00 -0.45593999997E+02  0.45594000000E+02  0.51100000000E-03 0. -1.
    9900012    2    1    2    0    0 -0.36102220264E+02 -0.17907787129E+02 -0.20125959938E+02  0.46142318617E+02  0.10000007801E+02 0.  0.
         12    1    1    2    0    0  0.36102220264E+02  0.17907787129E+02  0.20125959938E+02  0.45045681383E+02  0.00000000000E+00 0. -1.
         11    1    3    3    0    0 -0.10845009191E+02 -0.11762982665E+01 -0.50365903718E+01  0.12015204734E+02  0.51100000000E-03 0. -1.
        -11    1    3    3    0    0 -0.86185698070E+01 -0.33261439874E+01 -0.42760102736E+01  0.10179746729E+02  0.51100000000E-03 0.  1.
         12    1    3    3    0    0 -0.16638641266E+02 -0.13405344875E+02 -0.10813359293E+02  0.23947367154E+02  0.00000000000E+00 0. -1.
</event>
<event>
 7    1  0.2353206E-008  0.4614232E+02  0.7816164E-02  0.1320468E+00
        -11   -1    0    0    0    0  0.00000000000E+00  0.00000000000E+00  0.45593999997E+02  0.45594000000E+02  0.51100000000E-03 0.  1.
         11   -1    0    0    0    0 -0.00000000000E+00 -0.00000000000E+00 -0.45593999997E+02  0.45594000000E+02  0.51100000000E-03 0. -1.
    9900012    2    1    2    0    0 -0.24776450631E+02  0.12222497586E+02  0.35578807510E+02  0.46142317666E+02  0.99999991366E+01 0.  0.
         12    1    1    2    0    0  0.24776450631E+02 -0.12222497586E+02 -0.35578807510E+02  0.45045682334E+02  0.00000000000E+00 0. -1.
         11    1    3    3    0    0 -0.61389813303E+01  0.59806348677E+01  0.69695049211E+01  0.11046677523E+02  0.51100000000E-03 0.  1.
        -11    1    3    3    0    0 -0.73259851482E+00  0.46409708167E+00  0.41385062621E+01  0.42283946159E+01  0.51100000000E-03 0. -1.
        -12    1    3    3    0    0 -0.17904870785E+02  0.57777656366E+01  0.24470796326E+02  0.30867245527E+02  0.00000000000E+00 0.  1.
</event>
<event>
 7    1  0.2353206E-008  0.4614232E+02  0.7816164E-02  0.1320468E+00
        -11   -1    0    0    0    0  0.00000000000E+00  0.00000000000E+00  0.45593999997E+02  0.45594000000E+02  0.51100000000E-03 0.  1.
         11   -1    0    0    0    0 -0.00000000000E+00 -0.00000000000E+00 -0.45593999997E+02  0.45594000000E+02  0.51100000000E-03 0. -1.
    9900012    2    1    2    0    0  0.24915995050E+02 -0.34503411810E+02  0.14758772912E+02  0.46142316369E+02  0.99999873092E+01 0.  0.
         12    1    1    2    0    0 -0.24915995050E+02  0.34503411810E+02 -0.14758772912E+02  0.45045683631E+02  0.00000000000E+00 0. -1.
         11    1    3    3    0    0  0.11600619203E+02 -0.12032493889E+02  0.51777475726E+01  0.17497552551E+02  0.51100000000E-03 0. -1.
        -11    1    3    3    0    0  0.34377617572E+01 -0.26024409891E+01  0.37217187414E+01  0.56957963142E+01  0.51100000000E-03 0.  1.
        -12    1    3    3    0    0  0.98776140897E+01 -0.19868476932E+02  0.58593065977E+01  0.22948967504E+02  0.00000000000E+00 0.  1.
</event>
<event>
 7    1  0.2353206E-008  0.4614232E+02  0.7816164E-02  0.1320468E+00
        -11   -1    0    0    0    0  0.00000000000E+00  0.00000000000E+00  0.45593999997E+02  0.45594000000E+02  0.51100000000E-03 0.  1.
         11   -1    0    0    0    0 -0.00000000000E+00 -0.00000000000E+00 -0.45593999997E+02  0.45594000000E+02  0.51100000000E-03 0. -1.
    9900012    2    1    2    0    0  0.28187207241E+02 -0.27831799991E+02 -0.21447278697E+02  0.46142317562E+02  0.99999981832E+01 0.  0.
         12    1    1    2    0    0 -0.28187207241E+02  0.27831799991E+02  0.21447278697E+02  0.45045682438E+02  0.00000000000E+00 0. -1.
         11    1    3    3    0    0  0.63394079332E+01 -0.29854146733E+01 -0.44069017378E+01  0.82777760843E+01  0.51100000000E-03 0. -1.
        -11    1    3    3    0    0  0.12639325487E+02 -0.18457791669E+02 -0.92089269033E+01  0.24191877915E+02  0.51100000000E-03 0.  1.
         12    1    3    3    0    0  0.92084738215E+01 -0.63885936485E+01 -0.78314500560E+01  0.13672663563E+02  0.00000000000E+00 0. -1.
</event>
<event>
 7    1  0.2353206E-008  0.4614232E+02  0.7816164E-02  0.1320468E+00
        -11   -1    0    0    0    0  0.00000000000E+00  0.00000000000E+00  0.45593999997E+02  0.45594000000E+02  0.51100000000E-03 0. -1.
         11   -1    0    0    0    0 -0.00000000000E+00 -0.00000000000E+00 -0.45593999997E+02  0.45594000000E+02  0.51100000000E-03 0.  1.
    9900012    2    1    2    0    0 -0.41027674173E+02  0.11234651151E+02  0.14819787726E+02  0.46142317157E+02  0.99999944893E+01 0.  0.
         12    1    1    2    0    0  0.41027674173E+02 -0.11234651151E+02 -0.14819787726E+02  0.45045682843E+02  0.00000000000E+00 0. -1.
         11    1    3    3    0    0 -0.14899877579E+01 -0.44755169894E+00 -0.30882223035E+00  0.15861076486E+01  0.51100000000E-03 0. -1.
        -11    1    3    3    0    0 -0.25461444117E+02  0.84634275992E+01  0.60663394049E+01  0.27508457195E+02  0.51100000000E-03 0.  1.
        -12    1    3    3    0    0 -0.14076242299E+02  0.32187752509E+01  0.90622705513E+01  0.17047752313E+02  0.00000000000E+00 0.  1.
</event>
<event>
 7    1  0.2353206E-008  0.4614232E+02  0.7816164E-02  0.1320468E+00
        -11   -1    0    0    0    0  0.00000000000E+00  0.00000000000E+00  0.45593999997E+02  0.45594000000E+02  0.51100000000E-03 0. -1.
         11   -1    0    0    0    0 -0.00000000000E+00 -0.00000000000E+00 -0.45593999997E+02  0.45594000000E+02  0.51100000000E-03 0.  1.
    9900012    2    1    2    0    0 -0.40175495059E+02 -0.10360544782E+02 -0.17541440355E+02  0.46142318507E+02  0.10000006805E+02 0.  0.
         12    1    1    2    0    0  0.40175495059E+02  0.10360544782E+02  0.17541440355E+02  0.45045681493E+02  0.00000000000E+00 0. -1.
         11    1    3    3    0    0 -0.20891171176E+01 -0.89698878107E+00 -0.20877148766E+01  0.30866734313E+01  0.51100000000E-03 0.  1.
        -11    1    3    3    0    0  0.60601597636E-01 -0.16464987815E+00 -0.13102895994E+01  0.13219838242E+01  0.51100000000E-03 0. -1.
        -12    1    3    3    0    0 -0.38146979539E+02 -0.92989061226E+01 -0.14143435879E+02  0.41733661252E+02  0.00000000000E+00 0.  1.
</event>
<event>
 7    1  0.2353206E-008  0.4614232E+02  0.7816164E-02  0.1320468E+00
        -11   -1    0    0    0    0  0.00000000000E+00  0.00000000000E+00  0.45593999997E+02  0.45594000000E+02  0.51100000000E-03 0.  1.
         11   -1    0    0    0    0 -0.00000000000E+00 -0.00000000000E+00 -0.45593999997E+02  0.45594000000E+02  0.51100000000E-03 0. -1.
    9900012    2    1    2    0    0  0.41154806128E+01  0.35550920046E+02  0.27355225364E+02  0.46142318171E+02  0.10000003736E+02 0.  0.
         12    1    1    2    0    0 -0.41154806128E+01 -0.35550920046E+02 -0.27355225364E+02  0.45045681829E+02  0.00000000000E+00 0. -1.
         11    1    3    3    0    0  0.93061316739E+00  0.95146203494E+01  0.12918014059E+02  0.16070753833E+02  0.51100000000E-03 0. -1.
        -11    1    3    3    0    0  0.24414582384E+00  0.57267475140E+00 -0.55982887537E-01  0.62505831648E+00  0.51100000000E-03 0.  1.
        -12    1    3    3    0    0  0.29407216216E+01  0.25463624945E+02  0.14493194192E+02  0.29446506022E+02  0.00000000000E+00 0.  1.
</event>
<event>
 7    1  0.2353206E-008  0.4614232E+02  0.7816164E-02  0.1320468E+00
        -11   -1    0    0    0    0  0.00000000000E+00  0.00000000000E+00  0.45593999997E+02  0.45594000000E+02  0.51100000000E-03 0.  1.
         11   -1    0    0    0    0 -0.00000000000E+00 -0.00000000000E+00 -0.45593999997E+02  0.45594000000E+02  0.51100000000E-03 0. -1.
    9900012    2    1    2    0    0 -0.27154201070E+02  0.25244463823E+00  0.35940215016E+02  0.46142318526E+02  0.10000006974E+02 0.  0.
         12    1    1    2    0    0  0.27154201070E+02 -0.25244463823E+00 -0.35940215016E+02  0.45045681474E+02  0.00000000000E+00 0. -1.
         11    1    3    3    0    0 -0.50420595287E+01  0.18290336123E+01  0.91586866332E+01  0.10613636010E+02  0.51100000000E-03 0. -1.
        -11    1    3    3    0    0 -0.46841881388E+01  0.63318906507E+00  0.10760265208E+02  0.11752695627E+02  0.51100000000E-03 0.  1.
        -12    1    3    3    0    0 -0.17427953403E+02 -0.22097780391E+01  0.16021263176E+02  0.23775986889E+02  0.00000000000E+00 0.  1.
</event>
<event>
 7    1  0.2353206E-008  0.4614231E+02  0.7816164E-02  0.1320468E+00
        -11   -1    0    0    0    0  0.00000000000E+00  0.00000000000E+00  0.45593999997E+02  0.45594000000E+02  0.51100000000E-03 0. -1.
         11   -1    0    0    0    0 -0.00000000000E+00 -0.00000000000E+00 -0.45593999997E+02  0.45594000000E+02  0.51100000000E-03 0.  1.
    9900012    2    1    2    0    0 -0.20731418171E+02  0.20025382525E+02 -0.34616559235E+02  0.46142314103E+02  0.99999666445E+01 0.  0.
         12    1    1    2    0    0  0.20731418171E+02 -0.20025382525E+02  0.34616559235E+02  0.45045685897E+02  0.00000000000E+00 0. -1.
         11    1    3    3    0    0 -0.26011656994E+01  0.25504073398E+01 -0.92785838151E+01  0.99680870015E+01  0.51100000000E-03 0. -1.
        -11    1    3    3    0    0 -0.69456622937E+01  0.66004861616E+01 -0.13670249835E+02  0.16693842370E+02  0.51100000000E-03 0.  1.
         12    1    3    3    0    0 -0.11184590178E+02  0.10874489023E+02 -0.11667725585E+02  0.19480384732E+02  0.00000000000E+00 0. -1.
</event>
<event>
 7    1  0.2353206E-008  0.4614232E+02  0.7816164E-02  0.1320468E+00
        -11   -1    0    0    0    0  0.00000000000E+00  0.00000000000E+00  0.45593999997E+02  0.45594000000E+02  0.51100000000E-03 0.  1.
         11   -1    0    0    0    0 -0.00000000000E+00 -0.00000000000E+00 -0.45593999997E+02  0.45594000000E+02  0.51100000000E-03 0. -1.
    9900012    2    1    2    0    0 -0.11694197290E+02  0.41539864543E+02  0.12915055764E+02  0.46142320275E+02  0.10000022926E+02 0.  0.
         12    1    1    2    0    0  0.11694197290E+02 -0.41539864543E+02 -0.12915055764E+02  0.45045679725E+02  0.00000000000E+00 0. -1.
         11    1    3    3    0    0  0.14625804882E+01  0.50605387664E+01  0.22183157760E+01  0.57156906349E+01  0.51100000000E-03 0. -1.
        -11    1    3    3    0    0 -0.51281884217E+01  0.11097263825E+02  0.49672707153E+01  0.13195505277E+02  0.51100000000E-03 0.  1.
         12    1    3    3    0    0 -0.80285893563E+01  0.25382061951E+02  0.57294692726E+01  0.27231124363E+02  0.00000000000E+00 0. -1.
</event>
<event>
 7    1  0.2353206E-008  0.4614232E+02  0.7816164E-02  0.1320468E+00
        -11   -1    0    0    0    0  0.00000000000E+00  0.00000000000E+00  0.45593999997E+02  0.45594000000E+02  0.51100000000E-03 0.  1.
         11   -1    0    0    0    0 -0.00000000000E+00 -0.00000000000E+00 -0.45593999997E+02  0.45594000000E+02  0.51100000000E-03 0. -1.
    9900012    2    1    2    0    0 -0.63212407148E+01  0.10277955439E+02  0.43399527608E+02  0.46142318201E+02  0.10000004008E+02 0.  0.
         12    1    1    2    0    0  0.63212407148E+01 -0.10277955439E+02 -0.43399527608E+02  0.45045681799E+02  0.00000000000E+00 0. -1.
         11    1    3    3    0    0 -0.18842250877E+01  0.21962084485E+01  0.19538704687E+02  0.19751825658E+02  0.51100000000E-03 0. -1.
        -11    1    3    3    0    0 -0.21495419485E+01  0.57287727392E+00  0.11747119974E+02  0.11955900088E+02  0.51100000000E-03 0.  1.
        -12    1    3    3    0    0 -0.22874736785E+01  0.75088697163E+01  0.12113702947E+02  0.14434592455E+02  0.00000000000E+00 0.  1.
</event>
<event>
 7    1  0.2353206E-008  0.4614232E+02  0.7816164E-02  0.1320468E+00
        -11   -1    0    0    0    0  0.00000000000E+00  0.00000000000E+00  0.45593999997E+02  0.45594000000E+02  0.51100000000E-03 0.  1.
         11   -1    0    0    0    0 -0.00000000000E+00 -0.00000000000E+00 -0.45593999997E+02  0.45594000000E+02  0.51100000000E-03 0. -1.
    9900012    2    1    2    0    0 -0.12726890996E+01  0.16468490429E+02  0.41908024424E+02  0.46142318457E+02  0.10000006349E+02 0.  0.
         12    1    1    2    0    0  0.12726890996E+01 -0.16468490429E+02 -0.41908024424E+02  0.45045681543E+02  0.00000000000E+00 0. -1.
         11    1    3    3    0    0  0.11549629945E+01  0.62380001340E+01  0.89110174837E+01  0.10938593056E+02  0.51100000000E-03 0. -1.
        -11    1    3    3    0    0 -0.26789002608E+00  0.14217725618E+01  0.14811999688E+02  0.14882490964E+02  0.51100000000E-03 0.  1.
        -12    1    3    3    0    0 -0.21597620681E+01  0.88087177332E+01  0.18185007252E+02  0.20321234437E+02  0.00000000000E+00 0.  1.
</event>
<event>
 7    1  0.2353206E-008  0.4614232E+02  0.7816164E-02  0.1320468E+00
        -11   -1    0    0    0    0  0.00000000000E+00  0.00000000000E+00  0.45593999997E+02  0.45594000000E+02  0.51100000000E-03 0.  1.
         11   -1    0    0    0    0 -0.00000000000E+00 -0.00000000000E+00 -0.45593999997E+02  0.45594000000E+02  0.51100000000E-03 0. -1.
    9900012    2    1    2    0    0 -0.35179883427E+02 -0.18932019447E+01  0.28069647186E+02  0.46142317580E+02  0.99999983446E+01 0.  0.
         12    1    1    2    0    0  0.35179883427E+02  0.18932019447E+01 -0.28069647186E+02  0.45045682420E+02  0.00000000000E+00 0. -1.
         11    1    3    3    0    0 -0.63622525153E+01 -0.50742750516E+00  0.62858693258E+01  0.89581188418E+01  0.51100000000E-03 0. -1.
        -11    1    3    3    0    0 -0.22339634636E+02  0.12342555728E+01  0.12710812070E+02  0.25732225054E+02  0.51100000000E-03 0.  1.
         12    1    3    3    0    0 -0.64779962759E+01 -0.26200300123E+01  0.90729657908E+01  0.11451973684E+02  0.00000000000E+00 0. -1.
</event>
<event>
 7    1  0.2353206E-008  0.4614232E+02  0.7816164E-02  0.1320468E+00
        -11   -1    0    0    0    0  0.00000000000E+00  0.00000000000E+00  0.45593999997E+02  0.45594000000E+02  0.51100000000E-03 0.  1.
         11   -1    0    0    0    0 -0.00000000000E+00 -0.00000000000E+00 -0.45593999997E+02  0.45594000000E+02  0.51100000000E-03 0. -1.
    9900012    2    1    2    0    0  0.84734082378E+01  0.49439093256E+01  0.43964447310E+02  0.46142317478E+02  0.99999974159E+01 0.  0.
         12    1    1    2    0    0 -0.84734082378E+01 -0.49439093256E+01 -0.43964447310E+02  0.45045682522E+02  0.00000000000E+00 0. -1.
         11    1    3    3    0    0 -0.35743753752E+00  0.45225653021E+00  0.55554866309E+01  0.55853137360E+01  0.51100000000E-03 0. -1.
        -11    1    3    3    0    0  0.17839861378E+01  0.40103384202E+01  0.62866205531E+01  0.76672693329E+01  0.51100000000E-03 0.  1.
         12    1    3    3    0    0  0.70468596374E+01  0.48131437515E+00  0.32122340127E+02  0.32889734409E+02  0.00000000000E+00 0. -1.
</event>
<event>
 7    1  0.2353206E-008  0.4614232E+02  0.7816164E-02  0.1320468E+00
        -11   -1    0    0    0    0  0.00000000000E+00  0.00000000000E+00  0.45593999997E+02  0.45594000000E+02  0.51100000000E-03 0. -1.
         11   -1    0    0    0    0 -0.00000000000E+00 -0.00000000000E+00 -0.45593999997E+02  0.45594000000E+02  0.51100000000E-03 0.  1.
    9900012    2    1    2    0    0 -0.40423704281E+02  0.19875446486E+02  0.65040921073E-01  0.46142317952E+02  0.10000001740E+02 0.  0.
         12    1    1    2    0    0  0.40423704281E+02 -0.19875446486E+02 -0.65040921073E-01  0.45045682048E+02  0.00000000000E+00 0. -1.
         11    1    3    3    0    0 -0.12844409880E+02  0.60523813064E+01  0.54159084930E+00  0.14209275335E+02  0.51100000000E-03 0. -1.
        -11    1    3    3    0    0 -0.18802091367E+02  0.85901975206E+01  0.35041037496E+01  0.20966374903E+02  0.51100000000E-03 0.  1.
         12    1    3    3    0    0 -0.87772030344E+01  0.52328676591E+01 -0.39806536778E+01  0.10966667714E+02  0.00000000000E+00 0. -1.
</event>
<event>
 7    1  0.2353206E-008  0.4614232E+02  0.7816164E-02  0.1320468E+00
        -11   -1    0    0    0    0  0.00000000000E+00  0.00000000000E+00  0.45593999997E+02  0.45594000000E+02  0.51100000000E-03 0.  1.
         11   -1    0    0    0    0 -0.00000000000E+00 -0.00000000000E+00 -0.45593999997E+02  0.45594000000E+02  0.51100000000E-03 0. -1.
    9900012    2    1    2    0    0  0.10406713190E+02 -0.67635226957E+01  0.43302062308E+02  0.46142317424E+02  0.99999969234E+01 0.  0.
         12    1    1    2    0    0 -0.10406713190E+02  0.67635226957E+01 -0.43302062308E+02  0.45045682576E+02  0.00000000000E+00 0. -1.
         11    1    3    3    0    0  0.38347310221E+01 -0.67117639695E+01  0.20910529321E+02  0.22293568004E+02  0.51100000000E-03 0. -1.
        -11    1    3    3    0    0  0.60946369637E+01  0.11393688769E+00  0.22517502520E+02  0.23327998228E+02  0.51100000000E-03 0.  1.
        -12    1    3    3    0    0  0.47734520423E+00 -0.16569561390E+00 -0.12596953335E+00  0.52075119184E+00  0.00000000000E+00 0.  1.
</event>
<event>
 7    1  0.2353206E-008  0.4614232E+02  0.7816164E-02  0.1320468E+00
        -11   -1    0    0    0    0  0.00000000000E+00  0.00000000000E+00  0.45593999997E+02  0.45594000000E+02  0.51100000000E-03 0.  1.
         11   -1    0    0    0    0 -0.00000000000E+00 -0.00000000000E+00 -0.45593999997E+02  0.45594000000E+02  0.51100000000E-03 0. -1.
    9900012    2    1    2    0    0  0.32796693898E+02 -0.42325206896E+01  0.30587189077E+02  0.46142317658E+02  0.99999990629E+01 0.  0.
         12    1    1    2    0    0 -0.32796693898E+02  0.42325206896E+01 -0.30587189077E+02  0.45045682342E+02  0.00000000000E+00 0. -1.
         11    1    3    3    0    0  0.16791318370E+01  0.26102502752E+00  0.35004069538E+00  0.17349773890E+01  0.51100000000E-03 0. -1.
        -11    1    3    3    0    0  0.42450248877E+01 -0.33315947280E+01  0.71662544548E+01  0.89707838510E+01  0.51100000000E-03 0.  1.
        -12    1    3    3    0    0  0.26872537173E+02 -0.11619509891E+01  0.23070893927E+02  0.35436556418E+02  0.00000000000E+00 0.  1.
</event>
<event>
 7    1  0.2353206E-008  0.4614232E+02  0.7816164E-02  0.1320468E+00
        -11   -1    0    0    0    0  0.00000000000E+00  0.00000000000E+00  0.45593999997E+02  0.45594000000E+02  0.51100000000E-03 0.  1.
         11   -1    0    0    0    0 -0.00000000000E+00 -0.00000000000E+00 -0.45593999997E+02  0.45594000000E+02  0.51100000000E-03 0. -1.
    9900012    2    1    2    0    0  0.71948325200E+01 -0.34716430388E+02  0.27787003619E+02  0.46142315145E+02  0.99999761476E+01 0.  0.
         12    1    1    2    0    0 -0.71948325200E+01  0.34716430388E+02 -0.27787003619E+02  0.45045684855E+02  0.00000000000E+00 0. -1.
         11    1    3    3    0    0  0.17522582107E+01 -0.17204328107E+01  0.31722792298E+01  0.40116896273E+01  0.51100000000E-03 0. -1.
        -11    1    3    3    0    0  0.45328008037E+01 -0.20073979869E+02  0.10987647600E+02  0.23328938058E+02  0.51100000000E-03 0.  1.
        -12    1    3    3    0    0  0.90977350560E+00 -0.12922017709E+02  0.13627076790E+02  0.18801687460E+02  0.00000000000E+00 0.  1.
</event>
<event>
 7    1  0.2353206E-008  0.4614232E+02  0.7816164E-02  0.1320468E+00
        -11   -1    0    0    0    0  0.00000000000E+00  0.00000000000E+00  0.45593999997E+02  0.45594000000E+02  0.51100000000E-03 0.  1.
         11   -1    0    0    0    0 -0.00000000000E+00 -0.00000000000E+00 -0.45593999997E+02  0.45594000000E+02  0.51100000000E-03 0. -1.
    9900012    2    1    2    0    0  0.12870858026E+02  0.32142364871E+02  0.28815325151E+02  0.46142316862E+02  0.99999917989E+01 0.  0.
         12    1    1    2    0    0 -0.12870858026E+02 -0.32142364871E+02 -0.28815325151E+02  0.45045683138E+02  0.00000000000E+00 0. -1.
         11    1    3    3    0    0  0.10585113773E+02  0.18397336717E+02  0.19147283877E+02  0.28585400329E+02  0.51100000000E-03 0.  1.
        -11    1    3    3    0    0  0.36662699699E+01  0.91931446144E+01  0.66393840986E+01  0.11917922003E+02  0.51100000000E-03 0. -1.
        -12    1    3    3    0    0 -0.13805257176E+01  0.45518835400E+01  0.30286571755E+01  0.56389945296E+01  0.00000000000E+00 0.  1.
</event>
<event>
 7    1  0.2353206E-008  0.4614232E+02  0.7816164E-02  0.1320468E+00
        -11   -1    0    0    0    0  0.00000000000E+00  0.00000000000E+00  0.45593999997E+02  0.45594000000E+02  0.51100000000E-03 0.  1.
         11   -1    0    0    0    0 -0.00000000000E+00 -0.00000000000E+00 -0.45593999997E+02  0.45594000000E+02  0.51100000000E-03 0. -1.
    9900012    2    1    2    0    0  0.34289276322E+02 -0.29053249116E+02 -0.30443107454E+01  0.46142316713E+02  0.99999904394E+01 0.  0.
         12    1    1    2    0    0 -0.34289276322E+02  0.29053249116E+02  0.30443107454E+01  0.45045683287E+02  0.00000000000E+00 0. -1.
         11    1    3    3    0    0  0.29418051917E+01 -0.84123977745E+00  0.50278996861E+00  0.31007579981E+01  0.51100000000E-03 0. -1.
        -11    1    3    3    0    0  0.22186756958E+02 -0.15523019301E+02 -0.41577486697E+00  0.27081159162E+02  0.51100000000E-03 0.  1.
         12    1    3    3    0    0  0.91607141724E+01 -0.12688990038E+02 -0.31313258471E+01  0.15960399553E+02  0.00000000000E+00 0. -1.
</event>
<event>
 7    1  0.2353206E-008  0.4614232E+02  0.7816164E-02  0.1320468E+00
        -11   -1    0    0    0    0  0.00000000000E+00  0.00000000000E+00  0.45593999997E+02  0.45594000000E+02  0.51100000000E-03 0. -1.
         11   -1    0    0    0    0 -0.00000000000E+00 -0.00000000000E+00 -0.45593999997E+02  0.45594000000E+02  0.51100000000E-03 0.  1.
    9900012    2    1    2    0    0 -0.15105425293E+01  0.40193890906E+02 -0.20280109617E+02  0.46142318176E+02  0.10000003782E+02 0.  0.
         12    1    1    2    0    0  0.15105425293E+01 -0.40193890906E+02  0.20280109617E+02  0.45045681824E+02  0.00000000000E+00 0. -1.
         11    1    3    3    0    0  0.13784303832E+01  0.36443932660E+01 -0.18817394798E+01  0.43269638697E+01  0.51100000000E-03 0. -1.
        -11    1    3    3    0    0 -0.32173334817E+01  0.10924231047E+02 -0.90138429788E+01  0.14523753792E+02  0.51100000000E-03 0.  1.
        -12    1    3    3    0    0  0.32836056911E+00  0.25625266593E+02 -0.93845271582E+01  0.27291600514E+02  0.00000000000E+00 0.  1.
</event>
<event>
 7    1  0.2353206E-008  0.4614232E+02  0.7816164E-02  0.1320468E+00
        -11   -1    0    0    0    0  0.00000000000E+00  0.00000000000E+00  0.45593999997E+02  0.45594000000E+02  0.51100000000E-03 0. -1.
         11   -1    0    0    0    0 -0.00000000000E+00 -0.00000000000E+00 -0.45593999997E+02  0.45594000000E+02  0.51100000000E-03 0.  1.
    9900012    2    1    2    0    0 -0.20464256875E+02  0.33988501636E+02 -0.21333294377E+02  0.46142317611E+02  0.99999986348E+01 0.  0.
         12    1    1    2    0    0  0.20464256875E+02 -0.33988501636E+02  0.21333294377E+02  0.45045682389E+02  0.00000000000E+00 0. -1.
         11    1    3    3    0    0 -0.27536358418E+01  0.26006099260E+01  0.37019014437E+00  0.38056173403E+01  0.51100000000E-03 0. -1.
        -11    1    3    3    0    0 -0.15051718560E+02  0.23931831812E+02 -0.15243268189E+02  0.32119215913E+02  0.51100000000E-03 0.  1.
        -12    1    3    3    0    0 -0.26589024728E+01  0.74560598978E+01 -0.64602163320E+01  0.10217484358E+02  0.00000000000E+00 0.  1.
</event>
<event>
 7    1  0.2353206E-008  0.4614232E+02  0.7816164E-02  0.1320468E+00
        -11   -1    0    0    0    0  0.00000000000E+00  0.00000000000E+00  0.45593999997E+02  0.45594000000E+02  0.51100000000E-03 0.  1.
         11   -1    0    0    0    0 -0.00000000000E+00 -0.00000000000E+00 -0.45593999997E+02  0.45594000000E+02  0.51100000000E-03 0. -1.
    9900012    2    1    2    0    0  0.22218633799E+02 -0.20331385814E+02 -0.33497471273E+02  0.46142317425E+02  0.99999969340E+01 0.  0.
         12    1    1    2    0    0 -0.22218633799E+02  0.20331385814E+02  0.33497471273E+02  0.45045682575E+02  0.00000000000E+00 0. -1.
         11    1    3    3    0    0  0.16462310767E+02 -0.12037893273E+02 -0.21784785159E+02  0.29841169798E+02  0.51100000000E-03 0.  1.
        -11    1    3    3    0    0  0.13556594806E+00  0.44884559480E-01  0.47758885324E+00  0.49848181894E+00  0.51100000000E-03 0. -1.
        -12    1    3    3    0    0  0.56207570839E+01 -0.83383771005E+01 -0.12190274967E+02  0.15802665808E+02  0.00000000000E+00 0.  1.
</event>
<event>
 7    1  0.2353206E-008  0.4614232E+02  0.7816164E-02  0.1320468E+00
        -11   -1    0    0    0    0  0.00000000000E+00  0.00000000000E+00  0.45593999997E+02  0.45594000000E+02  0.51100000000E-03 0.  1.
         11   -1    0    0    0    0 -0.00000000000E+00 -0.00000000000E+00 -0.45593999997E+02  0.45594000000E+02  0.51100000000E-03 0. -1.
    9900012    2    1    2    0    0 -0.12115749735E+02  0.46456912768E+01  0.43136291434E+02  0.46142317878E+02  0.10000001070E+02 0.  0.
         12    1    1    2    0    0  0.12115749735E+02 -0.46456912768E+01 -0.43136291434E+02  0.45045682122E+02  0.00000000000E+00 0. -1.
         11    1    3    3    0    0  0.84345121714E+00 -0.92435500634E-01  0.50482114751E+00  0.98731906168E+00  0.51100000000E-03 0. -1.
        -11    1    3    3    0    0 -0.10308173886E+02  0.20338954600E+01  0.36174317966E+02  0.37669303952E+02  0.51100000000E-03 0.  1.
        -12    1    3    3    0    0 -0.26510270669E+01  0.27042313175E+01  0.64571523204E+01  0.74856948653E+01  0.00000000000E+00 0.  1.
</event>
<event>
 7    1  0.2353206E-008  0.4614232E+02  0.7816164E-02  0.1320468E+00
        -11   -1    0    0    0    0  0.00000000000E+00  0.00000000000E+00  0.45593999997E+02  0.45594000000E+02  0.51100000000E-03 0.  1.
         11   -1    0    0    0    0 -0.00000000000E+00 -0.00000000000E+00 -0.45593999997E+02  0.45594000000E+02  0.51100000000E-03 0. -1.
    9900012    2    1    2    0    0  0.25192401686E+02  0.29000980700E+02  0.23524443493E+02  0.46142318454E+02  0.10000006316E+02 0.  0.
         12    1    1    2    0    0 -0.25192401686E+02 -0.29000980700E+02 -0.23524443493E+02  0.45045681546E+02  0.00000000000E+00 0. -1.
         11    1    3    3    0    0  0.15931583869E+02  0.18405707032E+02  0.20127223713E+02  0.31586239893E+02  0.51100000000E-03 0. -1.
        -11    1    3    3    0    0  0.17527790376E+01  0.27794607539E+01  0.39150190226E+00  0.33092159853E+01  0.51100000000E-03 0.  1.
         12    1    3    3    0    0  0.75080387803E+01  0.78158129138E+01  0.30057178784E+01  0.11246862576E+02  0.00000000000E+00 0. -1.
</event>
<event>
 7    1  0.2353206E-008  0.4614232E+02  0.7816164E-02  0.1320468E+00
        -11   -1    0    0    0    0  0.00000000000E+00  0.00000000000E+00  0.45593999997E+02  0.45594000000E+02  0.51100000000E-03 0.  1.
         11   -1    0    0    0    0 -0.00000000000E+00 -0.00000000000E+00 -0.45593999997E+02  0.45594000000E+02  0.51100000000E-03 0. -1.
    9900012    2    1    2    0    0  0.36097870820E+01  0.69463433103E+01  0.44360243256E+02  0.46142318411E+02  0.10000005922E+02 0.  0.
         12    1    1    2    0    0 -0.36097870820E+01 -0.69463433103E+01 -0.44360243256E+02  0.45045681589E+02  0.00000000000E+00 0. -1.
         11    1    3    3    0    0  0.44084085518E+00  0.23075842587E+01  0.12214604606E+02  0.12438482694E+02  0.51100000000E-03 0. -1.
        -11    1    3    3    0    0 -0.75588306463E-01  0.56431843049E+01  0.26668087764E+02  0.27258726088E+02  0.51100000000E-03 0.  1.
         12    1    3    3    0    0  0.32445345333E+01 -0.10044252533E+01  0.54775508850E+01  0.64451096286E+01  0.00000000000E+00 0. -1.
</event>
<event>
 7    1  0.2353206E-008  0.4614232E+02  0.7816164E-02  0.1320468E+00
        -11   -1    0    0    0    0  0.00000000000E+00  0.00000000000E+00  0.45593999997E+02  0.45594000000E+02  0.51100000000E-03 0.  1.
         11   -1    0    0    0    0 -0.00000000000E+00 -0.00000000000E+00 -0.45593999997E+02  0.45594000000E+02  0.51100000000E-03 0. -1.
    9900012    2    1    2    0    0  0.34154973659E+02  0.66619786346E+00  0.29361665416E+02  0.46142318284E+02  0.10000004766E+02 0.  0.
         12    1    1    2    0    0 -0.34154973659E+02 -0.66619786346E+00 -0.29361665416E+02  0.45045681716E+02  0.00000000000E+00 0. -1.
         11    1    3    3    0    0  0.19360327579E+02  0.39277340843E+01  0.12661431210E+02  0.23464040989E+02  0.51100000000E-03 0. -1.
        -11    1    3    3    0    0  0.76837283209E+01 -0.19399611752E+01  0.69664510379E+01  0.10551519824E+02  0.51100000000E-03 0.  1.
         12    1    3    3    0    0  0.71109177598E+01 -0.13215750456E+01  0.97337831679E+01  0.12126757470E+02  0.00000000000E+00 0. -1.
</event>
<event>
 7    1  0.2353206E-008  0.4614232E+02  0.7816164E-02  0.1320468E+00
        -11   -1    0    0    0    0  0.00000000000E+00  0.00000000000E+00  0.45593999997E+02  0.45594000000E+02  0.51100000000E-03 0.  1.
         11   -1    0    0    0    0 -0.00000000000E+00 -0.00000000000E+00 -0.45593999997E+02  0.45594000000E+02  0.51100000000E-03 0. -1.
    9900012    2    1    2    0    0  0.20971520180E+02  0.32446790938E+02  0.23162785099E+02  0.46142317473E+02  0.99999973701E+01 0.  0.
         12    1    1    2    0    0 -0.20971520180E+02 -0.32446790938E+02 -0.23162785099E+02  0.45045682527E+02  0.00000000000E+00 0. -1.
         11    1    3    3    0    0  0.14260838214E+01  0.52317090670E+00 -0.24933364371E+00  0.15393473910E+01  0.51100000000E-03 0. -1.
        -11    1    3    3    0    0  0.83971827056E+00  0.18165600688E+00 -0.14606274207E+00  0.87147017418E+00  0.51100000000E-03 0.  1.
        -12    1    3    3    0    0  0.18705718088E+02  0.31741964024E+02  0.23558181484E+02  0.43731499908E+02  0.00000000000E+00 0.  1.
</event>
<event>
 7    1  0.2353206E-008  0.4614232E+02  0.7816164E-02  0.1320468E+00
        -11   -1    0    0    0    0  0.00000000000E+00  0.00000000000E+00  0.45593999997E+02  0.45594000000E+02  0.51100000000E-03 0. -1.
         11   -1    0    0    0    0 -0.00000000000E+00 -0.00000000000E+00 -0.45593999997E+02  0.45594000000E+02  0.51100000000E-03 0.  1.
    9900012    2    1    2    0    0  0.33156874044E+02  0.12766180618E+02 -0.27690427700E+02  0.46142318185E+02  0.10000003867E+02 0.  0.
         12    1    1    2    0    0 -0.33156874044E+02 -0.12766180618E+02  0.27690427700E+02  0.45045681815E+02  0.00000000000E+00 0. -1.
         11    1    3    3    0    0  0.12325440238E+02  0.50124457558E+01 -0.16211509053E+02  0.20972699291E+02  0.51100000000E-03 0.  1.
        -11    1    3    3    0    0  0.13783146343E+02  0.61594851312E+01 -0.87219985459E+01  0.17435241297E+02  0.51100000000E-03 0. -1.
        -12    1    3    3    0    0  0.70482874633E+01  0.15942497315E+01 -0.27569201010E+01  0.77343775971E+01  0.00000000000E+00 0.  1.
</event>
<event>
 7    1  0.2353206E-008  0.4614232E+02  0.7816164E-02  0.1320468E+00
        -11   -1    0    0    0    0  0.00000000000E+00  0.00000000000E+00  0.45593999997E+02  0.45594000000E+02  0.51100000000E-03 0. -1.
         11   -1    0    0    0    0 -0.00000000000E+00 -0.00000000000E+00 -0.45593999997E+02  0.45594000000E+02  0.51100000000E-03 0.  1.
    9900012    2    1    2    0    0 -0.13896696071E+02  0.53428664799E+01 -0.42514104156E+02  0.46142318341E+02  0.10000005289E+02 0.  0.
         12    1    1    2    0    0  0.13896696071E+02 -0.53428664799E+01  0.42514104156E+02  0.45045681659E+02  0.00000000000E+00 0. -1.
         11    1    3    3    0    0 -0.25706505496E+01 -0.77515670319E+00 -0.90179525836E+01  0.94091753742E+01  0.51100000000E-03 0. -1.
        -11    1    3    3    0    0 -0.63875420126E+01  0.52600721924E+01 -0.28416671945E+02  0.29596896748E+02  0.51100000000E-03 0.  1.
         12    1    3    3    0    0 -0.49385035084E+01  0.85795099060E+00 -0.50794796274E+01  0.71362462185E+01  0.00000000000E+00 0. -1.
</event>
<event>
 7    1  0.2353206E-008  0.4614231E+02  0.7816164E-02  0.1320468E+00
        -11   -1    0    0    0    0  0.00000000000E+00  0.00000000000E+00  0.45593999997E+02  0.45594000000E+02  0.51100000000E-03 0. -1.
         11   -1    0    0    0    0 -0.00000000000E+00 -0.00000000000E+00 -0.45593999997E+02  0.45594000000E+02  0.51100000000E-03 0.  1.
    9900012    2    1    2    0    0 -0.95513387113E+01 -0.27199567052E+02 -0.34613140506E+02  0.46142311919E+02  0.99999467294E+01 0.  0.
         12    1    1    2    0    0  0.95513387113E+01  0.27199567052E+02  0.34613140506E+02  0.45045688081E+02  0.00000000000E+00 0. -1.
         11    1    3    3    0    0 -0.12961532901E+01 -0.13320933805E+02 -0.16247914474E+02  0.21050463554E+02  0.51100000000E-03 0. -1.
        -11    1    3    3    0    0 -0.26363215279E+01 -0.98018846303E+01 -0.10603906018E+02  0.14678894938E+02  0.51100000000E-03 0.  1.
         12    1    3    3    0    0 -0.56188638932E+01 -0.40767486161E+01 -0.77613200133E+01  0.10412953427E+02  0.00000000000E+00 0. -1.
</event>
<event>
 7    1  0.2353206E-008  0.4614232E+02  0.7816164E-02  0.1320468E+00
        -11   -1    0    0    0    0  0.00000000000E+00  0.00000000000E+00  0.45593999997E+02  0.45594000000E+02  0.51100000000E-03 0.  1.
         11   -1    0    0    0    0 -0.00000000000E+00 -0.00000000000E+00 -0.45593999997E+02  0.45594000000E+02  0.51100000000E-03 0. -1.
    9900012    2    1    2    0    0  0.41888828530E+02 -0.15296196541E+02  0.63612933577E+01  0.46142316107E+02  0.99999849159E+01 0.  0.
         12    1    1    2    0    0 -0.41888828530E+02  0.15296196541E+02 -0.63612933577E+01  0.45045683893E+02  0.00000000000E+00 0. -1.
         11    1    3    3    0    0  0.60300506298E+00 -0.37154917495E+00  0.10563104561E+01  0.12717924108E+01  0.51100000000E-03 0. -1.
        -11    1    3    3    0    0  0.24689501786E+02 -0.73560233442E+01  0.65682282353E+01  0.26586165580E+02  0.51100000000E-03 0.  1.
        -12    1    3    3    0    0  0.16596321681E+02 -0.75686240221E+01 -0.12632453337E+01  0.18284358116E+02  0.00000000000E+00 0.  1.
</event>
<event>
 7    1  0.2353206E-008  0.4614232E+02  0.7816164E-02  0.1320468E+00
        -11   -1    0    0    0    0  0.00000000000E+00  0.00000000000E+00  0.45593999997E+02  0.45594000000E+02  0.51100000000E-03 0. -1.
         11   -1    0    0    0    0 -0.00000000000E+00 -0.00000000000E+00 -0.45593999997E+02  0.45594000000E+02  0.51100000000E-03 0.  1.
    9900012    2    1    2    0    0  0.32293993690E+02  0.25985641280E+02 -0.17633998177E+02  0.46142317932E+02  0.10000001563E+02 0.  0.
         12    1    1    2    0    0 -0.32293993690E+02 -0.25985641280E+02  0.17633998177E+02  0.45045682068E+02  0.00000000000E+00 0. -1.
         11    1    3    3    0    0  0.84144025483E+01  0.91196602570E+01 -0.60281901146E+01  0.13795269108E+02  0.51100000000E-03 0. -1.
        -11    1    3    3    0    0  0.18955983567E+02  0.14067149403E+02 -0.12339831369E+02  0.26636167963E+02  0.51100000000E-03 0.  1.
         12    1    3    3    0    0  0.49236075756E+01  0.27988316199E+01  0.73402330583E+00  0.57108808609E+01  0.00000000000E+00 0. -1.
</event>
<event>
 7    1  0.2353206E-008  0.4614232E+02  0.7816164E-02  0.1320468E+00
        -11   -1    0    0    0    0  0.00000000000E+00  0.00000000000E+00  0.45593999997E+02  0.45594000000E+02  0.51100000000E-03 0.  1.
         11   -1    0    0    0    0 -0.00000000000E+00 -0.00000000000E+00 -0.45593999997E+02  0.45594000000E+02  0.51100000000E-03 0. -1.
    9900012    2    1    2    0    0  0.48321171645E+01  0.44595607932E+02  0.41226109371E+01  0.46142317365E+02  0.99999963907E+01 0.  0.
         12    1    1    2    0    0 -0.48321171645E+01 -0.44595607932E+02 -0.41226109371E+01  0.45045682635E+02  0.00000000000E+00 0. -1.
         11    1    3    3    0    0  0.22439989404E+01  0.32068200224E+02  0.21800693791E+01  0.32220454677E+02  0.51100000000E-03 0. -1.
        -11    1    3    3    0    0  0.19085444682E+01  0.10386471257E+02 -0.53974558174E+00  0.10574150213E+02  0.51100000000E-03 0.  1.
         12    1    3    3    0    0  0.67957375587E+00  0.21409364506E+01  0.24822871397E+01  0.33477124756E+01  0.00000000000E+00 0. -1.
</event>
<event>
 7    1  0.2353206E-008  0.4614232E+02  0.7816164E-02  0.1320468E+00
        -11   -1    0    0    0    0  0.00000000000E+00  0.00000000000E+00  0.45593999997E+02  0.45594000000E+02  0.51100000000E-03 0.  1.
         11   -1    0    0    0    0 -0.00000000000E+00 -0.00000000000E+00 -0.45593999997E+02  0.45594000000E+02  0.51100000000E-03 0. -1.
    9900012    2    1    2    0    0  0.27144155374E+01 -0.44097109009E+02  0.87858061710E+01  0.46142318024E+02  0.10000002396E+02 0.  0.
         12    1    1    2    0    0 -0.27144155374E+01  0.44097109009E+02 -0.87858061710E+01  0.45045681976E+02  0.00000000000E+00 0. -1.
         11    1    3    3    0    0  0.29369668885E+01 -0.26601402151E+02  0.34545669876E+01  0.26985077436E+02  0.51100000000E-03 0. -1.
        -11    1    3    3    0    0 -0.46433035384E+00 -0.75160591443E+01 -0.58521273200E+00  0.75530935345E+01  0.51100000000E-03 0.  1.
         12    1    3    3    0    0  0.24177900271E+00 -0.99796477133E+01  0.59164519154E+01  0.11604147053E+02  0.00000000000E+00 0. -1.
</event>
<event>
 7    1  0.2353206E-008  0.4614232E+02  0.7816164E-02  0.1320468E+00
        -11   -1    0    0    0    0  0.00000000000E+00  0.00000000000E+00  0.45593999997E+02  0.45594000000E+02  0.51100000000E-03 0.  1.
         11   -1    0    0    0    0 -0.00000000000E+00 -0.00000000000E+00 -0.45593999997E+02  0.45594000000E+02  0.51100000000E-03 0. -1.
    9900012    2    1    2    0    0 -0.41830327209E+01 -0.23104139227E+02  0.38442351975E+02  0.46142318326E+02  0.10000005147E+02 0.  0.
         12    1    1    2    0    0  0.41830327209E+01  0.23104139227E+02 -0.38442351975E+02  0.45045681674E+02  0.00000000000E+00 0. -1.
         11    1    3    3    0    0 -0.25861628587E+01 -0.35493430547E+01  0.44430489311E+01  0.62471400270E+01  0.51100000000E-03 0. -1.
        -11    1    3    3    0    0 -0.35945353492E+01 -0.15384959241E+02  0.22426609718E+02  0.27433018043E+02  0.51100000000E-03 0.  1.
        -12    1    3    3    0    0  0.19976654871E+01 -0.41698369313E+01  0.11572693326E+02  0.12462160256E+02  0.00000000000E+00 0.  1.
</event>
<event>
 7    1  0.2353206E-008  0.4614232E+02  0.7816164E-02  0.1320468E+00
        -11   -1    0    0    0    0  0.00000000000E+00  0.00000000000E+00  0.45593999997E+02  0.45594000000E+02  0.51100000000E-03 0.  1.
         11   -1    0    0    0    0 -0.00000000000E+00 -0.00000000000E+00 -0.45593999997E+02  0.45594000000E+02  0.51100000000E-03 0. -1.
    9900012    2    1    2    0    0 -0.29637820486E+02  0.20780134911E+02  0.26812292556E+02  0.46142318274E+02  0.10000004672E+02 0.  0.
         12    1    1    2    0    0  0.29637820486E+02 -0.20780134911E+02 -0.26812292556E+02  0.45045681726E+02  0.00000000000E+00 0. -1.
         11    1    3    3    0    0 -0.25204310129E+01  0.28829449234E+00  0.16955176736E+01  0.30513057283E+01  0.51100000000E-03 0. -1.
        -11    1    3    3    0    0 -0.50438651129E+01  0.68784341378E+01  0.31117533635E+01  0.90794515650E+01  0.51100000000E-03 0.  1.
        -12    1    3    3    0    0 -0.22073524360E+02  0.13613406281E+02  0.22005021519E+02  0.34011560980E+02  0.00000000000E+00 0.  1.
</event>
<event>
 7    1  0.2353206E-008  0.4614232E+02  0.7816164E-02  0.1320468E+00
        -11   -1    0    0    0    0  0.00000000000E+00  0.00000000000E+00  0.45593999997E+02  0.45594000000E+02  0.51100000000E-03 0.  1.
         11   -1    0    0    0    0 -0.00000000000E+00 -0.00000000000E+00 -0.45593999997E+02  0.45594000000E+02  0.51100000000E-03 0. -1.
    9900012    2    1    2    0    0  0.12345826628E+02 -0.42628785869E+02 -0.77123691808E+01  0.46142318096E+02  0.10000003057E+02 0.  0.
         12    1    1    2    0    0 -0.12345826628E+02  0.42628785869E+02  0.77123691808E+01  0.45045681904E+02  0.00000000000E+00 0. -1.
         11    1    3    3    0    0  0.17779918038E+01 -0.12651417317E+02  0.10255583840E+01  0.12816839908E+02  0.51100000000E-03 0. -1.
        -11    1    3    3    0    0  0.37254113736E+01 -0.12050061018E+02 -0.10585284578E+01  0.12657138034E+02  0.51100000000E-03 0.  1.
         12    1    3    3    0    0  0.68424234504E+01 -0.17927307534E+02 -0.76793991069E+01  0.20668340154E+02  0.00000000000E+00 0. -1.
</event>
<event>
 7    1  0.2353206E-008  0.4614232E+02  0.7816164E-02  0.1320468E+00
        -11   -1    0    0    0    0  0.00000000000E+00  0.00000000000E+00  0.45593999997E+02  0.45594000000E+02  0.51100000000E-03 0. -1.
         11   -1    0    0    0    0 -0.00000000000E+00 -0.00000000000E+00 -0.45593999997E+02  0.45594000000E+02  0.51100000000E-03 0.  1.
    9900012    2    1    2    0    0 -0.18528998305E+01 -0.41760367750E+02 -0.16785470292E+02  0.46142316907E+02  0.99999922126E+01 0.  0.
         12    1    1    2    0    0  0.18528998305E+01  0.41760367750E+02  0.16785470292E+02  0.45045683093E+02  0.00000000000E+00 0. -1.
         11    1    3    3    0    0 -0.91736274185E+00 -0.14488421522E+02 -0.56577134802E+01  0.15580938184E+02  0.51100000000E-03 0. -1.
        -11    1    3    3    0    0 -0.30591578420E+01 -0.20017099434E+02 -0.10904232560E+02  0.22998804413E+02  0.51100000000E-03 0.  1.
         12    1    3    3    0    0  0.21236207534E+01 -0.72548467936E+01 -0.22352425175E+00  0.75625743100E+01  0.00000000000E+00 0. -1.
</event>
<event>
 7    1  0.2353206E-008  0.4614232E+02  0.7816164E-02  0.1320468E+00
        -11   -1    0    0    0    0  0.00000000000E+00  0.00000000000E+00  0.45593999997E+02  0.45594000000E+02  0.51100000000E-03 0.  1.
         11   -1    0    0    0    0 -0.00000000000E+00 -0.00000000000E+00 -0.45593999997E+02  0.45594000000E+02  0.51100000000E-03 0. -1.
    9900012    2    1    2    0    0  0.29334943411E+02  0.29642159836E+02  0.17026943186E+02  0.46142319420E+02  0.10000015129E+02 0.  0.
         12    1    1    2    0    0 -0.29334943411E+02 -0.29642159836E+02 -0.17026943186E+02  0.45045680580E+02  0.00000000000E+00 0. -1.
         11    1    3    3    0    0  0.21346029866E+01  0.49022857984E+01  0.99757757134E+00  0.54391265136E+01  0.51100000000E-03 0. -1.
        -11    1    3    3    0    0  0.27170918652E+02  0.22888519768E+02  0.15609295111E+02  0.38804551945E+02  0.51100000000E-03 0.  1.
         12    1    3    3    0    0  0.29421772204E-01  0.18513542693E+01  0.42007050377E+00  0.18986409611E+01  0.00000000000E+00 0. -1.
</event>
<event>
 7    1  0.2353206E-008  0.4614232E+02  0.7816164E-02  0.1320468E+00
        -11   -1    0    0    0    0  0.00000000000E+00  0.00000000000E+00  0.45593999997E+02  0.45594000000E+02  0.51100000000E-03 0.  1.
         11   -1    0    0    0    0 -0.00000000000E+00 -0.00000000000E+00 -0.45593999997E+02  0.45594000000E+02  0.51100000000E-03 0. -1.
    9900012    2    1    2    0    0 -0.27731571333E+02 -0.27178760856E+02  0.22833928339E+02  0.46142319034E+02  0.10000011608E+02 0.  0.
         12    1    1    2    0    0  0.27731571333E+02  0.27178760856E+02 -0.22833928339E+02  0.45045680966E+02  0.00000000000E+00 0. -1.
         11    1    3    3    0    0 -0.78533297420E+01 -0.39404249918E+01  0.88618252363E+01  0.12479330268E+02  0.51100000000E-03 0. -1.
        -11    1    3    3    0    0 -0.55965515841E+01 -0.61046710161E+01  0.30340835943E+01  0.88200941812E+01  0.51100000000E-03 0.  1.
        -12    1    3    3    0    0 -0.14281690007E+02 -0.17133664848E+02  0.10938019508E+02  0.24842894585E+02  0.00000000000E+00 0.  1.
</event>
<event>
 7    1  0.2353206E-008  0.4614231E+02  0.7816164E-02  0.1320468E+00
        -11   -1    0    0    0    0  0.00000000000E+00  0.00000000000E+00  0.45593999997E+02  0.45594000000E+02  0.51100000000E-03 0.  1.
         11   -1    0    0    0    0 -0.00000000000E+00 -0.00000000000E+00 -0.45593999997E+02  0.45594000000E+02  0.51100000000E-03 0. -1.
    9900012    2    1    2    0    0 -0.31738340967E+01 -0.55112456985E+01  0.44594469384E+02  0.46142314838E+02  0.99999733489E+01 0.  0.
         12    1    1    2    0    0  0.31738340967E+01  0.55112456985E+01 -0.44594469384E+02  0.45045685162E+02  0.00000000000E+00 0. -1.
         11    1    3    3    0    0 -0.52256090194E-01 -0.46405467026E+00  0.12746292862E+02  0.12754844547E+02  0.51100000000E-03 0. -1.
        -11    1    3    3    0    0 -0.37731417774E+01 -0.44688029570E+01  0.31976368719E+02  0.32506844748E+02  0.51100000000E-03 0.  1.
         12    1    3    3    0    0  0.65156377087E+00 -0.57838807124E+00 -0.12819219699E+00  0.88062554348E+00  0.00000000000E+00 0. -1.
</event>
<event>
 7    1  0.2353206E-008  0.4614232E+02  0.7816164E-02  0.1320468E+00
        -11   -1    0    0    0    0  0.00000000000E+00  0.00000000000E+00  0.45593999997E+02  0.45594000000E+02  0.51100000000E-03 0.  1.
         11   -1    0    0    0    0 -0.00000000000E+00 -0.00000000000E+00 -0.45593999997E+02  0.45594000000E+02  0.51100000000E-03 0. -1.
    9900012    2    1    2    0    0 -0.12445804696E+02  0.53385897952E+01  0.42961784679E+02  0.46142317206E+02  0.99999949411E+01 0.  0.
         12    1    1    2    0    0  0.12445804696E+02 -0.53385897952E+01 -0.42961784679E+02  0.45045682794E+02  0.00000000000E+00 0. -1.
         11    1    3    3    0    0 -0.15268243757E+01  0.37344374934E+00  0.11908484898E+01  0.19719972857E+01  0.51100000000E-03 0. -1.
        -11    1    3    3    0    0 -0.83958675260E+01  0.66450465146E+01  0.36997815445E+02  0.38516043186E+02  0.51100000000E-03 0.  1.
        -12    1    3    3    0    0 -0.25231127942E+01 -0.16799004688E+01  0.47731207440E+01  0.56542767348E+01  0.00000000000E+00 0.  1.
</event>
<event>
 7    1  0.2353206E-008  0.4614232E+02  0.7816164E-02  0.1320468E+00
        -11   -1    0    0    0    0  0.00000000000E+00  0.00000000000E+00  0.45593999997E+02  0.45594000000E+02  0.51100000000E-03 0.  1.
         11   -1    0    0    0    0 -0.00000000000E+00 -0.00000000000E+00 -0.45593999997E+02  0.45594000000E+02  0.51100000000E-03 0. -1.
    9900012    2    1    2    0    0  0.41288324642E+02  0.14784757980E+02 -0.10285849852E+02  0.46142317328E+02  0.99999960465E+01 0.  0.
         12    1    1    2    0    0 -0.41288324642E+02 -0.14784757980E+02  0.10285849852E+02  0.45045682672E+02  0.00000000000E+00 0. -1.
         11    1    3    3    0    0  0.15211224276E+01  0.19314778513E+01 -0.19172658948E+01  0.31177442009E+01  0.51100000000E-03 0. -1.
        -11    1    3    3    0    0  0.32312225574E+02  0.12733013787E+02 -0.64301467448E+01  0.35320763710E+02  0.51100000000E-03 0.  1.
        -12    1    3    3    0    0  0.74549766409E+01  0.12026634147E+00 -0.19384372120E+01  0.77038094170E+01  0.00000000000E+00 0.  1.
</event>
<event>
 7    1  0.2353206E-008  0.4614232E+02  0.7816164E-02  0.1320468E+00
        -11   -1    0    0    0    0  0.00000000000E+00  0.00000000000E+00  0.45593999997E+02  0.45594000000E+02  0.51100000000E-03 0.  1.
         11   -1    0    0    0    0 -0.00000000000E+00 -0.00000000000E+00 -0.45593999997E+02  0.45594000000E+02  0.51100000000E-03 0. -1.
    9900012    2    1    2    0    0  0.54004437274E+00  0.23310942245E+02  0.38541168741E+02  0.46142319139E+02  0.10000012568E+02 0.  0.
         12    1    1    2    0    0 -0.54004437274E+00 -0.23310942245E+02 -0.38541168741E+02  0.45045680861E+02  0.00000000000E+00 0. -1.
         11    1    3    3    0    0  0.12259138332E+01  0.22823459631E+02  0.32262198700E+02  0.39538116287E+02  0.51100000000E-03 0. -1.
        -11    1    3    3    0    0  0.60010577819E+00  0.45744601377E+00  0.25714184094E+01  0.26798463944E+01  0.51100000000E-03 0.  1.
         12    1    3    3    0    0 -0.12859752386E+01  0.30036599989E-01  0.37075516311E+01  0.39243564580E+01  0.00000000000E+00 0. -1.
</event>
<event>
 7    1  0.2353206E-008  0.4614232E+02  0.7816164E-02  0.1320468E+00
        -11   -1    0    0    0    0  0.00000000000E+00  0.00000000000E+00  0.45593999997E+02  0.45594000000E+02  0.51100000000E-03 0.  1.
         11   -1    0    0    0    0 -0.00000000000E+00 -0.00000000000E+00 -0.45593999997E+02  0.45594000000E+02  0.51100000000E-03 0. -1.
    9900012    2    1    2    0    0 -0.92287662777E+01  0.71794946557E+01  0.43501702946E+02  0.46142318412E+02  0.10000005933E+02 0.  0.
         12    1    1    2    0    0  0.92287662777E+01 -0.71794946557E+01 -0.43501702946E+02  0.45045681588E+02  0.00000000000E+00 0. -1.
         11    1    3    3    0    0 -0.23319306341E+01  0.39425696465E+01  0.14420754162E+02  0.15130760284E+02  0.51100000000E-03 0. -1.
        -11    1    3    3    0    0 -0.88560044110E+00  0.32524026085E+01  0.40515968362E+01  0.52704694339E+01  0.51100000000E-03 0.  1.
        -12    1    3    3    0    0 -0.60112352025E+01 -0.15477599309E-01  0.25029351948E+02  0.25741088694E+02  0.00000000000E+00 0.  1.
</event>
<event>
 7    1  0.2353206E-008  0.4614232E+02  0.7816164E-02  0.1320468E+00
        -11   -1    0    0    0    0  0.00000000000E+00  0.00000000000E+00  0.45593999997E+02  0.45594000000E+02  0.51100000000E-03 0.  1.
         11   -1    0    0    0    0 -0.00000000000E+00 -0.00000000000E+00 -0.45593999997E+02  0.45594000000E+02  0.51100000000E-03 0. -1.
    9900012    2    1    2    0    0  0.43402599124E+02 -0.85929109890E+01  0.84551599582E+01  0.46142318077E+02  0.10000002883E+02 0.  0.
         12    1    1    2    0    0 -0.43402599124E+02  0.85929109890E+01 -0.84551599582E+01  0.45045681923E+02  0.00000000000E+00 0. -1.
         11    1    3    3    0    0  0.17374881846E+02  0.20054979506E+00  0.38329356885E+01  0.17793766764E+02  0.51100000000E-03 0. -1.
        -11    1    3    3    0    0  0.14458806925E+02 -0.64049729170E+01  0.48258686511E+01  0.16533898035E+02  0.51100000000E-03 0.  1.
        -12    1    3    3    0    0  0.11568910353E+02 -0.23884878671E+01 -0.20364438134E+00  0.11814653278E+02  0.00000000000E+00 0.  1.
</event>
<event>
 7    1  0.2353206E-008  0.4614231E+02  0.7816164E-02  0.1320468E+00
        -11   -1    0    0    0    0  0.00000000000E+00  0.00000000000E+00  0.45593999997E+02  0.45594000000E+02  0.51100000000E-03 0. -1.
         11   -1    0    0    0    0 -0.00000000000E+00 -0.00000000000E+00 -0.45593999997E+02  0.45594000000E+02  0.51100000000E-03 0.  1.
    9900012    2    1    2    0    0 -0.14972776573E+00 -0.11701367825E+02 -0.43499075282E+02  0.46142312329E+02  0.99999504681E+01 0.  0.
         12    1    1    2    0    0  0.14972776573E+00  0.11701367825E+02  0.43499075282E+02  0.45045687671E+02  0.00000000000E+00 0. -1.
         11    1    3    3    0    0  0.39254842120E+01 -0.40024562791E+01 -0.98119769815E+01  0.11300618351E+02  0.51100000000E-03 0. -1.
        -11    1    3    3    0    0 -0.53316690061E+00 -0.18341707515E+01 -0.51258026251E+01  0.54701281614E+01  0.51100000000E-03 0.  1.
         12    1    3    3    0    0 -0.35420450771E+01 -0.58647407945E+01 -0.28561295675E+02  0.29371565817E+02  0.00000000000E+00 0. -1.
</event>
<event>
 7    1  0.2353206E-008  0.4614232E+02  0.7816164E-02  0.1320468E+00
        -11   -1    0    0    0    0  0.00000000000E+00  0.00000000000E+00  0.45593999997E+02  0.45594000000E+02  0.51100000000E-03 0. -1.
         11   -1    0    0    0    0 -0.00000000000E+00 -0.00000000000E+00 -0.45593999997E+02  0.45594000000E+02  0.51100000000E-03 0.  1.
    9900012    2    1    2    0    0 -0.19948191825E+02 -0.30306447425E+02 -0.26696485586E+02  0.46142318128E+02  0.10000003349E+02 0.  0.
         12    1    1    2    0    0  0.19948191825E+02  0.30306447425E+02  0.26696485586E+02  0.45045681872E+02  0.00000000000E+00 0. -1.
         11    1    3    3    0    0 -0.47806694575E+01 -0.78688676042E+01 -0.50835314565E+01  0.10517422221E+02  0.51100000000E-03 0. -1.
        -11    1    3    3    0    0 -0.11952833346E+02 -0.19563937700E+02 -0.13963668645E+02  0.26844029608E+02  0.51100000000E-03 0.  1.
         12    1    3    3    0    0 -0.32146890208E+01 -0.28736421216E+01 -0.76492854847E+01  0.87808662996E+01  0.00000000000E+00 0. -1.
</event>
<event>
 7    1  0.2353206E-008  0.4614232E+02  0.7816164E-02  0.1320468E+00
        -11   -1    0    0    0    0  0.00000000000E+00  0.00000000000E+00  0.45593999997E+02  0.45594000000E+02  0.51100000000E-03 0.  1.
         11   -1    0    0    0    0 -0.00000000000E+00 -0.00000000000E+00 -0.45593999997E+02  0.45594000000E+02  0.51100000000E-03 0. -1.
    9900012    2    1    2    0    0  0.22379249721E+02  0.12491583356E+02  0.37043800185E+02  0.46142316467E+02  0.99999881964E+01 0.  0.
         12    1    1    2    0    0 -0.22379249721E+02 -0.12491583356E+02 -0.37043800185E+02  0.45045683533E+02  0.00000000000E+00 0. -1.
         11    1    3    3    0    0  0.67789411698E+01  0.41423164678E+01  0.14941410647E+02  0.16922132888E+02  0.51100000000E-03 0. -1.
        -11    1    3    3    0    0  0.11209209236E+02  0.93005713069E+01  0.17796977453E+02  0.22997378221E+02  0.51100000000E-03 0.  1.
         12    1    3    3    0    0  0.43910993148E+01 -0.95130441819E+00  0.43054120856E+01  0.62228053574E+01  0.00000000000E+00 0. -1.
</event>
<event>
 7    1  0.2353206E-008  0.4614232E+02  0.7816164E-02  0.1320468E+00
        -11   -1    0    0    0    0  0.00000000000E+00  0.00000000000E+00  0.45593999997E+02  0.45594000000E+02  0.51100000000E-03 0.  1.
         11   -1    0    0    0    0 -0.00000000000E+00 -0.00000000000E+00 -0.45593999997E+02  0.45594000000E+02  0.51100000000E-03 0. -1.
    9900012    2    1    2    0    0 -0.37920688756E+01  0.35052966182E+02  0.28036105382E+02  0.46142318414E+02  0.10000005957E+02 0.  0.
         12    1    1    2    0    0  0.37920688756E+01 -0.35052966182E+02 -0.28036105382E+02  0.45045681586E+02  0.00000000000E+00 0. -1.
         11    1    3    3    0    0 -0.33971594323E+01  0.29020504813E+02  0.20217103947E+02  0.35531136825E+02  0.51100000000E-03 0.  1.
        -11    1    3    3    0    0  0.67085792903E+00  0.10756238111E+01 -0.28848963997E-01  0.12680100424E+01  0.51100000000E-03 0. -1.
        -12    1    3    3    0    0 -0.10657673724E+01  0.49568375578E+01  0.78478503989E+01  0.93431715467E+01  0.00000000000E+00 0.  1.
</event>
<event>
 7    1  0.2353206E-008  0.4614232E+02  0.7816164E-02  0.1320468E+00
        -11   -1    0    0    0    0  0.00000000000E+00  0.00000000000E+00  0.45593999997E+02  0.45594000000E+02  0.51100000000E-03 0. -1.
         11   -1    0    0    0    0 -0.00000000000E+00 -0.00000000000E+00 -0.45593999997E+02  0.45594000000E+02  0.51100000000E-03 0.  1.
    9900012    2    1    2    0    0  0.20087072254E+02  0.32635265121E+02 -0.23676196155E+02  0.46142320233E+02  0.10000022545E+02 0.  0.
         12    1    1    2    0    0 -0.20087072254E+02 -0.32635265121E+02  0.23676196155E+02  0.45045679767E+02  0.00000000000E+00 0. -1.
         11    1    3    3    0    0  0.33459755697E+01  0.56057236904E+01 -0.39695535246E+01  0.76404872915E+01  0.51100000000E-03 0. -1.
        -11    1    3    3    0    0  0.94501235174E+01  0.21724386579E+02 -0.16744626631E+02  0.29010969098E+02  0.51100000000E-03 0.  1.
         12    1    3    3    0    0  0.72909731672E+01  0.53051548515E+01 -0.29620159990E+01  0.94908638438E+01  0.00000000000E+00 0. -1.
</event>
<event>
 7    1  0.2353206E-008  0.4614232E+02  0.7816164E-02  0.1320468E+00
        -11   -1    0    0    0    0  0.00000000000E+00  0.00000000000E+00  0.45593999997E+02  0.45594000000E+02  0.51100000000E-03 0.  1.
         11   -1    0    0    0    0 -0.00000000000E+00 -0.00000000000E+00 -0.45593999997E+02  0.45594000000E+02  0.51100000000E-03 0. -1.
    9900012    2    1    2    0    0  0.37666942801E+02 -0.15667263647E+02  0.19101097155E+02  0.46142316048E+02  0.99999843771E+01 0.  0.
         12    1    1    2    0    0 -0.37666942801E+02  0.15667263647E+02 -0.19101097155E+02  0.45045683952E+02  0.00000000000E+00 0. -1.
         11    1    3    3    0    0  0.62723663321E+01 -0.53604252105E+01  0.97838169818E+00  0.83086682958E+01  0.51100000000E-03 0. -1.
        -11    1    3    3    0    0  0.23407157639E+02 -0.78953304790E+01  0.11867068980E+02  0.27405448337E+02  0.51100000000E-03 0.  1.
        -12    1    3    3    0    0  0.79874188303E+01 -0.24115079580E+01  0.62556464767E+01  0.10428199415E+02  0.00000000000E+00 0.  1.
</event>
<event>
 7    1  0.2353206E-008  0.4614232E+02  0.7816164E-02  0.1320468E+00
        -11   -1    0    0    0    0  0.00000000000E+00  0.00000000000E+00  0.45593999997E+02  0.45594000000E+02  0.51100000000E-03 0.  1.
         11   -1    0    0    0    0 -0.00000000000E+00 -0.00000000000E+00 -0.45593999997E+02  0.45594000000E+02  0.51100000000E-03 0. -1.
    9900012    2    1    2    0    0 -0.41932845269E+02 -0.10015969257E+02  0.13054894171E+02  0.46142318583E+02  0.10000007491E+02 0.  0.
         12    1    1    2    0    0  0.41932845269E+02  0.10015969257E+02 -0.13054894171E+02  0.45045681417E+02  0.00000000000E+00 0. -1.
         11    1    3    3    0    0 -0.21523185679E+02 -0.42790409952E+01  0.72934358222E+01  0.23124703673E+02  0.51100000000E-03 0.  1.
        -11    1    3    3    0    0 -0.71631578778E+01  0.60493200705E+00  0.39984065757E+01  0.82258147877E+01  0.51100000000E-03 0. -1.
        -12    1    3    3    0    0 -0.13246501712E+02 -0.63418602689E+01  0.17630517732E+01  0.14791800122E+02  0.00000000000E+00 0.  1.
</event>
<event>
 7    1  0.2353206E-008  0.4614232E+02  0.7816164E-02  0.1320468E+00
        -11   -1    0    0    0    0  0.00000000000E+00  0.00000000000E+00  0.45593999997E+02  0.45594000000E+02  0.51100000000E-03 0.  1.
         11   -1    0    0    0    0 -0.00000000000E+00 -0.00000000000E+00 -0.45593999997E+02  0.45594000000E+02  0.51100000000E-03 0. -1.
    9900012    2    1    2    0    0  0.71751549137E+01  0.26032282571E+02  0.36054831737E+02  0.46142317904E+02  0.10000001304E+02 0.  0.
         12    1    1    2    0    0 -0.71751549137E+01 -0.26032282571E+02 -0.36054831737E+02  0.45045682096E+02  0.00000000000E+00 0. -1.
         11    1    3    3    0    0  0.46691256236E+01  0.75235217051E+01  0.95689805897E+01  0.13037235241E+02  0.51100000000E-03 0. -1.
        -11    1    3    3    0    0  0.20977640958E+01  0.99889793049E+01  0.19768479348E+02  0.22247990870E+02  0.51100000000E-03 0.  1.
         12    1    3    3    0    0  0.40826519429E+00  0.85197815610E+01  0.67173717993E+01  0.10857091793E+02  0.00000000000E+00 0. -1.
</event>
<event>
 7    1  0.2353206E-008  0.4614232E+02  0.7816164E-02  0.1320468E+00
        -11   -1    0    0    0    0  0.00000000000E+00  0.00000000000E+00  0.45593999997E+02  0.45594000000E+02  0.51100000000E-03 0.  1.
         11   -1    0    0    0    0 -0.00000000000E+00 -0.00000000000E+00 -0.45593999997E+02  0.45594000000E+02  0.51100000000E-03 0. -1.
    9900012    2    1    2    0    0 -0.19956820448E+02  0.19812051041E+02  0.35189787172E+02  0.46142321294E+02  0.10000032217E+02 0.  0.
         12    1    1    2    0    0  0.19956820448E+02 -0.19812051041E+02 -0.35189787172E+02  0.45045678706E+02  0.00000000000E+00 0. -1.
         11    1    3    3    0    0 -0.86151692282E+01  0.58009519062E+01  0.11974700381E+02  0.15851360614E+02  0.51100000000E-03 0. -1.
        -11    1    3    3    0    0 -0.79488858947E+01  0.81442533194E+01  0.88813831041E+01  0.14435810168E+02  0.51100000000E-03 0.  1.
        -12    1    3    3    0    0 -0.33927653256E+01  0.58668458152E+01  0.14333703687E+02  0.15855150512E+02  0.00000000000E+00 0.  1.
</event>
<event>
 7    1  0.2353206E-008  0.4614232E+02  0.7816164E-02  0.1320468E+00
        -11   -1    0    0    0    0  0.00000000000E+00  0.00000000000E+00  0.45593999997E+02  0.45594000000E+02  0.51100000000E-03 0.  1.
         11   -1    0    0    0    0 -0.00000000000E+00 -0.00000000000E+00 -0.45593999997E+02  0.45594000000E+02  0.51100000000E-03 0. -1.
    9900012    2    1    2    0    0 -0.55471581972E+01 -0.28557701800E+02  0.34391862196E+02  0.46142317838E+02  0.10000000698E+02 0.  0.
         12    1    1    2    0    0  0.55471581972E+01  0.28557701800E+02 -0.34391862196E+02  0.45045682162E+02  0.00000000000E+00 0. -1.
         11    1    3    3    0    0 -0.15195696876E+01  0.18888654044E+00  0.15516989037E+01  0.21800320891E+01  0.51100000000E-03 0. -1.
        -11    1    3    3    0    0 -0.50173885030E+00 -0.49249390810E+01  0.76613746452E+01  0.91215913382E+01  0.51100000000E-03 0.  1.
         12    1    3    3    0    0 -0.35258496592E+01 -0.23821649259E+02  0.25178788647E+02  0.34840694410E+02  0.00000000000E+00 0. -1.
</event>
<event>
 7    1  0.2353206E-008  0.4614232E+02  0.7816164E-02  0.1320468E+00
        -11   -1    0    0    0    0  0.00000000000E+00  0.00000000000E+00  0.45593999997E+02  0.45594000000E+02  0.51100000000E-03 0.  1.
         11   -1    0    0    0    0 -0.00000000000E+00 -0.00000000000E+00 -0.45593999997E+02  0.45594000000E+02  0.51100000000E-03 0. -1.
    9900012    2    1    2    0    0  0.12468902691E+02 -0.14947826655E+00  0.43285305347E+02  0.46142317220E+02  0.99999950684E+01 0.  0.
         12    1    1    2    0    0 -0.12468902691E+02  0.14947826655E+00 -0.43285305347E+02  0.45045682780E+02  0.00000000000E+00 0. -1.
         11    1    3    3    0    0  0.45026967283E+01 -0.46910346227E+01  0.15731383089E+02  0.17022235394E+02  0.51100000000E-03 0. -1.
        -11    1    3    3    0    0  0.78870970168E+01  0.47434247751E+01  0.26976355696E+02  0.28503160261E+02  0.51100000000E-03 0.  1.
        -12    1    3    3    0    0  0.79108945792E-01 -0.20186841899E+00  0.57756656228E+00  0.61692156532E+00  0.00000000000E+00 0.  1.
</event>
<event>
 7    1  0.2353206E-008  0.4614233E+02  0.7816164E-02  0.1320468E+00
        -11   -1    0    0    0    0  0.00000000000E+00  0.00000000000E+00  0.45593999997E+02  0.45594000000E+02  0.51100000000E-03 0. -1.
         11   -1    0    0    0    0 -0.00000000000E+00 -0.00000000000E+00 -0.45593999997E+02  0.45594000000E+02  0.51100000000E-03 0.  1.
    9900012    2    1    2    0    0  0.21898735950E+02  0.34840407365E+02 -0.18322232505E+02  0.46142325119E+02  0.10000067092E+02 0.  0.
         12    1    1    2    0    0 -0.21898735950E+02 -0.34840407365E+02  0.18322232505E+02  0.45045674881E+02  0.00000000000E+00 0. -1.
         11    1    3    3    0    0  0.68668033070E+01  0.74921859497E+01 -0.89917259164E+00  0.10202663847E+02  0.51100000000E-03 0. -1.
        -11    1    3    3    0    0  0.52345047914E+01  0.13376907064E+02 -0.76381297359E+01  0.16269072165E+02  0.51100000000E-03 0.  1.
        -12    1    3    3    0    0  0.97974278519E+01  0.13971314351E+02 -0.97849301772E+01  0.19670589106E+02  0.00000000000E+00 0.  1.
</event>
<event>
 7    1  0.2353206E-008  0.4614232E+02  0.7816164E-02  0.1320468E+00
        -11   -1    0    0    0    0  0.00000000000E+00  0.00000000000E+00  0.45593999997E+02  0.45594000000E+02  0.51100000000E-03 0.  1.
         11   -1    0    0    0    0 -0.00000000000E+00 -0.00000000000E+00 -0.45593999997E+02  0.45594000000E+02  0.51100000000E-03 0. -1.
    9900012    2    1    2    0    0 -0.23108566383E+02  0.26548495077E+02  0.28112009294E+02  0.46142317658E+02  0.99999990561E+01 0.  0.
         12    1    1    2    0    0  0.23108566383E+02 -0.26548495077E+02 -0.28112009294E+02  0.45045682342E+02  0.00000000000E+00 0. -1.
         11    1    3    3    0    0 -0.16183374642E+01  0.18979180439E+01  0.56651113426E+01  0.61898784992E+01  0.51100000000E-03 0. -1.
        -11    1    3    3    0    0 -0.11863618007E+02  0.14679880583E+02  0.10184047406E+02  0.21446658201E+02  0.51100000000E-03 0.  1.
        -12    1    3    3    0    0 -0.96266109109E+01  0.99706964501E+01  0.12262850546E+02  0.18505780958E+02  0.00000000000E+00 0.  1.
</event>
<event>
 7    1  0.2353206E-008  0.4614232E+02  0.7816164E-02  0.1320468E+00
        -11   -1    0    0    0    0  0.00000000000E+00  0.00000000000E+00  0.45593999997E+02  0.45594000000E+02  0.51100000000E-03 0. -1.
         11   -1    0    0    0    0 -0.00000000000E+00 -0.00000000000E+00 -0.45593999997E+02  0.45594000000E+02  0.51100000000E-03 0.  1.
    9900012    2    1    2    0    0  0.26651946355E+02  0.36276785525E+02  0.16679722274E+01  0.46142317145E+02  0.99999943785E+01 0.  0.
         12    1    1    2    0    0 -0.26651946355E+02 -0.36276785525E+02 -0.16679722274E+01  0.45045682855E+02  0.00000000000E+00 0. -1.
         11    1    3    3    0    0  0.28567525018E+01  0.75647530641E+01  0.24079731058E-01  0.80862292741E+01  0.51100000000E-03 0. -1.
        -11    1    3    3    0    0  0.72960322308E+01  0.14548968234E+02  0.62023039322E+00  0.16287702385E+02  0.51100000000E-03 0.  1.
        -12    1    3    3    0    0  0.16499161622E+02  0.14163064227E+02  0.10236621031E+01  0.21768385486E+02  0.00000000000E+00 0.  1.
</event>
<event>
 7    1  0.2353206E-008  0.4614232E+02  0.7816164E-02  0.1320468E+00
        -11   -1    0    0    0    0  0.00000000000E+00  0.00000000000E+00  0.45593999997E+02  0.45594000000E+02  0.51100000000E-03 0. -1.
         11   -1    0    0    0    0 -0.00000000000E+00 -0.00000000000E+00 -0.45593999997E+02  0.45594000000E+02  0.51100000000E-03 0.  1.
    9900012    2    1    2    0    0 -0.11846019221E+02  0.41424888007E+02 -0.13143960395E+02  0.46142320822E+02  0.10000027910E+02 0.  0.
         12    1    1    2    0    0  0.11846019221E+02 -0.41424888007E+02  0.13143960395E+02  0.45045679178E+02  0.00000000000E+00 0. -1.
         11    1    3    3    0    0 -0.39967422378E+01  0.91366564311E+01  0.35354452710E+00  0.99788492948E+01  0.51100000000E-03 0. -1.
        -11    1    3    3    0    0 -0.46722958618E+01  0.11523871090E+02 -0.36213008132E+01  0.12951593468E+02  0.51100000000E-03 0.  1.
        -12    1    3    3    0    0 -0.31769811219E+01  0.20764360485E+02 -0.98762041091E+01  0.23211878059E+02  0.00000000000E+00 0.  1.
</event>
<event>
 7    1  0.2353206E-008  0.4614232E+02  0.7816164E-02  0.1320468E+00
        -11   -1    0    0    0    0  0.00000000000E+00  0.00000000000E+00  0.45593999997E+02  0.45594000000E+02  0.51100000000E-03 0.  1.
         11   -1    0    0    0    0 -0.00000000000E+00 -0.00000000000E+00 -0.45593999997E+02  0.45594000000E+02  0.51100000000E-03 0. -1.
    9900012    2    1    2    0    0  0.21405356297E+00  0.44827761201E+02  0.44203418770E+01  0.46142318570E+02  0.10000007373E+02 0.  0.
         12    1    1    2    0    0 -0.21405356297E+00 -0.44827761201E+02 -0.44203418770E+01  0.45045681430E+02  0.00000000000E+00 0. -1.
         11    1    3    3    0    0  0.27486677718E+01  0.19303632504E+02 -0.11659914946E+01  0.19533175338E+02  0.51100000000E-03 0. -1.
        -11    1    3    3    0    0 -0.30780920925E+01  0.20093606873E+02  0.29255917469E+01  0.20537448124E+02  0.51100000000E-03 0.  1.
        -12    1    3    3    0    0  0.54347788367E+00  0.54305218238E+01  0.26607416247E+01  0.60716951078E+01  0.00000000000E+00 0.  1.
</event>
<event>
 7    1  0.2353206E-008  0.4614232E+02  0.7816164E-02  0.1320468E+00
        -11   -1    0    0    0    0  0.00000000000E+00  0.00000000000E+00  0.45593999997E+02  0.45594000000E+02  0.51100000000E-03 0.  1.
         11   -1    0    0    0    0 -0.00000000000E+00 -0.00000000000E+00 -0.45593999997E+02  0.45594000000E+02  0.51100000000E-03 0. -1.
    9900012    2    1    2    0    0 -0.73713371320E+01  0.44433958258E+02 -0.63259815542E+00  0.46142318320E+02  0.10000005097E+02 0.  0.
         12    1    1    2    0    0  0.73713371320E+01 -0.44433958258E+02  0.63259815542E+00  0.45045681680E+02  0.00000000000E+00 0. -1.
         11    1    3    3    0    0 -0.11010378875E+01  0.65764749997E+01 -0.20616858371E+01  0.69794596212E+01  0.51100000000E-03 0. -1.
        -11    1    3    3    0    0  0.17512535950E+01  0.49710827638E+01  0.57153841211E+00  0.53014346564E+01  0.51100000000E-03 0.  1.
        -12    1    3    3    0    0 -0.80215528395E+01  0.32886400494E+02  0.85754926956E+00  0.33861424042E+02  0.00000000000E+00 0.  1.
</event>
<event>
 7    1  0.2353206E-008  0.4614232E+02  0.7816164E-02  0.1320468E+00
        -11   -1    0    0    0    0  0.00000000000E+00  0.00000000000E+00  0.45593999997E+02  0.45594000000E+02  0.51100000000E-03 0.  1.
         11   -1    0    0    0    0 -0.00000000000E+00 -0.00000000000E+00 -0.45593999997E+02  0.45594000000E+02  0.51100000000E-03 0. -1.
    9900012    2    1    2    0    0  0.21067584644E+02  0.15467085991E+02  0.36688413612E+02  0.46142316909E+02  0.99999922294E+01 0.  0.
         12    1    1    2    0    0 -0.21067584644E+02 -0.15467085991E+02 -0.36688413612E+02  0.45045683091E+02  0.00000000000E+00 0. -1.
         11    1    3    3    0    0  0.13461133513E+02  0.13031053772E+02  0.20321114519E+02  0.27639793295E+02  0.51100000000E-03 0. -1.
        -11    1    3    3    0    0  0.54472325135E+01  0.32127208575E+01  0.11607270304E+02  0.13218269233E+02  0.51100000000E-03 0.  1.
         12    1    3    3    0    0  0.21592186176E+01 -0.77668863836E+00  0.47600287897E+01  0.52842543805E+01  0.00000000000E+00 0. -1.
</event>
<event>
 7    1  0.2353206E-008  0.4614232E+02  0.7816164E-02  0.1320468E+00
        -11   -1    0    0    0    0  0.00000000000E+00  0.00000000000E+00  0.45593999997E+02  0.45594000000E+02  0.51100000000E-03 0.  1.
         11   -1    0    0    0    0 -0.00000000000E+00 -0.00000000000E+00 -0.45593999997E+02  0.45594000000E+02  0.51100000000E-03 0. -1.
    9900012    2    1    2    0    0  0.21694908145E+02  0.13328307404E+02  0.37159127019E+02  0.46142317205E+02  0.99999949255E+01 0.  0.
         12    1    1    2    0    0 -0.21694908145E+02 -0.13328307404E+02 -0.37159127019E+02  0.45045682795E+02  0.00000000000E+00 0. -1.
         11    1    3    3    0    0  0.70985028579E+01  0.38944877831E+01  0.14541090780E+02  0.16643289916E+02  0.51100000000E-03 0.  1.
        -11    1    3    3    0    0  0.14678256050E+01 -0.58211229250E+00  0.10946944674E+00  0.15828299178E+01  0.51100000000E-03 0. -1.
         12    1    3    3    0    0  0.13128579682E+02  0.10015931913E+02  0.22508566793E+02  0.27916197371E+02  0.00000000000E+00 0. -1.
</event>
<event>
 7    1  0.2353206E-008  0.4614232E+02  0.7816164E-02  0.1320468E+00
        -11   -1    0    0    0    0  0.00000000000E+00  0.00000000000E+00  0.45593999997E+02  0.45594000000E+02  0.51100000000E-03 0.  1.
         11   -1    0    0    0    0 -0.00000000000E+00 -0.00000000000E+00 -0.45593999997E+02  0.45594000000E+02  0.51100000000E-03 0. -1.
    9900012    2    1    2    0    0 -0.57824486493E+00 -0.23788931230E+02  0.38247429463E+02  0.46142317891E+02  0.10000001181E+02 0.  0.
         12    1    1    2    0    0  0.57824486493E+00  0.23788931230E+02 -0.38247429463E+02  0.45045682109E+02  0.00000000000E+00 0. -1.
         11    1    3    3    0    0  0.98540789128E+00 -0.20876571566E+01  0.22813961921E+01  0.32456293631E+01  0.51100000000E-03 0. -1.
        -11    1    3    3    0    0  0.17689292953E+01 -0.18254360422E+02  0.30814637316E+02  0.35859345482E+02  0.51100000000E-03 0.  1.
         12    1    3    3    0    0 -0.33325820515E+01 -0.34469136518E+01  0.51513959550E+01  0.70373430454E+01  0.00000000000E+00 0. -1.
</event>
<event>
 7    1  0.2353206E-008  0.4614232E+02  0.7816164E-02  0.1320468E+00
        -11   -1    0    0    0    0  0.00000000000E+00  0.00000000000E+00  0.45593999997E+02  0.45594000000E+02  0.51100000000E-03 0. -1.
         11   -1    0    0    0    0 -0.00000000000E+00 -0.00000000000E+00 -0.45593999997E+02  0.45594000000E+02  0.51100000000E-03 0.  1.
    9900012    2    1    2    0    0 -0.64493944666E+01 -0.17894407553E+02 -0.40832695748E+02  0.46142317047E+02  0.99999934878E+01 0.  0.
         12    1    1    2    0    0  0.64493944666E+01  0.17894407553E+02  0.40832695748E+02  0.45045682953E+02  0.00000000000E+00 0. -1.
         11    1    3    3    0    0 -0.14666345488E+01 -0.65396466853E-02 -0.53107028176E+01  0.55095030941E+01  0.51100000000E-03 0. -1.
        -11    1    3    3    0    0 -0.19146131466E+01 -0.11356934061E+02 -0.15218951634E+02  0.19085653875E+02  0.51100000000E-03 0.  1.
        -12    1    3    3    0    0 -0.30681467712E+01 -0.65309338456E+01 -0.20303041297E+02  0.21547160078E+02  0.00000000000E+00 0.  1.
</event>
<event>
 7    1  0.2353206E-008  0.4614232E+02  0.7816164E-02  0.1320468E+00
        -11   -1    0    0    0    0  0.00000000000E+00  0.00000000000E+00  0.45593999997E+02  0.45594000000E+02  0.51100000000E-03 0.  1.
         11   -1    0    0    0    0 -0.00000000000E+00 -0.00000000000E+00 -0.45593999997E+02  0.45594000000E+02  0.51100000000E-03 0. -1.
    9900012    2    1    2    0    0  0.18908819718E+02 -0.26176652952E+02  0.31406252240E+02  0.46142319823E+02  0.10000018798E+02 0.  0.
         12    1    1    2    0    0 -0.18908819718E+02  0.26176652952E+02 -0.31406252240E+02  0.45045680177E+02  0.00000000000E+00 0. -1.
         11    1    3    3    0    0  0.85233786684E+01 -0.10408933663E+02  0.97164072751E+01  0.16595253976E+02  0.51100000000E-03 0. -1.
        -11    1    3    3    0    0  0.11156510234E+02 -0.15588202172E+02  0.20125535135E+02  0.27793829033E+02  0.51100000000E-03 0.  1.
         12    1    3    3    0    0 -0.77106918416E+00 -0.17951711606E+00  0.15643098300E+01  0.17532368140E+01  0.00000000000E+00 0. -1.
</event>
<event>
 7    1  0.2353206E-008  0.4614232E+02  0.7816164E-02  0.1320468E+00
        -11   -1    0    0    0    0  0.00000000000E+00  0.00000000000E+00  0.45593999997E+02  0.45594000000E+02  0.51100000000E-03 0. -1.
         11   -1    0    0    0    0 -0.00000000000E+00 -0.00000000000E+00 -0.45593999997E+02  0.45594000000E+02  0.51100000000E-03 0.  1.
    9900012    2    1    2    0    0  0.20823971085E+02  0.39082796659E+02  0.82468608656E+01  0.46142317847E+02  0.10000000784E+02 0.  0.
         12    1    1    2    0    0 -0.20823971085E+02 -0.39082796659E+02 -0.82468608656E+01  0.45045682153E+02  0.00000000000E+00 0. -1.
         11    1    3    3    0    0  0.30426002795E+01  0.75901702710E+01  0.24362231041E+01  0.85324840743E+01  0.51100000000E-03 0. -1.
        -11    1    3    3    0    0  0.82275492053E+01  0.85231135020E+01  0.45843396863E+01  0.12702448595E+02  0.51100000000E-03 0.  1.
        -12    1    3    3    0    0  0.95538216006E+01  0.22969512886E+02  0.12262980752E+01  0.24907385178E+02  0.00000000000E+00 0.  1.
</event>
<event>
 7    1  0.2353206E-008  0.4614233E+02  0.7816164E-02  0.1320468E+00
        -11   -1    0    0    0    0  0.00000000000E+00  0.00000000000E+00  0.45593999997E+02  0.45594000000E+02  0.51100000000E-03 0.  1.
         11   -1    0    0    0    0 -0.00000000000E+00 -0.00000000000E+00 -0.45593999997E+02  0.45594000000E+02  0.51100000000E-03 0. -1.
    9900012    2    1    2    0    0  0.36087885666E+02 -0.25930484540E+02  0.73747630396E+01  0.46142327064E+02  0.10000084834E+02 0.  0.
         12    1    1    2    0    0 -0.36087885666E+02  0.25930484540E+02 -0.73747630396E+01  0.45045672936E+02  0.00000000000E+00 0. -1.
         11    1    3    3    0    0  0.11212608178E+02 -0.57757491953E+01 -0.80950256173E+00  0.12638716532E+02  0.51100000000E-03 0. -1.
        -11    1    3    3    0    0  0.10449663080E+02 -0.58925910494E+01  0.48775245104E+01  0.12950225225E+02  0.51100000000E-03 0.  1.
        -12    1    3    3    0    0  0.14425614408E+02 -0.14262144295E+02  0.33067410909E+01  0.20553385307E+02  0.00000000000E+00 0.  1.
</event>
<event>
 7    1  0.2353206E-008  0.4614232E+02  0.7816164E-02  0.1320468E+00
        -11   -1    0    0    0    0  0.00000000000E+00  0.00000000000E+00  0.45593999997E+02  0.45594000000E+02  0.51100000000E-03 0.  1.
         11   -1    0    0    0    0 -0.00000000000E+00 -0.00000000000E+00 -0.45593999997E+02  0.45594000000E+02  0.51100000000E-03 0. -1.
    9900012    2    1    2    0    0  0.42376494960E+02 -0.24283999464E+00  0.15273741569E+02  0.46142317878E+02  0.10000001063E+02 0.  0.
         12    1    1    2    0    0 -0.42376494960E+02  0.24283999464E+00 -0.15273741569E+02  0.45045682122E+02  0.00000000000E+00 0. -1.
         11    1    3    3    0    0  0.44454425049E+00 -0.13138466657E+01  0.50155965617E+00  0.14749152522E+01  0.51100000000E-03 0. -1.
        -11    1    3    3    0    0  0.80756201604E+01  0.15197108033E+01  0.39746271373E+01  0.91281336013E+01  0.51100000000E-03 0.  1.
        -12    1    3    3    0    0  0.33856330549E+02 -0.44870413225E+00  0.10797554775E+02  0.35539269024E+02  0.00000000000E+00 0.  1.
</event>
<event>
 7    1  0.2353206E-008  0.4614232E+02  0.7816164E-02  0.1320468E+00
        -11   -1    0    0    0    0  0.00000000000E+00  0.00000000000E+00  0.45593999997E+02  0.45594000000E+02  0.51100000000E-03 0. -1.
         11   -1    0    0    0    0 -0.00000000000E+00 -0.00000000000E+00 -0.45593999997E+02  0.45594000000E+02  0.51100000000E-03 0.  1.
    9900012    2    1    2    0    0  0.33236887292E+02 -0.28503878022E+02 -0.10580720560E+02  0.46142318889E+02  0.10000010287E+02 0.  0.
         12    1    1    2    0    0 -0.33236887292E+02  0.28503878022E+02  0.10580720560E+02  0.45045681111E+02  0.00000000000E+00 0. -1.
         11    1    3    3    0    0  0.14179149757E+01 -0.95895262182E+00  0.40766625080E+00  0.17596207098E+01  0.51100000000E-03 0. -1.
        -11    1    3    3    0    0  0.22714626911E+02 -0.21928960666E+02 -0.11678506924E+02  0.33663349742E+02  0.51100000000E-03 0.  1.
        -12    1    3    3    0    0  0.91043454052E+01 -0.56159647339E+01  0.69012011303E+00  0.10719348437E+02  0.00000000000E+00 0.  1.
</event>
<event>
 7    1  0.2353206E-008  0.4614232E+02  0.7816164E-02  0.1320468E+00
        -11   -1    0    0    0    0  0.00000000000E+00  0.00000000000E+00  0.45593999997E+02  0.45594000000E+02  0.51100000000E-03 0. -1.
         11   -1    0    0    0    0 -0.00000000000E+00 -0.00000000000E+00 -0.45593999997E+02  0.45594000000E+02  0.51100000000E-03 0.  1.
    9900012    2    1    2    0    0 -0.42737309763E+02 -0.13598700956E+02  0.42084595489E+01  0.46142318240E+02  0.10000004369E+02 0.  0.
         12    1    1    2    0    0  0.42737309763E+02  0.13598700956E+02 -0.42084595489E+01  0.45045681760E+02  0.00000000000E+00 0. -1.
         11    1    3    3    0    0 -0.12565121570E+02 -0.15897460139E+01  0.32635907143E+01  0.13079013612E+02  0.51100000000E-03 0. -1.
        -11    1    3    3    0    0 -0.26015505509E+02 -0.10825039999E+02  0.28864063029E+01  0.28325242443E+02  0.51100000000E-03 0.  1.
         12    1    3    3    0    0 -0.41566826837E+01 -0.11839149425E+01 -0.19415374683E+01  0.47380621846E+01  0.00000000000E+00 0. -1.
</event>
<event>
 7    1  0.2353206E-008  0.4614232E+02  0.7816164E-02  0.1320468E+00
        -11   -1    0    0    0    0  0.00000000000E+00  0.00000000000E+00  0.45593999997E+02  0.45594000000E+02  0.51100000000E-03 0.  1.
         11   -1    0    0    0    0 -0.00000000000E+00 -0.00000000000E+00 -0.45593999997E+02  0.45594000000E+02  0.51100000000E-03 0. -1.
    9900012    2    1    2    0    0  0.10328351122E+02  0.43791640888E+02  0.21750432583E+01  0.46142318057E+02  0.10000002698E+02 0.  0.
         12    1    1    2    0    0 -0.10328351122E+02 -0.43791640888E+02 -0.21750432583E+01  0.45045681943E+02  0.00000000000E+00 0. -1.
         11    1    3    3    0    0  0.35906390392E+01  0.84282685969E+01 -0.10203003911E+01  0.92178855168E+01  0.51100000000E-03 0. -1.
        -11    1    3    3    0    0  0.43697086758E+01  0.77776972325E+01  0.23452120715E+01  0.92242586733E+01  0.51100000000E-03 0.  1.
         12    1    3    3    0    0  0.23680034072E+01  0.27585675058E+02  0.85013157793E+00  0.27700173867E+02  0.00000000000E+00 0. -1.
</event>
<event>
 7    1  0.2353206E-008  0.4614232E+02  0.7816164E-02  0.1320468E+00
        -11   -1    0    0    0    0  0.00000000000E+00  0.00000000000E+00  0.45593999997E+02  0.45594000000E+02  0.51100000000E-03 0.  1.
         11   -1    0    0    0    0 -0.00000000000E+00 -0.00000000000E+00 -0.45593999997E+02  0.45594000000E+02  0.51100000000E-03 0. -1.
    9900012    2    1    2    0    0 -0.78711516768E+01 -0.17309460471E+02  0.40835536051E+02  0.46142318130E+02  0.10000003365E+02 0.  0.
         12    1    1    2    0    0  0.78711516768E+01  0.17309460471E+02 -0.40835536051E+02  0.45045681870E+02  0.00000000000E+00 0. -1.
         11    1    3    3    0    0 -0.16021893020E+01 -0.52027114537E+00  0.97206577878E+01  0.98655400619E+01  0.51100000000E-03 0. -1.
        -11    1    3    3    0    0 -0.17346524282E+01 -0.70636053301E+00  0.41682200844E+01  0.45696852389E+01  0.51100000000E-03 0.  1.
        -12    1    3    3    0    0 -0.45343099465E+01 -0.16082828793E+02  0.26946658179E+02  0.31707092829E+02  0.00000000000E+00 0.  1.
</event>
<event>
 7    1  0.2353206E-008  0.4614232E+02  0.7816164E-02  0.1320468E+00
        -11   -1    0    0    0    0  0.00000000000E+00  0.00000000000E+00  0.45593999997E+02  0.45594000000E+02  0.51100000000E-03 0. -1.
         11   -1    0    0    0    0 -0.00000000000E+00 -0.00000000000E+00 -0.45593999997E+02  0.45594000000E+02  0.51100000000E-03 0.  1.
    9900012    2    1    2    0    0  0.28338036738E+02 -0.33408707781E+02  0.10484627050E+02  0.46142317786E+02  0.10000000227E+02 0.  0.
         12    1    1    2    0    0 -0.28338036738E+02  0.33408707781E+02 -0.10484627050E+02  0.45045682214E+02  0.00000000000E+00 0. -1.
         11    1    3    3    0    0  0.12491893726E+02 -0.20763968544E+02  0.48164244896E+01  0.24706026465E+02  0.51100000000E-03 0. -1.
        -11    1    3    3    0    0  0.10396135592E+02 -0.10614113678E+02  0.40622502414E+01  0.15402627104E+02  0.51100000000E-03 0.  1.
        -12    1    3    3    0    0  0.54500074196E+01 -0.20306255588E+01  0.16059523192E+01  0.60336642172E+01  0.00000000000E+00 0.  1.
</event>
<event>
 7    1  0.2353206E-008  0.4614232E+02  0.7816164E-02  0.1320468E+00
        -11   -1    0    0    0    0  0.00000000000E+00  0.00000000000E+00  0.45593999997E+02  0.45594000000E+02  0.51100000000E-03 0. -1.
         11   -1    0    0    0    0 -0.00000000000E+00 -0.00000000000E+00 -0.45593999997E+02  0.45594000000E+02  0.51100000000E-03 0.  1.
    9900012    2    1    2    0    0  0.15555705718E+02 -0.16483327766E+02 -0.38928568773E+02  0.46142317173E+02  0.99999946410E+01 0.  0.
         12    1    1    2    0    0 -0.15555705718E+02  0.16483327766E+02  0.38928568773E+02  0.45045682827E+02  0.00000000000E+00 0. -1.
         11    1    3    3    0    0  0.10317777497E+02 -0.69079144155E+01 -0.22995202534E+02  0.26133410682E+02  0.51100000000E-03 0. -1.
        -11    1    3    3    0    0 -0.25510091762E+00 -0.35797096682E+01 -0.73846035966E+01  0.82104669981E+01  0.51100000000E-03 0.  1.
         12    1    3    3    0    0  0.54930291384E+01 -0.59957036821E+01 -0.85487626426E+01  0.11798439493E+02  0.00000000000E+00 0. -1.
</event>
<event>
 7    1  0.2353206E-008  0.4614232E+02  0.7816164E-02  0.1320468E+00
        -11   -1    0    0    0    0  0.00000000000E+00  0.00000000000E+00  0.45593999997E+02  0.45594000000E+02  0.51100000000E-03 0. -1.
         11   -1    0    0    0    0 -0.00000000000E+00 -0.00000000000E+00 -0.45593999997E+02  0.45594000000E+02  0.51100000000E-03 0.  1.
    9900012    2    1    2    0    0  0.18417136867E+02  0.69900881534E+01 -0.40510014006E+02  0.46142317659E+02  0.99999990722E+01 0.  0.
         12    1    1    2    0    0 -0.18417136867E+02 -0.69900881534E+01  0.40510014006E+02  0.45045682341E+02  0.00000000000E+00 0. -1.
         11    1    3    3    0    0  0.69389440452E+00 -0.12906015539E+01 -0.81005862182E+01  0.82320495112E+01  0.51100000000E-03 0. -1.
        -11    1    3    3    0    0  0.67706275653E+01  0.23102853538E+01 -0.10673420201E+02  0.12849152310E+02  0.51100000000E-03 0.  1.
        -12    1    3    3    0    0  0.10952614897E+02  0.59704043534E+01 -0.21736007587E+02  0.25061115838E+02  0.00000000000E+00 0.  1.
</event>
<event>
 7    1  0.2353206E-008  0.4614232E+02  0.7816164E-02  0.1320468E+00
        -11   -1    0    0    0    0  0.00000000000E+00  0.00000000000E+00  0.45593999997E+02  0.45594000000E+02  0.51100000000E-03 0. -1.
         11   -1    0    0    0    0 -0.00000000000E+00 -0.00000000000E+00 -0.45593999997E+02  0.45594000000E+02  0.51100000000E-03 0.  1.
    9900012    2    1    2    0    0 -0.33487703120E+02  0.27191564157E+02 -0.12973285254E+02  0.46142317057E+02  0.99999935760E+01 0.  0.
         12    1    1    2    0    0  0.33487703120E+02 -0.27191564157E+02  0.12973285254E+02  0.45045682943E+02  0.00000000000E+00 0. -1.
         11    1    3    3    0    0 -0.43915077772E+00  0.13221551796E+01 -0.87540116423E+00  0.16453799512E+01  0.51100000000E-03 0. -1.
        -11    1    3    3    0    0 -0.10501787075E+02  0.13258862472E+02 -0.35211746918E+01  0.17276679001E+02  0.51100000000E-03 0.  1.
         12    1    3    3    0    0 -0.22546765268E+02  0.12610546505E+02 -0.85767093979E+01  0.27220258105E+02  0.00000000000E+00 0. -1.
</event>
<event>
 7    1  0.2353206E-008  0.4614232E+02  0.7816164E-02  0.1320468E+00
        -11   -1    0    0    0    0  0.00000000000E+00  0.00000000000E+00  0.45593999997E+02  0.45594000000E+02  0.51100000000E-03 0.  1.
         11   -1    0    0    0    0 -0.00000000000E+00 -0.00000000000E+00 -0.45593999997E+02  0.45594000000E+02  0.51100000000E-03 0. -1.
    9900012    2    1    2    0    0  0.80111989458E+01 -0.22986976274E+02  0.37901625362E+02  0.46142316612E+02  0.99999895231E+01 0.  0.
         12    1    1    2    0    0 -0.80111989458E+01  0.22986976274E+02 -0.37901625362E+02  0.45045683388E+02  0.00000000000E+00 0. -1.
         11    1    3    3    0    0  0.23222963475E+01 -0.44028703063E+01  0.45592849964E+01  0.67502153446E+01  0.51100000000E-03 0. -1.
        -11    1    3    3    0    0  0.11795319086E+01  0.21857871007E+00  0.54131642599E+00  0.13160911481E+01  0.51100000000E-03 0.  1.
         12    1    3    3    0    0  0.45093706897E+01 -0.18802684678E+02  0.32801023940E+02  0.38076010120E+02  0.00000000000E+00 0. -1.
</event>
<event>
 7    1  0.2353206E-008  0.4614232E+02  0.7816164E-02  0.1320468E+00
        -11   -1    0    0    0    0  0.00000000000E+00  0.00000000000E+00  0.45593999997E+02  0.45594000000E+02  0.51100000000E-03 0.  1.
         11   -1    0    0    0    0 -0.00000000000E+00 -0.00000000000E+00 -0.45593999997E+02  0.45594000000E+02  0.51100000000E-03 0. -1.
    9900012    2    1    2    0    0  0.92830529029E+01  0.34331457788E+02  0.27645788037E+02  0.46142315842E+02  0.99999825037E+01 0.  0.
         12    1    1    2    0    0 -0.92830529029E+01 -0.34331457788E+02 -0.27645788037E+02  0.45045684158E+02  0.00000000000E+00 0. -1.
         11    1    3    3    0    0  0.26125304105E+01  0.62386715351E+01  0.78859389676E+01  0.10389146805E+02  0.51100000000E-03 0. -1.
        -11    1    3    3    0    0 -0.14601219103E+01  0.22360142221E+01  0.13988264572E+01  0.30147025248E+01  0.51100000000E-03 0.  1.
        -12    1    3    3    0    0  0.81306444026E+01  0.25856772031E+02  0.18361022612E+02  0.32738466513E+02  0.00000000000E+00 0.  1.
</event>
<event>
 7    1  0.2353206E-008  0.4614232E+02  0.7816164E-02  0.1320468E+00
        -11   -1    0    0    0    0  0.00000000000E+00  0.00000000000E+00  0.45593999997E+02  0.45594000000E+02  0.51100000000E-03 0.  1.
         11   -1    0    0    0    0 -0.00000000000E+00 -0.00000000000E+00 -0.45593999997E+02  0.45594000000E+02  0.51100000000E-03 0. -1.
    9900012    2    1    2    0    0  0.38071930734E+02 -0.23320578916E+02  0.59826572503E+01  0.46142317648E+02  0.99999989686E+01 0.  0.
         12    1    1    2    0    0 -0.38071930734E+02  0.23320578916E+02 -0.59826572503E+01  0.45045682352E+02  0.00000000000E+00 0. -1.
         11    1    3    3    0    0  0.18411796879E+02 -0.72903118623E+01  0.24548118732E+01  0.19954172820E+02  0.51100000000E-03 0. -1.
        -11    1    3    3    0    0  0.78427663590E+01 -0.39491391964E+01  0.30028231788E+01  0.92801741287E+01  0.51100000000E-03 0.  1.
        -12    1    3    3    0    0  0.11817367496E+02 -0.12081127858E+02  0.52502219825E+00  0.16907970699E+02  0.00000000000E+00 0.  1.
</event>
<event>
 7    1  0.2353206E-008  0.4614232E+02  0.7816164E-02  0.1320468E+00
        -11   -1    0    0    0    0  0.00000000000E+00  0.00000000000E+00  0.45593999997E+02  0.45594000000E+02  0.51100000000E-03 0. -1.
         11   -1    0    0    0    0 -0.00000000000E+00 -0.00000000000E+00 -0.45593999997E+02  0.45594000000E+02  0.51100000000E-03 0.  1.
    9900012    2    1    2    0    0 -0.45497173692E+01  0.81314958762E+01 -0.44071446250E+02  0.46142317322E+02  0.99999959959E+01 0.  0.
         12    1    1    2    0    0  0.45497173692E+01 -0.81314958762E+01  0.44071446250E+02  0.45045682678E+02  0.00000000000E+00 0. -1.
         11    1    3    3    0    0  0.96290569884E-01 -0.12342288964E+01 -0.86158885417E+00  0.15082865965E+01  0.51100000000E-03 0. -1.
        -11    1    3    3    0    0 -0.33091516186E+01  0.92103499403E+01 -0.36417320582E+02  0.37709445356E+02  0.51100000000E-03 0.  1.
        -12    1    3    3    0    0 -0.13368563206E+01  0.15537483235E+00 -0.67925368145E+01  0.69245853693E+01  0.00000000000E+00 0.  1.
</event>
<event>
 7    1  0.2353206E-008  0.4614232E+02  0.7816164E-02  0.1320468E+00
        -11   -1    0    0    0    0  0.00000000000E+00  0.00000000000E+00  0.45593999997E+02  0.45594000000E+02  0.51100000000E-03 0. -1.
         11   -1    0    0    0    0 -0.00000000000E+00 -0.00000000000E+00 -0.45593999997E+02  0.45594000000E+02  0.51100000000E-03 0.  1.
    9900012    2    1    2    0    0 -0.77789924515E+01 -0.11501467560E+02 -0.42852268663E+02  0.46142318640E+02  0.10000008018E+02 0.  0.
         12    1    1    2    0    0  0.77789924515E+01  0.11501467560E+02  0.42852268663E+02  0.45045681360E+02  0.00000000000E+00 0. -1.
         11    1    3    3    0    0 -0.13174551142E+01 -0.96415887820E+01 -0.22616029553E+02  0.24620737504E+02  0.51100000000E-03 0. -1.
        -11    1    3    3    0    0 -0.60556053938E+00 -0.12727286844E+01 -0.47509746436E+01  0.49556333799E+01  0.51100000000E-03 0.  1.
         12    1    3    3    0    0 -0.58559767979E+01 -0.58715009361E+00 -0.15485264466E+02  0.16565947757E+02  0.00000000000E+00 0. -1.
</event>
<event>
 7    1  0.2353206E-008  0.4614231E+02  0.7816164E-02  0.1320468E+00
        -11   -1    0    0    0    0  0.00000000000E+00  0.00000000000E+00  0.45593999997E+02  0.45594000000E+02  0.51100000000E-03 0.  1.
         11   -1    0    0    0    0 -0.00000000000E+00 -0.00000000000E+00 -0.45593999997E+02  0.45594000000E+02  0.51100000000E-03 0. -1.
    9900012    2    1    2    0    0  0.36115913282E+02  0.25111843444E+02  0.97030887603E+01  0.46142314249E+02  0.99999679716E+01 0.  0.
         12    1    1    2    0    0 -0.36115913282E+02 -0.25111843444E+02 -0.97030887603E+01  0.45045685751E+02  0.00000000000E+00 0. -1.
         11    1    3    3    0    0  0.14061683933E+02  0.62797947332E+01  0.18598213869E+00  0.15401343011E+02  0.51100000000E-03 0. -1.
        -11    1    3    3    0    0  0.52852541677E+01  0.66839971439E+01  0.25856843144E+01  0.89048016863E+01  0.51100000000E-03 0.  1.
        -12    1    3    3    0    0  0.16768975181E+02  0.12148051567E+02  0.69314223073E+01  0.21836169551E+02  0.00000000000E+00 0.  1.
</event>
<event>
 7    1  0.2353206E-008  0.4614232E+02  0.7816164E-02  0.1320468E+00
        -11   -1    0    0    0    0  0.00000000000E+00  0.00000000000E+00  0.45593999997E+02  0.45594000000E+02  0.51100000000E-03 0. -1.
         11   -1    0    0    0    0 -0.00000000000E+00 -0.00000000000E+00 -0.45593999997E+02  0.45594000000E+02  0.51100000000E-03 0.  1.
    9900012    2    1    2    0    0 -0.41899328866E+02 -0.12718930486E+02 -0.10573010667E+02  0.46142317558E+02  0.99999981449E+01 0.  0.
         12    1    1    2    0    0  0.41899328866E+02  0.12718930486E+02  0.10573010667E+02  0.45045682442E+02  0.00000000000E+00 0. -1.
         11    1    3    3    0    0 -0.64983762826E+01 -0.15825460977E+01 -0.19809343076E+01  0.69754890476E+01  0.51100000000E-03 0. -1.
        -11    1    3    3    0    0 -0.29923107370E+02 -0.12331363038E+02 -0.88552272846E+01  0.33553985152E+02  0.51100000000E-03 0.  1.
         12    1    3    3    0    0 -0.54778452131E+01  0.11949786496E+01  0.26315092479E+00  0.56128433579E+01  0.00000000000E+00 0. -1.
</event>
<event>
 7    1  0.2353206E-008  0.4614232E+02  0.7816164E-02  0.1320468E+00
        -11   -1    0    0    0    0  0.00000000000E+00  0.00000000000E+00  0.45593999997E+02  0.45594000000E+02  0.51100000000E-03 0. -1.
         11   -1    0    0    0    0 -0.00000000000E+00 -0.00000000000E+00 -0.45593999997E+02  0.45594000000E+02  0.51100000000E-03 0.  1.
    9900012    2    1    2    0    0 -0.35297388348E+02  0.18761043604E+02 -0.20766104099E+02  0.46142318068E+02  0.10000002795E+02 0.  0.
         12    1    1    2    0    0  0.35297388348E+02 -0.18761043604E+02  0.20766104099E+02  0.45045681932E+02  0.00000000000E+00 0. -1.
         11    1    3    3    0    0 -0.24042708782E+01  0.33804890251E+01 -0.25674146508E+01  0.48785082510E+01  0.51100000000E-03 0. -1.
        -11    1    3    3    0    0 -0.21641928763E+02  0.11872479000E+02 -0.88583309723E+01  0.26225919737E+02  0.51100000000E-03 0.  1.
         12    1    3    3    0    0 -0.11251188707E+02  0.35080755791E+01 -0.93403584757E+01  0.15037890079E+02  0.00000000000E+00 0. -1.
</event>
<event>
 7    1  0.2353206E-008  0.4614232E+02  0.7816164E-02  0.1320468E+00
        -11   -1    0    0    0    0  0.00000000000E+00  0.00000000000E+00  0.45593999997E+02  0.45594000000E+02  0.51100000000E-03 0.  1.
         11   -1    0    0    0    0 -0.00000000000E+00 -0.00000000000E+00 -0.45593999997E+02  0.45594000000E+02  0.51100000000E-03 0. -1.
    9900012    2    1    2    0    0 -0.37611907526E+02  0.24118675009E+02 -0.57225322387E+01  0.46142318218E+02  0.10000004169E+02 0.  0.
         12    1    1    2    0    0  0.37611907526E+02 -0.24118675009E+02  0.57225322387E+01  0.45045681782E+02  0.00000000000E+00 0. -1.
         11    1    3    3    0    0 -0.24044131303E+02  0.13632993173E+02 -0.27389299952E+01  0.27775537632E+02  0.51100000000E-03 0. -1.
        -11    1    3    3    0    0 -0.13456404601E+02  0.82301243998E+01 -0.19870530143E+01  0.15898369487E+02  0.51100000000E-03 0.  1.
         12    1    3    3    0    0 -0.11137162230E+00  0.22555574361E+01 -0.99654922922E+00  0.24684110987E+01  0.00000000000E+00 0. -1.
</event>
<event>
 7    1  0.2353206E-008  0.4614232E+02  0.7816164E-02  0.1320468E+00
        -11   -1    0    0    0    0  0.00000000000E+00  0.00000000000E+00  0.45593999997E+02  0.45594000000E+02  0.51100000000E-03 0. -1.
         11   -1    0    0    0    0 -0.00000000000E+00 -0.00000000000E+00 -0.45593999997E+02  0.45594000000E+02  0.51100000000E-03 0.  1.
    9900012    2    1    2    0    0 -0.42050829232E+02  0.57263345729E+01 -0.15101336598E+02  0.46142317479E+02  0.99999974272E+01 0.  0.
         12    1    1    2    0    0  0.42050829232E+02 -0.57263345729E+01  0.15101336598E+02  0.45045682521E+02  0.00000000000E+00 0. -1.
         11    1    3    3    0    0 -0.68191751909E+00  0.80059114673E+00  0.45489997725E+00  0.11458149665E+01  0.51100000000E-03 0. -1.
        -11    1    3    3    0    0 -0.33961576377E+02  0.52404901999E+01 -0.10184417274E+02  0.35840950922E+02  0.51100000000E-03 0.  1.
         12    1    3    3    0    0 -0.74073353358E+01 -0.31474677364E+00 -0.53718193020E+01  0.91555515903E+01  0.00000000000E+00 0. -1.
</event>
<event>
 7    1  0.2353206E-008  0.4614232E+02  0.7816164E-02  0.1320468E+00
        -11   -1    0    0    0    0  0.00000000000E+00  0.00000000000E+00  0.45593999997E+02  0.45594000000E+02  0.51100000000E-03 0.  1.
         11   -1    0    0    0    0 -0.00000000000E+00 -0.00000000000E+00 -0.45593999997E+02  0.45594000000E+02  0.51100000000E-03 0. -1.
    9900012    2    1    2    0    0  0.96988621994E+00 -0.87963505214E+01  0.44167828371E+02  0.46142317357E+02  0.99999963180E+01 0.  0.
         12    1    1    2    0    0 -0.96988621994E+00  0.87963505214E+01 -0.44167828371E+02  0.45045682643E+02  0.00000000000E+00 0. -1.
         11    1    3    3    0    0 -0.29746164303E+01 -0.19102797122E+01  0.98165789176E+01  0.10433730560E+02  0.51100000000E-03 0. -1.
        -11    1    3    3    0    0 -0.90886139024E+00 -0.13440962699E+01  0.13441961782E+02  0.13539533250E+02  0.51100000000E-03 0.  1.
        -12    1    3    3    0    0  0.48533640405E+01 -0.55419745393E+01  0.20909287671E+02  0.22169053548E+02  0.00000000000E+00 0.  1.
</event>
<event>
 7    1  0.2353206E-008  0.4614232E+02  0.7816164E-02  0.1320468E+00
        -11   -1    0    0    0    0  0.00000000000E+00  0.00000000000E+00  0.45593999997E+02  0.45594000000E+02  0.51100000000E-03 0.  1.
         11   -1    0    0    0    0 -0.00000000000E+00 -0.00000000000E+00 -0.45593999997E+02  0.45594000000E+02  0.51100000000E-03 0. -1.
    9900012    2    1    2    0    0  0.27576881922E+02 -0.32056170846E+02  0.15525173660E+02  0.46142317376E+02  0.99999964859E+01 0.  0.
         12    1    1    2    0    0 -0.27576881922E+02  0.32056170846E+02 -0.15525173660E+02  0.45045682624E+02  0.00000000000E+00 0. -1.
         11    1    3    3    0    0  0.10488524305E+02 -0.80197995319E+01  0.36361462310E+01  0.13694812387E+02  0.51100000000E-03 0. -1.
        -11    1    3    3    0    0  0.12386559759E+01 -0.48280817443E+01  0.37855646010E+01  0.62590048383E+01  0.51100000000E-03 0.  1.
         12    1    3    3    0    0  0.15849701641E+02 -0.19208289570E+02  0.81034628286E+01  0.26188500151E+02  0.00000000000E+00 0. -1.
</event>
<event>
 7    1  0.2353206E-008  0.4614232E+02  0.7816164E-02  0.1320468E+00
        -11   -1    0    0    0    0  0.00000000000E+00  0.00000000000E+00  0.45593999997E+02  0.45594000000E+02  0.51100000000E-03 0. -1.
         11   -1    0    0    0    0 -0.00000000000E+00 -0.00000000000E+00 -0.45593999997E+02  0.45594000000E+02  0.51100000000E-03 0.  1.
    9900012    2    1    2    0    0  0.35902309781E+02  0.80124823455E+01 -0.25998803220E+02  0.46142317745E+02  0.99999998501E+01 0.  0.
         12    1    1    2    0    0 -0.35902309781E+02 -0.80124823455E+01  0.25998803220E+02  0.45045682255E+02  0.00000000000E+00 0. -1.
         11    1    3    3    0    0  0.18928917670E+01  0.19183531195E+00 -0.40486069836E+01  0.44733721952E+01  0.51100000000E-03 0. -1.
        -11    1    3    3    0    0  0.27719145386E+02  0.56567741732E+01 -0.14894139325E+02  0.31971635890E+02  0.51100000000E-03 0.  1.
        -12    1    3    3    0    0  0.62902726280E+01  0.21638728603E+01 -0.70560569116E+01  0.96973096593E+01  0.00000000000E+00 0.  1.
</event>
<event>
 7    1  0.2353206E-008  0.4614232E+02  0.7816164E-02  0.1320468E+00
        -11   -1    0    0    0    0  0.00000000000E+00  0.00000000000E+00  0.45593999997E+02  0.45594000000E+02  0.51100000000E-03 0.  1.
         11   -1    0    0    0    0 -0.00000000000E+00 -0.00000000000E+00 -0.45593999997E+02  0.45594000000E+02  0.51100000000E-03 0. -1.
    9900012    2    1    2    0    0  0.74316361022E+01 -0.11472589987E+02  0.42921602313E+02  0.46142317840E+02  0.10000000716E+02 0.  0.
         12    1    1    2    0    0 -0.74316361022E+01  0.11472589987E+02 -0.42921602313E+02  0.45045682160E+02  0.00000000000E+00 0. -1.
         11    1    3    3    0    0  0.19937625480E+01 -0.33732106804E+01  0.42966001107E+01  0.58150160932E+01  0.51100000000E-03 0. -1.
        -11    1    3    3    0    0  0.29973849854E-01  0.41994082261E+00  0.93970672607E+01  0.94064936129E+01  0.51100000000E-03 0.  1.
        -12    1    3    3    0    0  0.54078997044E+01 -0.85193201296E+01  0.29227934942E+02  0.30920808134E+02  0.00000000000E+00 0.  1.
</event>
<event>
 7    1  0.2353206E-008  0.4614232E+02  0.7816164E-02  0.1320468E+00
        -11   -1    0    0    0    0  0.00000000000E+00  0.00000000000E+00  0.45593999997E+02  0.45594000000E+02  0.51100000000E-03 0.  1.
         11   -1    0    0    0    0 -0.00000000000E+00 -0.00000000000E+00 -0.45593999997E+02  0.45594000000E+02  0.51100000000E-03 0. -1.
    9900012    2    1    2    0    0 -0.14790237669E+02 -0.11245794592E+02  0.41035278451E+02  0.46142322029E+02  0.10000038915E+02 0.  0.
         12    1    1    2    0    0  0.14790237669E+02  0.11245794592E+02 -0.41035278451E+02  0.45045677971E+02  0.00000000000E+00 0. -1.
         11    1    3    3    0    0 -0.28208031525E+01 -0.14934511189E+01  0.18550769775E+01  0.36916984605E+01  0.51100000000E-03 0. -1.
        -11    1    3    3    0    0 -0.23669563742E+01 -0.29356967965E+00  0.10407452547E+02  0.10677253131E+02  0.51100000000E-03 0.  1.
        -12    1    3    3    0    0 -0.96024781423E+01 -0.94587737935E+01  0.28772748927E+02  0.31773370437E+02  0.00000000000E+00 0.  1.
</event>
<event>
 7    1  0.2353206E-008  0.4614232E+02  0.7816164E-02  0.1320468E+00
        -11   -1    0    0    0    0  0.00000000000E+00  0.00000000000E+00  0.45593999997E+02  0.45594000000E+02  0.51100000000E-03 0. -1.
         11   -1    0    0    0    0 -0.00000000000E+00 -0.00000000000E+00 -0.45593999997E+02  0.45594000000E+02  0.51100000000E-03 0.  1.
    9900012    2    1    2    0    0 -0.29161650452E+02  0.31697591796E+02 -0.13189937732E+02  0.46142316077E+02  0.99999846422E+01 0.  0.
         12    1    1    2    0    0  0.29161650452E+02 -0.31697591796E+02  0.13189937732E+02  0.45045683923E+02  0.00000000000E+00 0. -1.
         11    1    3    3    0    0 -0.63389086351E+01  0.10125097796E+02 -0.10308002563E+01  0.11990075792E+02  0.51100000000E-03 0. -1.
        -11    1    3    3    0    0 -0.11930268594E+02  0.14831643543E+02 -0.61505635891E+01  0.20003459492E+02  0.51100000000E-03 0.  1.
        -12    1    3    3    0    0 -0.10892473223E+02  0.67408504564E+01 -0.60085738869E+01  0.14148780793E+02  0.00000000000E+00 0.  1.
</event>
<event>
 7    1  0.2353206E-008  0.4614232E+02  0.7816164E-02  0.1320468E+00
        -11   -1    0    0    0    0  0.00000000000E+00  0.00000000000E+00  0.45593999997E+02  0.45594000000E+02  0.51100000000E-03 0. -1.
         11   -1    0    0    0    0 -0.00000000000E+00 -0.00000000000E+00 -0.45593999997E+02  0.45594000000E+02  0.51100000000E-03 0.  1.
    9900012    2    1    2    0    0  0.34020709633E+02  0.68052934624E+01 -0.28729640052E+02  0.46142324063E+02  0.10000057470E+02 0.  0.
         12    1    1    2    0    0 -0.34020709633E+02 -0.68052934624E+01  0.28729640052E+02  0.45045675937E+02  0.00000000000E+00 0. -1.
         11    1    3    3    0    0  0.48308319731E+01  0.13721280193E+01 -0.17913084674E+01  0.53318345004E+01  0.51100000000E-03 0.  1.
        -11    1    3    3    0    0  0.19845061517E+01  0.17675559499E+01 -0.50290783128E+01  0.56880706430E+01  0.51100000000E-03 0. -1.
        -12    1    3    3    0    0  0.27205371508E+02  0.36656094931E+01 -0.21909253272E+02  0.35122418920E+02  0.00000000000E+00 0.  1.
</event>
<event>
 7    1  0.2353206E-008  0.4614232E+02  0.7816164E-02  0.1320468E+00
        -11   -1    0    0    0    0  0.00000000000E+00  0.00000000000E+00  0.45593999997E+02  0.45594000000E+02  0.51100000000E-03 0.  1.
         11   -1    0    0    0    0 -0.00000000000E+00 -0.00000000000E+00 -0.45593999997E+02  0.45594000000E+02  0.51100000000E-03 0. -1.
    9900012    2    1    2    0    0 -0.31973235253E+02 -0.23031957097E+02  0.21825550903E+02  0.46142317716E+02  0.99999995873E+01 0.  0.
         12    1    1    2    0    0  0.31973235253E+02  0.23031957097E+02 -0.21825550903E+02  0.45045682284E+02  0.00000000000E+00 0. -1.
         11    1    3    3    0    0 -0.65218295726E+01 -0.10969349216E+01  0.52620717190E+01  0.84514452156E+01  0.51100000000E-03 0. -1.
        -11    1    3    3    0    0 -0.93969302660E+01 -0.61885210423E+01  0.70190579026E+01  0.13261495587E+02  0.51100000000E-03 0.  1.
         12    1    3    3    0    0 -0.16054475414E+02 -0.15746501133E+02  0.95444212812E+01  0.24429376913E+02  0.00000000000E+00 0. -1.
</event>
<event>
 7    1  0.2353206E-008  0.4614232E+02  0.7816164E-02  0.1320468E+00
        -11   -1    0    0    0    0  0.00000000000E+00  0.00000000000E+00  0.45593999997E+02  0.45594000000E+02  0.51100000000E-03 0.  1.
         11   -1    0    0    0    0 -0.00000000000E+00 -0.00000000000E+00 -0.45593999997E+02  0.45594000000E+02  0.51100000000E-03 0. -1.
    9900012    2    1    2    0    0 -0.28921571452E+02 -0.31382624984E+02  0.14414822746E+02  0.46142316956E+02  0.99999926565E+01 0.  0.
         12    1    1    2    0    0  0.28921571452E+02  0.31382624984E+02 -0.14414822746E+02  0.45045683044E+02  0.00000000000E+00 0. -1.
         11    1    3    3    0    0 -0.11236778594E+02 -0.99328983420E+01  0.66597251011E+01  0.16409741050E+02  0.51100000000E-03 0. -1.
        -11    1    3    3    0    0 -0.20302396284E+01  0.53663088110E-01  0.14525239847E-01  0.20310007188E+01  0.51100000000E-03 0.  1.
        -12    1    3    3    0    0 -0.15654553230E+02 -0.21503389730E+02  0.77405724054E+01  0.27701575187E+02  0.00000000000E+00 0.  1.
</event>
<event>
 7    1  0.2353206E-008  0.4614232E+02  0.7816164E-02  0.1320468E+00
        -11   -1    0    0    0    0  0.00000000000E+00  0.00000000000E+00  0.45593999997E+02  0.45594000000E+02  0.51100000000E-03 0.  1.
         11   -1    0    0    0    0 -0.00000000000E+00 -0.00000000000E+00 -0.45593999997E+02  0.45594000000E+02  0.51100000000E-03 0. -1.
    9900012    2    1    2    0    0 -0.40849651988E+01  0.28145613751E+02  0.34932090744E+02  0.46142317878E+02  0.10000001065E+02 0.  0.
         12    1    1    2    0    0  0.40849651988E+01 -0.28145613751E+02 -0.34932090744E+02  0.45045682122E+02  0.00000000000E+00 0. -1.
         11    1    3    3    0    0  0.12503974267E+00  0.16730667879E+02  0.18117506238E+02  0.24661202630E+02  0.51100000000E-03 0. -1.
        -11    1    3    3    0    0  0.37041315141E+00  0.63162297787E+01  0.62912478762E+01  0.89225424976E+01  0.51100000000E-03 0.  1.
        -12    1    3    3    0    0 -0.45804180928E+01  0.50987160938E+01  0.10523336630E+02  0.12558572751E+02  0.00000000000E+00 0.  1.
</event>
<event>
 7    1  0.2353206E-008  0.4614232E+02  0.7816164E-02  0.1320468E+00
        -11   -1    0    0    0    0  0.00000000000E+00  0.00000000000E+00  0.45593999997E+02  0.45594000000E+02  0.51100000000E-03 0.  1.
         11   -1    0    0    0    0 -0.00000000000E+00 -0.00000000000E+00 -0.45593999997E+02  0.45594000000E+02  0.51100000000E-03 0. -1.
    9900012    2    1    2    0    0  0.21426220322E+02  0.16286490584E+02  0.36121749479E+02  0.46142317873E+02  0.10000001019E+02 0.  0.
         12    1    1    2    0    0 -0.21426220322E+02 -0.16286490584E+02 -0.36121749479E+02  0.45045682127E+02  0.00000000000E+00 0. -1.
         11    1    3    3    0    0 -0.48776449112E+00 -0.68610613591E+00  0.10542426507E+01  0.13491047610E+01  0.51100000000E-03 0. -1.
        -11    1    3    3    0    0  0.81125582901E+00  0.19016000001E+00  0.17041832062E+01  0.18969811562E+01  0.51100000000E-03 0.  1.
        -12    1    3    3    0    0  0.21102728984E+02  0.16782436720E+02  0.33363323622E+02  0.42896231956E+02  0.00000000000E+00 0.  1.
</event>
<event>
 7    1  0.2353206E-008  0.4614232E+02  0.7816164E-02  0.1320468E+00
        -11   -1    0    0    0    0  0.00000000000E+00  0.00000000000E+00  0.45593999997E+02  0.45594000000E+02  0.51100000000E-03 0.  1.
         11   -1    0    0    0    0 -0.00000000000E+00 -0.00000000000E+00 -0.45593999997E+02  0.45594000000E+02  0.51100000000E-03 0. -1.
    9900012    2    1    2    0    0 -0.23413528070E+02 -0.10260960953E+01  0.38469044117E+02  0.46142317353E+02  0.99999962802E+01 0.  0.
         12    1    1    2    0    0  0.23413528070E+02  0.10260960953E+01 -0.38469044117E+02  0.45045682647E+02  0.00000000000E+00 0. -1.
         11    1    3    3    0    0 -0.70615333732E+00  0.22741953262E+00  0.35970415803E+00  0.82447530105E+00  0.51100000000E-03 0. -1.
        -11    1    3    3    0    0 -0.66020599121E+01 -0.20065931136E+01  0.50967194669E+01  0.85784707607E+01  0.51100000000E-03 0.  1.
        -12    1    3    3    0    0 -0.16105314820E+02  0.75307748568E+00  0.33012620492E+02  0.36739371291E+02  0.00000000000E+00 0.  1.
</event>
<event>
 7    1  0.2353206E-008  0.4614232E+02  0.7816164E-02  0.1320468E+00
        -11   -1    0    0    0    0  0.00000000000E+00  0.00000000000E+00  0.45593999997E+02  0.45594000000E+02  0.51100000000E-03 0.  1.
         11   -1    0    0    0    0 -0.00000000000E+00 -0.00000000000E+00 -0.45593999997E+02  0.45594000000E+02  0.51100000000E-03 0. -1.
    9900012    2    1    2    0    0  0.34193634655E+02  0.28599307181E+02  0.64798438740E+01  0.46142318755E+02  0.10000009066E+02 0.  0.
         12    1    1    2    0    0 -0.34193634655E+02 -0.28599307181E+02 -0.64798438740E+01  0.45045681245E+02  0.00000000000E+00 0. -1.
         11    1    3    3    0    0  0.44477234709E-01  0.53985799493E+00 -0.46234341151E+00  0.71217032400E+00  0.51100000000E-03 0. -1.
        -11    1    3    3    0    0  0.24725413606E+02  0.23258321166E+02  0.77637747751E+01  0.34822001385E+02  0.51100000000E-03 0.  1.
        -12    1    3    3    0    0  0.94237438146E+01  0.48011280195E+01 -0.82158748958E+00  0.10608147046E+02  0.00000000000E+00 0.  1.
</event>
<event>
 7    1  0.2353206E-008  0.4614232E+02  0.7816164E-02  0.1320468E+00
        -11   -1    0    0    0    0  0.00000000000E+00  0.00000000000E+00  0.45593999997E+02  0.45594000000E+02  0.51100000000E-03 0. -1.
         11   -1    0    0    0    0 -0.00000000000E+00 -0.00000000000E+00 -0.45593999997E+02  0.45594000000E+02  0.51100000000E-03 0.  1.
    9900012    2    1    2    0    0 -0.41198149895E+02 -0.14232658601E+02  0.11369142215E+02  0.46142317406E+02  0.99999967636E+01 0.  0.
         12    1    1    2    0    0  0.41198149895E+02  0.14232658601E+02 -0.11369142215E+02  0.45045682594E+02  0.00000000000E+00 0. -1.
         11    1    3    3    0    0 -0.14197495026E+02 -0.60248844003E+01  0.17958103027E+01  0.15527170765E+02  0.51100000000E-03 0. -1.
        -11    1    3    3    0    0 -0.12617939320E+02 -0.41671738214E+00  0.29310300084E+01  0.12960593475E+02  0.51100000000E-03 0.  1.
        -12    1    3    3    0    0 -0.14382715549E+02 -0.77910568186E+01  0.66423019040E+01  0.17654553166E+02  0.00000000000E+00 0.  1.
</event>
<event>
 7    1  0.2353206E-008  0.4614232E+02  0.7816164E-02  0.1320468E+00
        -11   -1    0    0    0    0  0.00000000000E+00  0.00000000000E+00  0.45593999997E+02  0.45594000000E+02  0.51100000000E-03 0.  1.
         11   -1    0    0    0    0 -0.00000000000E+00 -0.00000000000E+00 -0.45593999997E+02  0.45594000000E+02  0.51100000000E-03 0. -1.
    9900012    2    1    2    0    0  0.39431371658E+02 -0.13415524556E+02  0.17155291195E+02  0.46142318898E+02  0.10000010370E+02 0.  0.
         12    1    1    2    0    0 -0.39431371658E+02  0.13415524556E+02 -0.17155291195E+02  0.45045681102E+02  0.00000000000E+00 0. -1.
         11    1    3    3    0    0  0.27459288025E+01  0.10416506962E+01  0.47029770024E+00  0.29742799716E+01  0.51100000000E-03 0. -1.
        -11    1    3    3    0    0  0.19984021439E+02 -0.55931489975E+01  0.68369910745E+01  0.21849230553E+02  0.51100000000E-03 0.  1.
         12    1    3    3    0    0  0.16701421417E+02 -0.88640262551E+01  0.98480024200E+01  0.21318808373E+02  0.00000000000E+00 0. -1.
</event>
<event>
 7    1  0.2353206E-008  0.4614232E+02  0.7816164E-02  0.1320468E+00
        -11   -1    0    0    0    0  0.00000000000E+00  0.00000000000E+00  0.45593999997E+02  0.45594000000E+02  0.51100000000E-03 0. -1.
         11   -1    0    0    0    0 -0.00000000000E+00 -0.00000000000E+00 -0.45593999997E+02  0.45594000000E+02  0.51100000000E-03 0.  1.
    9900012    2    1    2    0    0 -0.42815925189E+02 -0.27386508633E+01  0.13726247139E+02  0.46142317423E+02  0.99999969170E+01 0.  0.
         12    1    1    2    0    0  0.42815925189E+02  0.27386508633E+01 -0.13726247139E+02  0.45045682577E+02  0.00000000000E+00 0. -1.
         11    1    3    3    0    0 -0.28584583547E+02 -0.43068059513E+01  0.62298601391E+01  0.29570900420E+02  0.51100000000E-03 0.  1.
        -11    1    3    3    0    0 -0.13626275922E+02  0.11986026863E+01  0.78582366311E+01  0.15775421614E+02  0.51100000000E-03 0. -1.
        -12    1    3    3    0    0 -0.60506571962E+00  0.36955240166E+00 -0.36184963107E+00  0.79599538827E+00  0.00000000000E+00 0.  1.
</event>
<event>
 7    1  0.2353206E-008  0.4614232E+02  0.7816164E-02  0.1320468E+00
        -11   -1    0    0    0    0  0.00000000000E+00  0.00000000000E+00  0.45593999997E+02  0.45594000000E+02  0.51100000000E-03 0.  1.
         11   -1    0    0    0    0 -0.00000000000E+00 -0.00000000000E+00 -0.45593999997E+02  0.45594000000E+02  0.51100000000E-03 0. -1.
    9900012    2    1    2    0    0 -0.29595399702E+02 -0.33569273171E+02  0.51312482725E+01  0.46142317703E+02  0.99999994743E+01 0.  0.
         12    1    1    2    0    0  0.29595399702E+02  0.33569273171E+02 -0.51312482725E+01  0.45045682297E+02  0.00000000000E+00 0. -1.
         11    1    3    3    0    0 -0.18321639945E+00 -0.26030959565E+00  0.67284311489E+00  0.74434363905E+00  0.51100000000E-03 0. -1.
        -11    1    3    3    0    0 -0.20120824656E+02 -0.24790399981E+02  0.66235307108E+01  0.32608015508E+02  0.51100000000E-03 0.  1.
        -12    1    3    3    0    0 -0.92913586470E+01 -0.85185635941E+01 -0.21651255532E+01  0.12789958556E+02  0.00000000000E+00 0.  1.
</event>
<event>
 7    1  0.2353206E-008  0.4614230E+02  0.7816164E-02  0.1320468E+00
        -11   -1    0    0    0    0  0.00000000000E+00  0.00000000000E+00  0.45593999997E+02  0.45594000000E+02  0.51100000000E-03 0. -1.
         11   -1    0    0    0    0 -0.00000000000E+00 -0.00000000000E+00 -0.45593999997E+02  0.45594000000E+02  0.51100000000E-03 0.  1.
    9900012    2    1    2    0    0 -0.53729200383E+01  0.14863067742E+02 -0.42182173572E+02  0.46142302983E+02  0.99998652436E+01 0.  0.
         12    1    1    2    0    0  0.53729200383E+01 -0.14863067742E+02  0.42182173572E+02  0.45045697017E+02  0.00000000000E+00 0. -1.
         11    1    3    3    0    0  0.20786725536E+01  0.11980517006E+01 -0.41846585144E+01  0.48236474380E+01  0.51100000000E-03 0. -1.
        -11    1    3    3    0    0 -0.45902191051E+01  0.11126778163E+02 -0.24614840264E+02  0.27400103379E+02  0.51100000000E-03 0.  1.
        -12    1    3    3    0    0 -0.28613734868E+01  0.25382378784E+01 -0.13382674794E+02  0.13918552166E+02  0.00000000000E+00 0.  1.
</event>
<event>
 7    1  0.2353206E-008  0.4614232E+02  0.7816164E-02  0.1320468E+00
        -11   -1    0    0    0    0  0.00000000000E+00  0.00000000000E+00  0.45593999997E+02  0.45594000000E+02  0.51100000000E-03 0.  1.
         11   -1    0    0    0    0 -0.00000000000E+00 -0.00000000000E+00 -0.45593999997E+02  0.45594000000E+02  0.51100000000E-03 0. -1.
    9900012    2    1    2    0    0  0.40966234264E+01  0.38731535625E+02  0.22631818209E+02  0.46142319066E+02  0.10000011901E+02 0.  0.
         12    1    1    2    0    0 -0.40966234264E+01 -0.38731535625E+02 -0.22631818209E+02  0.45045680934E+02  0.00000000000E+00 0. -1.
         11    1    3    3    0    0 -0.19298572996E+01  0.87204459986E+01  0.42842301187E+01  0.99058142312E+01  0.51100000000E-03 0. -1.
        -11    1    3    3    0    0 -0.35326586985E+00  0.16399648588E+01  0.27933517541E+01  0.32583885275E+01  0.51100000000E-03 0.  1.
        -12    1    3    3    0    0  0.63797465958E+01  0.28371124767E+02  0.15554236336E+02  0.32978116307E+02  0.00000000000E+00 0.  1.
</event>
<event>
 7    1  0.2353206E-008  0.4614232E+02  0.7816164E-02  0.1320468E+00
        -11   -1    0    0    0    0  0.00000000000E+00  0.00000000000E+00  0.45593999997E+02  0.45594000000E+02  0.51100000000E-03 0.  1.
         11   -1    0    0    0    0 -0.00000000000E+00 -0.00000000000E+00 -0.45593999997E+02  0.45594000000E+02  0.51100000000E-03 0. -1.
    9900012    2    1    2    0    0  0.17885405067E+02 -0.16302282001E+02  0.37992911694E+02  0.46142318167E+02  0.10000003701E+02 0.  0.
         12    1    1    2    0    0 -0.17885405067E+02  0.16302282001E+02 -0.37992911694E+02  0.45045681833E+02  0.00000000000E+00 0. -1.
         11    1    3    3    0    0  0.54976279546E+00 -0.19349097384E+01  0.22491793724E+01  0.30174364844E+01  0.51100000000E-03 0. -1.
        -11    1    3    3    0    0  0.63760483456E+01 -0.52074531080E+00  0.11019381734E+02  0.12741740158E+02  0.51100000000E-03 0.  1.
        -12    1    3    3    0    0  0.10959593926E+02 -0.13846626952E+02  0.24724350587E+02  0.30383141525E+02  0.00000000000E+00 0.  1.
</event>
<event>
 7    1  0.2353206E-008  0.4614232E+02  0.7816164E-02  0.1320468E+00
        -11   -1    0    0    0    0  0.00000000000E+00  0.00000000000E+00  0.45593999997E+02  0.45594000000E+02  0.51100000000E-03 0.  1.
         11   -1    0    0    0    0 -0.00000000000E+00 -0.00000000000E+00 -0.45593999997E+02  0.45594000000E+02  0.51100000000E-03 0. -1.
    9900012    2    1    2    0    0 -0.29063678831E+01 -0.26445729119E+02  0.36349551498E+02  0.46142318109E+02  0.10000003177E+02 0.  0.
         12    1    1    2    0    0  0.29063678831E+01  0.26445729119E+02 -0.36349551498E+02  0.45045681891E+02  0.00000000000E+00 0. -1.
         11    1    3    3    0    0  0.95075605591E+00 -0.11566274078E+02  0.11007552991E+02  0.15995276060E+02  0.51100000000E-03 0.  1.
        -11    1    3    3    0    0 -0.93917235217E+00 -0.14990992607E+01  0.72133079387E+01  0.74270556063E+01  0.51100000000E-03 0. -1.
        -12    1    3    3    0    0 -0.29179515869E+01 -0.13380355780E+02  0.18128690568E+02  0.22719986443E+02  0.00000000000E+00 0.  1.
</event>
<event>
 7    1  0.2353206E-008  0.4614232E+02  0.7816164E-02  0.1320468E+00
        -11   -1    0    0    0    0  0.00000000000E+00  0.00000000000E+00  0.45593999997E+02  0.45594000000E+02  0.51100000000E-03 0.  1.
         11   -1    0    0    0    0 -0.00000000000E+00 -0.00000000000E+00 -0.45593999997E+02  0.45594000000E+02  0.51100000000E-03 0. -1.
    9900012    2    1    2    0    0 -0.27802025143E+02  0.11442382086E+02  0.33544490041E+02  0.46142317388E+02  0.99999966006E+01 0.  0.
         12    1    1    2    0    0  0.27802025143E+02 -0.11442382086E+02 -0.33544490041E+02  0.45045682612E+02  0.00000000000E+00 0. -1.
         11    1    3    3    0    0 -0.34782727284E+01  0.40699503691E+01  0.80735562168E+01  0.96873725760E+01  0.51100000000E-03 0. -1.
        -11    1    3    3    0    0 -0.88732506339E+00  0.16009803404E+01  0.10102843326E+01  0.20907315735E+01  0.51100000000E-03 0.  1.
        -12    1    3    3    0    0 -0.23436427351E+02  0.57714513764E+01  0.24460649491E+02  0.34364213239E+02  0.00000000000E+00 0.  1.
</event>
<event>
 7    1  0.2353206E-008  0.4614232E+02  0.7816164E-02  0.1320468E+00
        -11   -1    0    0    0    0  0.00000000000E+00  0.00000000000E+00  0.45593999997E+02  0.45594000000E+02  0.51100000000E-03 0. -1.
         11   -1    0    0    0    0 -0.00000000000E+00 -0.00000000000E+00 -0.45593999997E+02  0.45594000000E+02  0.51100000000E-03 0.  1.
    9900012    2    1    2    0    0 -0.17907759332E+02  0.37480639015E+02 -0.17424907529E+02  0.46142317103E+02  0.99999940016E+01 0.  0.
         12    1    1    2    0    0  0.17907759332E+02 -0.37480639015E+02  0.17424907529E+02  0.45045682897E+02  0.00000000000E+00 0. -1.
         11    1    3    3    0    0 -0.31033675061E+01  0.14032244535E+02 -0.65562914795E+01  0.15796193681E+02  0.51100000000E-03 0. -1.
        -11    1    3    3    0    0 -0.60551740435E+01  0.82992467863E+01 -0.69936770122E+01  0.12427958333E+02  0.51100000000E-03 0.  1.
         12    1    3    3    0    0 -0.87492177820E+01  0.15149147693E+02 -0.38749390372E+01  0.17918165089E+02  0.00000000000E+00 0. -1.
</event>
<event>
 7    1  0.2353206E-008  0.4614232E+02  0.7816164E-02  0.1320468E+00
        -11   -1    0    0    0    0  0.00000000000E+00  0.00000000000E+00  0.45593999997E+02  0.45594000000E+02  0.51100000000E-03 0.  1.
         11   -1    0    0    0    0 -0.00000000000E+00 -0.00000000000E+00 -0.45593999997E+02  0.45594000000E+02  0.51100000000E-03 0. -1.
    9900012    2    1    2    0    0  0.33172246252E+02  0.29045745253E+02  0.92228114568E+01  0.46142317744E+02  0.99999998476E+01 0.  0.
         12    1    1    2    0    0 -0.33172246252E+02 -0.29045745253E+02 -0.92228114568E+01  0.45045682256E+02  0.00000000000E+00 0. -1.
         11    1    3    3    0    0  0.20349192574E+01  0.20211347790E+00  0.72355313062E-01  0.20462115713E+01  0.51100000000E-03 0. -1.
        -11    1    3    3    0    0  0.28968731290E+01  0.40853375613E+01 -0.11786891660E+01  0.51450136372E+01  0.51100000000E-03 0.  1.
        -12    1    3    3    0    0  0.28240453866E+02  0.24758294213E+02  0.10329145310E+02  0.38951092536E+02  0.00000000000E+00 0.  1.
</event>
<event>
 7    1  0.2353206E-008  0.4614232E+02  0.7816164E-02  0.1320468E+00
        -11   -1    0    0    0    0  0.00000000000E+00  0.00000000000E+00  0.45593999997E+02  0.45594000000E+02  0.51100000000E-03 0. -1.
         11   -1    0    0    0    0 -0.00000000000E+00 -0.00000000000E+00 -0.45593999997E+02  0.45594000000E+02  0.51100000000E-03 0.  1.
    9900012    2    1    2    0    0  0.34874492901E+02  0.28438559589E+02 -0.20326380479E+01  0.46142317143E+02  0.99999943640E+01 0.  0.
         12    1    1    2    0    0 -0.34874492901E+02 -0.28438559589E+02  0.20326380479E+01  0.45045682857E+02  0.00000000000E+00 0. -1.
         11    1    3    3    0    0  0.14465116682E+02  0.12449104896E+02  0.67914947255E+00  0.19096624246E+02  0.51100000000E-03 0. -1.
        -11    1    3    3    0    0  0.19242416961E+02  0.16751506790E+02 -0.26640197635E+01  0.25651132369E+02  0.51100000000E-03 0.  1.
         12    1    3    3    0    0  0.11669592580E+01 -0.76205209669E+00 -0.47767756930E-01  0.13945605281E+01  0.00000000000E+00 0. -1.
</event>
<event>
 7    1  0.2353206E-008  0.4614232E+02  0.7816164E-02  0.1320468E+00
        -11   -1    0    0    0    0  0.00000000000E+00  0.00000000000E+00  0.45593999997E+02  0.45594000000E+02  0.51100000000E-03 0.  1.
         11   -1    0    0    0    0 -0.00000000000E+00 -0.00000000000E+00 -0.45593999997E+02  0.45594000000E+02  0.51100000000E-03 0. -1.
    9900012    2    1    2    0    0 -0.18254860665E+02 -0.32419495192E+02  0.25393895313E+02  0.46142317348E+02  0.99999962363E+01 0.  0.
         12    1    1    2    0    0  0.18254860665E+02  0.32419495192E+02 -0.25393895313E+02  0.45045682652E+02  0.00000000000E+00 0. -1.
         11    1    3    3    0    0 -0.10262983681E+01 -0.67107307445E+01  0.20623652711E+01  0.70951072041E+01  0.51100000000E-03 0. -1.
        -11    1    3    3    0    0 -0.14696850281E+02 -0.20800885308E+02  0.16880460413E+02  0.30555264387E+02  0.51100000000E-03 0.  1.
        -12    1    3    3    0    0 -0.25317120162E+01 -0.49078791395E+01  0.64510696295E+01  0.84919457573E+01  0.00000000000E+00 0.  1.
</event>
<event>
 7    1  0.2353206E-008  0.4614232E+02  0.7816164E-02  0.1320468E+00
        -11   -1    0    0    0    0  0.00000000000E+00  0.00000000000E+00  0.45593999997E+02  0.45594000000E+02  0.51100000000E-03 0. -1.
         11   -1    0    0    0    0 -0.00000000000E+00 -0.00000000000E+00 -0.45593999997E+02  0.45594000000E+02  0.51100000000E-03 0.  1.
    9900012    2    1    2    0    0  0.43524388435E+02  0.11499438522E+02  0.15823810157E+01  0.46142318690E+02  0.10000008472E+02 0.  0.
         12    1    1    2    0    0 -0.43524388435E+02 -0.11499438522E+02 -0.15823810157E+01  0.45045681310E+02  0.00000000000E+00 0. -1.
         11    1    3    3    0    0  0.49634714301E+01 -0.11920480485E+01  0.11804130626E+01  0.52393131655E+01  0.51100000000E-03 0. -1.
        -11    1    3    3    0    0  0.19914322900E+02  0.43839607319E+01 -0.12023261030E+01  0.20426574764E+02  0.51100000000E-03 0.  1.
         12    1    3    3    0    0  0.18646594105E+02  0.83075258391E+01  0.16042940560E+01  0.20476430761E+02  0.00000000000E+00 0. -1.
</event>
<event>
 7    1  0.2353206E-008  0.4614232E+02  0.7816164E-02  0.1320468E+00
        -11   -1    0    0    0    0  0.00000000000E+00  0.00000000000E+00  0.45593999997E+02  0.45594000000E+02  0.51100000000E-03 0. -1.
         11   -1    0    0    0    0 -0.00000000000E+00 -0.00000000000E+00 -0.45593999997E+02  0.45594000000E+02  0.51100000000E-03 0.  1.
    9900012    2    1    2    0    0  0.21850278530E+02  0.12030567176E+02 -0.37509256612E+02  0.46142317077E+02  0.99999937572E+01 0.  0.
         12    1    1    2    0    0 -0.21850278530E+02 -0.12030567176E+02  0.37509256612E+02  0.45045682923E+02  0.00000000000E+00 0. -1.
         11    1    3    3    0    0  0.10266150407E+01  0.62040745714E+00 -0.64166019890E+01  0.65277580532E+01  0.51100000000E-03 0. -1.
        -11    1    3    3    0    0  0.10920159483E+02  0.87894658771E+01 -0.20880764552E+02  0.25149769822E+02  0.51100000000E-03 0.  1.
        -12    1    3    3    0    0  0.99035040066E+01  0.26206938423E+01 -0.10211890071E+02  0.14464789201E+02  0.00000000000E+00 0.  1.
</event>
<event>
 7    1  0.2353206E-008  0.4614232E+02  0.7816164E-02  0.1320468E+00
        -11   -1    0    0    0    0  0.00000000000E+00  0.00000000000E+00  0.45593999997E+02  0.45594000000E+02  0.51100000000E-03 0.  1.
         11   -1    0    0    0    0 -0.00000000000E+00 -0.00000000000E+00 -0.45593999997E+02  0.45594000000E+02  0.51100000000E-03 0. -1.
    9900012    2    1    2    0    0 -0.29718272314E+02 -0.12172509651E+02  0.31587461952E+02  0.46142318153E+02  0.10000003570E+02 0.  0.
         12    1    1    2    0    0  0.29718272314E+02  0.12172509651E+02 -0.31587461952E+02  0.45045681847E+02  0.00000000000E+00 0. -1.
         11    1    3    3    0    0 -0.30223546139E+01 -0.20716979839E+01  0.59600829358E+00  0.37123828056E+01  0.51100000000E-03 0. -1.
        -11    1    3    3    0    0 -0.33889676948E+01  0.10307664872E+00  0.23814506334E+01  0.41433119859E+01  0.51100000000E-03 0.  1.
        -12    1    3    3    0    0 -0.23306950005E+02 -0.10203888316E+02  0.28610003025E+02  0.38286623361E+02  0.00000000000E+00 0.  1.
</event>
<event>
 7    1  0.2353206E-008  0.4614232E+02  0.7816164E-02  0.1320468E+00
        -11   -1    0    0    0    0  0.00000000000E+00  0.00000000000E+00  0.45593999997E+02  0.45594000000E+02  0.51100000000E-03 0.  1.
         11   -1    0    0    0    0 -0.00000000000E+00 -0.00000000000E+00 -0.45593999997E+02  0.45594000000E+02  0.51100000000E-03 0. -1.
    9900012    2    1    2    0    0  0.30399168455E+01  0.75032547530E+01  0.44312228741E+02  0.46142317163E+02  0.99999945436E+01 0.  0.
         12    1    1    2    0    0 -0.30399168455E+01 -0.75032547530E+01 -0.44312228741E+02  0.45045682837E+02  0.00000000000E+00 0. -1.
         11    1    3    3    0    0  0.18892201046E+01  0.17419470055E+01  0.14502753802E+02  0.14728659140E+02  0.51100000000E-03 0. -1.
        -11    1    3    3    0    0 -0.28290205416E+01  0.23431847618E+01  0.19534643137E+02  0.19877025804E+02  0.51100000000E-03 0.  1.
        -12    1    3    3    0    0  0.39797172824E+01  0.34181229857E+01  0.10274831802E+02  0.11536632218E+02  0.00000000000E+00 0.  1.
</event>
<event>
 7    1  0.2353206E-008  0.4614232E+02  0.7816164E-02  0.1320468E+00
        -11   -1    0    0    0    0  0.00000000000E+00  0.00000000000E+00  0.45593999997E+02  0.45594000000E+02  0.51100000000E-03 0.  1.
         11   -1    0    0    0    0 -0.00000000000E+00 -0.00000000000E+00 -0.45593999997E+02  0.45594000000E+02  0.51100000000E-03 0. -1.
    9900012    2    1    2    0    0 -0.25965485482E+02 -0.40897589449E+01  0.36581156504E+02  0.46142316792E+02  0.99999911621E+01 0.  0.
         12    1    1    2    0    0  0.25965485482E+02  0.40897589449E+01 -0.36581156504E+02  0.45045683208E+02  0.00000000000E+00 0. -1.
         11    1    3    3    0    0 -0.79394237095E+01 -0.20466937137E+01  0.12081978225E+02  0.14601287686E+02  0.51100000000E-03 0. -1.
        -11    1    3    3    0    0 -0.10792598762E+02 -0.51912997280E+01  0.14824024031E+02  0.19057320631E+02  0.51100000000E-03 0.  1.
         12    1    3    3    0    0 -0.72334630103E+01  0.31482344968E+01  0.96751542474E+01  0.12483708475E+02  0.00000000000E+00 0. -1.
</event>
<event>
 7    1  0.2353206E-008  0.4614232E+02  0.7816164E-02  0.1320468E+00
        -11   -1    0    0    0    0  0.00000000000E+00  0.00000000000E+00  0.45593999997E+02  0.45594000000E+02  0.51100000000E-03 0. -1.
         11   -1    0    0    0    0 -0.00000000000E+00 -0.00000000000E+00 -0.45593999997E+02  0.45594000000E+02  0.51100000000E-03 0.  1.
    9900012    2    1    2    0    0  0.20041910354E+02  0.37925204912E+02 -0.13751875953E+02  0.46142318404E+02  0.10000005859E+02 0.  0.
         12    1    1    2    0    0 -0.20041910354E+02 -0.37925204912E+02  0.13751875953E+02  0.45045681596E+02  0.00000000000E+00 0. -1.
         11    1    3    3    0    0  0.15829573042E+01  0.33234109774E+01  0.10380389322E+01  0.38247012220E+01  0.51100000000E-03 0. -1.
        -11    1    3    3    0    0  0.10114137816E+01  0.20888068918E+00 -0.58532041849E-01  0.10344154102E+01  0.51100000000E-03 0.  1.
        -12    1    3    3    0    0  0.17447539268E+02  0.34392913246E+02 -0.14731382844E+02  0.41283201771E+02  0.00000000000E+00 0.  1.
</event>
<event>
 7    1  0.2353206E-008  0.4614230E+02  0.7816164E-02  0.1320468E+00
        -11   -1    0    0    0    0  0.00000000000E+00  0.00000000000E+00  0.45593999997E+02  0.45594000000E+02  0.51100000000E-03 0. -1.
         11   -1    0    0    0    0 -0.00000000000E+00 -0.00000000000E+00 -0.45593999997E+02  0.45594000000E+02  0.51100000000E-03 0.  1.
    9900012    2    1    2    0    0 -0.18937870698E+02  0.17234883039E+01 -0.40835051038E+02  0.46142303738E+02  0.99998721219E+01 0.  0.
         12    1    1    2    0    0  0.18937870698E+02 -0.17234883039E+01  0.40835051038E+02  0.45045696262E+02  0.00000000000E+00 0. -1.
         11    1    3    3    0    0 -0.70014803905E+01  0.98930255520E+00 -0.17122758054E+02  0.18525341855E+02  0.51100000000E-03 0. -1.
        -11    1    3    3    0    0 -0.10710159593E+02 -0.55300316733E+00 -0.23493808139E+02  0.25825807870E+02  0.51100000000E-03 0.  1.
         12    1    3    3    0    0 -0.12262307154E+01  0.12871889160E+01 -0.21848484542E+00  0.17911540136E+01  0.00000000000E+00 0. -1.
</event>
<event>
 7    1  0.2353206E-008  0.4614232E+02  0.7816164E-02  0.1320468E+00
        -11   -1    0    0    0    0  0.00000000000E+00  0.00000000000E+00  0.45593999997E+02  0.45594000000E+02  0.51100000000E-03 0. -1.
         11   -1    0    0    0    0 -0.00000000000E+00 -0.00000000000E+00 -0.45593999997E+02  0.45594000000E+02  0.51100000000E-03 0.  1.
    9900012    2    1    2    0    0  0.40962425439E+02  0.15353826682E+02 -0.10744916589E+02  0.46142317364E+02  0.99999963765E+01 0.  0.
         12    1    1    2    0    0 -0.40962425439E+02 -0.15353826682E+02  0.10744916589E+02  0.45045682636E+02  0.00000000000E+00 0. -1.
         11    1    3    3    0    0  0.13238165523E+02  0.29332272766E+01 -0.61214497312E+01  0.14876995522E+02  0.51100000000E-03 0. -1.
        -11    1    3    3    0    0  0.23159740960E+02  0.84149525489E+01 -0.51365220587E+01  0.25170794323E+02  0.51100000000E-03 0.  1.
         12    1    3    3    0    0  0.45645189561E+01  0.40056468567E+01  0.51305520084E+00  0.60945275190E+01  0.00000000000E+00 0. -1.
</event>
<event>
 7    1  0.2353206E-008  0.4614232E+02  0.7816164E-02  0.1320468E+00
        -11   -1    0    0    0    0  0.00000000000E+00  0.00000000000E+00  0.45593999997E+02  0.45594000000E+02  0.51100000000E-03 0. -1.
         11   -1    0    0    0    0 -0.00000000000E+00 -0.00000000000E+00 -0.45593999997E+02  0.45594000000E+02  0.51100000000E-03 0.  1.
    9900012    2    1    2    0    0 -0.23519149423E+02 -0.55190317355E+01 -0.38019777740E+02  0.46142316519E+02  0.99999886745E+01 0.  0.
         12    1    1    2    0    0  0.23519149423E+02  0.55190317355E+01  0.38019777740E+02  0.45045683481E+02  0.00000000000E+00 0. -1.
         11    1    3    3    0    0 -0.31828583563E+01 -0.10400530797E+01 -0.10698225322E+02  0.11210009948E+02  0.51100000000E-03 0. -1.
        -11    1    3    3    0    0 -0.16465417472E+02 -0.59403400420E+01 -0.23477548897E+02  0.29284687378E+02  0.51100000000E-03 0.  1.
         12    1    3    3    0    0 -0.38708735946E+01  0.14613613862E+01 -0.38440035198E+01  0.56476191928E+01  0.00000000000E+00 0. -1.
</event>
<event>
 7    1  0.2353206E-008  0.4614232E+02  0.7816164E-02  0.1320468E+00
        -11   -1    0    0    0    0  0.00000000000E+00  0.00000000000E+00  0.45593999997E+02  0.45594000000E+02  0.51100000000E-03 0. -1.
         11   -1    0    0    0    0 -0.00000000000E+00 -0.00000000000E+00 -0.45593999997E+02  0.45594000000E+02  0.51100000000E-03 0.  1.
    9900012    2    1    2    0    0  0.29668031448E+01 -0.41558534492E+02 -0.17123076392E+02  0.46142318130E+02  0.10000003363E+02 0.  0.
         12    1    1    2    0    0 -0.29668031448E+01  0.41558534492E+02  0.17123076392E+02  0.45045681870E+02  0.00000000000E+00 0. -1.
         11    1    3    3    0    0 -0.63649464603E-01 -0.27801219118E+00 -0.56040604517E+00  0.62880619381E+00  0.51100000000E-03 0. -1.
        -11    1    3    3    0    0 -0.73675182711E+00 -0.34651339688E+02 -0.12293197491E+02  0.36774731138E+02  0.51100000000E-03 0.  1.
        -12    1    3    3    0    0  0.37672044365E+01 -0.66291826124E+01 -0.42694728551E+01  0.87387807980E+01  0.00000000000E+00 0.  1.
</event>
<event>
 7    1  0.2353206E-008  0.4614232E+02  0.7816164E-02  0.1320468E+00
        -11   -1    0    0    0    0  0.00000000000E+00  0.00000000000E+00  0.45593999997E+02  0.45594000000E+02  0.51100000000E-03 0. -1.
         11   -1    0    0    0    0 -0.00000000000E+00 -0.00000000000E+00 -0.45593999997E+02  0.45594000000E+02  0.51100000000E-03 0.  1.
    9900012    2    1    2    0    0  0.30961793843E+02 -0.16894348450E+02 -0.28018954671E+02  0.46142317539E+02  0.99999979760E+01 0.  0.
         12    1    1    2    0    0 -0.30961793843E+02  0.16894348450E+02  0.28018954671E+02  0.45045682461E+02  0.00000000000E+00 0. -1.
         11    1    3    3    0    0  0.10465609713E+02 -0.27536598108E+01 -0.11896217208E+02  0.16082027644E+02  0.51100000000E-03 0.  1.
        -11    1    3    3    0    0  0.34952110464E+01 -0.47157862924E+01 -0.46500192977E+01  0.74885125589E+01  0.51100000000E-03 0. -1.
        -12    1    3    3    0    0  0.17000973083E+02 -0.94249023466E+01 -0.11472718165E+02  0.22571777336E+02  0.00000000000E+00 0.  1.
</event>
<event>
 7    1  0.2353206E-008  0.4614232E+02  0.7816164E-02  0.1320468E+00
        -11   -1    0    0    0    0  0.00000000000E+00  0.00000000000E+00  0.45593999997E+02  0.45594000000E+02  0.51100000000E-03 0.  1.
         11   -1    0    0    0    0 -0.00000000000E+00 -0.00000000000E+00 -0.45593999997E+02  0.45594000000E+02  0.51100000000E-03 0. -1.
    9900012    2    1    2    0    0 -0.25444985622E+02 -0.10107222848E+02  0.35770242260E+02  0.46142317872E+02  0.10000001012E+02 0.  0.
         12    1    1    2    0    0  0.25444985622E+02  0.10107222848E+02 -0.35770242260E+02  0.45045682128E+02  0.00000000000E+00 0. -1.
         11    1    3    3    0    0 -0.99729914133E+01 -0.21409532864E+01  0.76871212392E+01  0.12772473210E+02  0.51100000000E-03 0. -1.
        -11    1    3    3    0    0 -0.11050584749E+02 -0.71477387067E+01  0.17715215009E+02  0.22068856676E+02  0.51100000000E-03 0.  1.
         12    1    3    3    0    0 -0.44214094596E+01 -0.81853085533E+00  0.10367906012E+02  0.11300987986E+02  0.00000000000E+00 0. -1.
</event>
<event>
 7    1  0.2353206E-008  0.4614232E+02  0.7816164E-02  0.1320468E+00
        -11   -1    0    0    0    0  0.00000000000E+00  0.00000000000E+00  0.45593999997E+02  0.45594000000E+02  0.51100000000E-03 0. -1.
         11   -1    0    0    0    0 -0.00000000000E+00 -0.00000000000E+00 -0.45593999997E+02  0.45594000000E+02  0.51100000000E-03 0.  1.
    9900012    2    1    2    0    0  0.35655940739E+01  0.38040269377E+02 -0.23860802569E+02  0.46142318135E+02  0.10000003413E+02 0.  0.
         12    1    1    2    0    0 -0.35655940739E+01 -0.38040269377E+02  0.23860802569E+02  0.45045681865E+02  0.00000000000E+00 0. -1.
         11    1    3    3    0    0  0.45096243801E+01  0.11225753274E+02 -0.78394133839E+01  0.14415639115E+02  0.51100000000E-03 0. -1.
        -11    1    3    3    0    0 -0.13784282461E+01  0.13209252162E+02 -0.10906054948E+02  0.17185064501E+02  0.51100000000E-03 0.  1.
         12    1    3    3    0    0  0.43439793989E+00  0.13605263941E+02 -0.51153342369E+01  0.14541614520E+02  0.00000000000E+00 0. -1.
</event>
<event>
 7    1  0.2353206E-008  0.4614232E+02  0.7816164E-02  0.1320468E+00
        -11   -1    0    0    0    0  0.00000000000E+00  0.00000000000E+00  0.45593999997E+02  0.45594000000E+02  0.51100000000E-03 0.  1.
         11   -1    0    0    0    0 -0.00000000000E+00 -0.00000000000E+00 -0.45593999997E+02  0.45594000000E+02  0.51100000000E-03 0. -1.
    9900012    2    1    2    0    0 -0.23102130495E+02  0.37403735301E+02  0.98166006883E+01  0.46142317666E+02  0.99999991287E+01 0.  0.
         12    1    1    2    0    0  0.23102130495E+02 -0.37403735301E+02 -0.98166006883E+01  0.45045682334E+02  0.00000000000E+00 0. -1.
         11    1    3    3    0    0 -0.40627735689E+01  0.13510846467E+02  0.43759548793E+01  0.14771529464E+02  0.51100000000E-03 0. -1.
        -11    1    3    3    0    0 -0.13975344889E+02  0.18789214324E+02  0.23145319998E+01  0.23530871177E+02  0.51100000000E-03 0.  1.
        -12    1    3    3    0    0 -0.50640120370E+01  0.51036745101E+01  0.31261138092E+01  0.78399170253E+01  0.00000000000E+00 0.  1.
</event>
<event>
 7    1  0.2353206E-008  0.4614232E+02  0.7816164E-02  0.1320468E+00
        -11   -1    0    0    0    0  0.00000000000E+00  0.00000000000E+00  0.45593999997E+02  0.45594000000E+02  0.51100000000E-03 0. -1.
         11   -1    0    0    0    0 -0.00000000000E+00 -0.00000000000E+00 -0.45593999997E+02  0.45594000000E+02  0.51100000000E-03 0.  1.
    9900012    2    1    2    0    0 -0.94044531387E+01  0.42125524380E+02 -0.12888355951E+02  0.46142320271E+02  0.10000022885E+02 0.  0.
         12    1    1    2    0    0  0.94044531387E+01 -0.42125524380E+02  0.12888355951E+02  0.45045679729E+02  0.00000000000E+00 0. -1.
         11    1    3    3    0    0 -0.13841454897E+01  0.71994354563E+01 -0.54708737620E+01  0.91475783466E+01  0.51100000000E-03 0. -1.
        -11    1    3    3    0    0 -0.31283053057E+01  0.17715122329E+02 -0.63248325124E+01  0.19068701051E+02  0.51100000000E-03 0.  1.
        -12    1    3    3    0    0 -0.48920023433E+01  0.17210966595E+02 -0.10926496769E+01  0.17926040873E+02  0.00000000000E+00 0.  1.
</event>
<event>
 7    1  0.2353206E-008  0.4614232E+02  0.7816164E-02  0.1320468E+00
        -11   -1    0    0    0    0  0.00000000000E+00  0.00000000000E+00  0.45593999997E+02  0.45594000000E+02  0.51100000000E-03 0. -1.
         11   -1    0    0    0    0 -0.00000000000E+00 -0.00000000000E+00 -0.45593999997E+02  0.45594000000E+02  0.51100000000E-03 0.  1.
    9900012    2    1    2    0    0  0.15468170547E+02  0.11760871583E+02 -0.40639033509E+02  0.46142318242E+02  0.10000004389E+02 0.  0.
         12    1    1    2    0    0 -0.15468170547E+02 -0.11760871583E+02  0.40639033509E+02  0.45045681758E+02  0.00000000000E+00 0. -1.
         11    1    3    3    0    0  0.39666817338E+01 -0.96178162597E-01 -0.50844009251E+01  0.64494144885E+01  0.51100000000E-03 0. -1.
        -11    1    3    3    0    0  0.39488933151E+00  0.32597940969E+01 -0.41607023432E+01  0.53003433274E+01  0.51100000000E-03 0.  1.
        -12    1    3    3    0    0  0.11106599482E+02  0.85972556485E+01 -0.31393930241E+02  0.34392560426E+02  0.00000000000E+00 0.  1.
</event>
<event>
 7    1  0.2353206E-008  0.4614232E+02  0.7816164E-02  0.1320468E+00
        -11   -1    0    0    0    0  0.00000000000E+00  0.00000000000E+00  0.45593999997E+02  0.45594000000E+02  0.51100000000E-03 0. -1.
         11   -1    0    0    0    0 -0.00000000000E+00 -0.00000000000E+00 -0.45593999997E+02  0.45594000000E+02  0.51100000000E-03 0.  1.
    9900012    2    1    2    0    0  0.24536261755E+02 -0.37699060302E+02 -0.24220305969E+01  0.46142317402E+02  0.99999967220E+01 0.  0.
         12    1    1    2    0    0 -0.24536261755E+02  0.37699060302E+02  0.24220305969E+01  0.45045682598E+02  0.00000000000E+00 0. -1.
         11    1    3    3    0    0  0.21671476241E+02 -0.26655307975E+02 -0.20548852801E+01  0.34414835165E+02  0.51100000000E-03 0.  1.
        -11    1    3    3    0    0  0.75786716531E+00 -0.57217508867E+01 -0.13305181148E+01  0.59230967040E+01  0.51100000000E-03 0. -1.
        -12    1    3    3    0    0  0.21069183486E+01 -0.53220014406E+01  0.96337279803E+00  0.58043855324E+01  0.00000000000E+00 0.  1.
</event>
<event>
 7    1  0.2353206E-008  0.4614232E+02  0.7816164E-02  0.1320468E+00
        -11   -1    0    0    0    0  0.00000000000E+00  0.00000000000E+00  0.45593999997E+02  0.45594000000E+02  0.51100000000E-03 0.  1.
         11   -1    0    0    0    0 -0.00000000000E+00 -0.00000000000E+00 -0.45593999997E+02  0.45594000000E+02  0.51100000000E-03 0. -1.
    9900012    2    1    2    0    0 -0.26514097083E+02 -0.26828229857E+02  0.24624423068E+02  0.46142317934E+02  0.10000001575E+02 0.  0.
         12    1    1    2    0    0  0.26514097083E+02  0.26828229857E+02 -0.24624423068E+02  0.45045682066E+02  0.00000000000E+00 0. -1.
         11    1    3    3    0    0 -0.35138795887E+01 -0.25236213990E+01  0.57445619966E+01  0.71913842564E+01  0.51100000000E-03 0. -1.
        -11    1    3    3    0    0 -0.42286851183E+01 -0.18578892339E+01  0.40655490526E+01  0.61532283881E+01  0.51100000000E-03 0.  1.
        -12    1    3    3    0    0 -0.18771532376E+02 -0.22446719224E+02  0.14814312019E+02  0.32797705289E+02  0.00000000000E+00 0.  1.
</event>
<event>
 7    1  0.2353206E-008  0.4614232E+02  0.7816164E-02  0.1320468E+00
        -11   -1    0    0    0    0  0.00000000000E+00  0.00000000000E+00  0.45593999997E+02  0.45594000000E+02  0.51100000000E-03 0.  1.
         11   -1    0    0    0    0 -0.00000000000E+00 -0.00000000000E+00 -0.45593999997E+02  0.45594000000E+02  0.51100000000E-03 0. -1.
    9900012    2    1    2    0    0 -0.15774056980E+02 -0.15247545394E+01  0.42165953696E+02  0.46142318730E+02  0.10000008833E+02 0.  0.
         12    1    1    2    0    0  0.15774056980E+02  0.15247545394E+01 -0.42165953696E+02  0.45045681270E+02  0.00000000000E+00 0. -1.
         11    1    3    3    0    0 -0.43930868228E+01  0.71724011290E+00  0.96929008020E+01  0.10666113230E+02  0.51100000000E-03 0.  1.
        -11    1    3    3    0    0 -0.56676000807E+01 -0.53258582398E+01  0.18510107847E+02  0.20077613141E+02  0.51100000000E-03 0. -1.
         12    1    3    3    0    0 -0.57133700765E+01  0.30838635875E+01  0.13962945047E+02  0.15398592359E+02  0.00000000000E+00 0. -1.
</event>
<event>
 7    1  0.2353206E-008  0.4614232E+02  0.7816164E-02  0.1320468E+00
        -11   -1    0    0    0    0  0.00000000000E+00  0.00000000000E+00  0.45593999997E+02  0.45594000000E+02  0.51100000000E-03 0.  1.
         11   -1    0    0    0    0 -0.00000000000E+00 -0.00000000000E+00 -0.45593999997E+02  0.45594000000E+02  0.51100000000E-03 0. -1.
    9900012    2    1    2    0    0  0.15882909141E+02 -0.35453362101E+02  0.22801444885E+02  0.46142316790E+02  0.99999911402E+01 0.  0.
         12    1    1    2    0    0 -0.15882909141E+02  0.35453362101E+02 -0.22801444885E+02  0.45045683210E+02  0.00000000000E+00 0. -1.
         11    1    3    3    0    0 -0.54473279207E+00 -0.86991936759E+00  0.24022310560E+01  0.26123184776E+01  0.51100000000E-03 0. -1.
        -11    1    3    3    0    0  0.69355584092E+01 -0.14051423583E+02  0.63863847792E+01  0.16921299772E+02  0.51100000000E-03 0.  1.
         12    1    3    3    0    0  0.94920835244E+01 -0.20532019150E+02  0.14012829050E+02  0.26608698540E+02  0.00000000000E+00 0. -1.
</event>
<event>
 7    1  0.2353206E-008  0.4614232E+02  0.7816164E-02  0.1320468E+00
        -11   -1    0    0    0    0  0.00000000000E+00  0.00000000000E+00  0.45593999997E+02  0.45594000000E+02  0.51100000000E-03 0.  1.
         11   -1    0    0    0    0 -0.00000000000E+00 -0.00000000000E+00 -0.45593999997E+02  0.45594000000E+02  0.51100000000E-03 0. -1.
    9900012    2    1    2    0    0 -0.40433832730E+02  0.17114489032E+02  0.10065432549E+02  0.46142317672E+02  0.99999991831E+01 0.  0.
         12    1    1    2    0    0  0.40433832730E+02 -0.17114489032E+02 -0.10065432549E+02  0.45045682328E+02  0.00000000000E+00 0. -1.
         11    1    3    3    0    0 -0.97231474529E+01  0.54890448442E+01  0.28989035260E+01  0.11535720680E+02  0.51100000000E-03 0. -1.
        -11    1    3    3    0    0 -0.28904466437E+02  0.12871828834E+02  0.63977348876E+01  0.32281313008E+02  0.51100000000E-03 0.  1.
         12    1    3    3    0    0 -0.18062188397E+01 -0.12463846461E+01  0.76879413580E+00  0.23252839840E+01  0.00000000000E+00 0. -1.
</event>
<event>
 7    1  0.2353206E-008  0.4614232E+02  0.7816164E-02  0.1320468E+00
        -11   -1    0    0    0    0  0.00000000000E+00  0.00000000000E+00  0.45593999997E+02  0.45594000000E+02  0.51100000000E-03 0.  1.
         11   -1    0    0    0    0 -0.00000000000E+00 -0.00000000000E+00 -0.45593999997E+02  0.45594000000E+02  0.51100000000E-03 0. -1.
    9900012    2    1    2    0    0 -0.73099234147E+01 -0.12831770599E+02  0.42556129827E+02  0.46142317600E+02  0.99999985275E+01 0.  0.
         12    1    1    2    0    0  0.73099234147E+01  0.12831770599E+02 -0.42556129827E+02  0.45045682400E+02  0.00000000000E+00 0. -1.
         11    1    3    3    0    0 -0.21125079561E+01 -0.11145789436E+01  0.79116257489E+01  0.82643087030E+01  0.51100000000E-03 0.  1.
        -11    1    3    3    0    0  0.23210140697E+01 -0.28231610545E+01  0.89461851320E+01  0.96639315668E+01  0.51100000000E-03 0. -1.
         12    1    3    3    0    0 -0.75184295283E+01 -0.88940306004E+01  0.25698318947E+02  0.28214077330E+02  0.00000000000E+00 0. -1.
</event>
<event>
 7    1  0.2353206E-008  0.4614232E+02  0.7816164E-02  0.1320468E+00
        -11   -1    0    0    0    0  0.00000000000E+00  0.00000000000E+00  0.45593999997E+02  0.45594000000E+02  0.51100000000E-03 0.  1.
         11   -1    0    0    0    0 -0.00000000000E+00 -0.00000000000E+00 -0.45593999997E+02  0.45594000000E+02  0.51100000000E-03 0. -1.
    9900012    2    1    2    0    0 -0.30192565744E+01  0.44932696819E+02  0.10248950308E+01  0.46142316927E+02  0.99999923927E+01 0.  0.
         12    1    1    2    0    0  0.30192565744E+01 -0.44932696819E+02 -0.10248950308E+01  0.45045683073E+02  0.00000000000E+00 0. -1.
         11    1    3    3    0    0  0.91448733737E+00  0.16135385270E+02 -0.16411489224E+01  0.16244393339E+02  0.51100000000E-03 0.  1.
        -11    1    3    3    0    0  0.16114819068E+01  0.69432476451E+01 -0.42476380843E+00  0.71404472095E+01  0.51100000000E-03 0. -1.
        -12    1    3    3    0    0 -0.55452258185E+01  0.21854063904E+02  0.30908077616E+01  0.22757476378E+02  0.00000000000E+00 0.  1.
</event>
<event>
 7    1  0.2353206E-008  0.4614232E+02  0.7816164E-02  0.1320468E+00
        -11   -1    0    0    0    0  0.00000000000E+00  0.00000000000E+00  0.45593999997E+02  0.45594000000E+02  0.51100000000E-03 0.  1.
         11   -1    0    0    0    0 -0.00000000000E+00 -0.00000000000E+00 -0.45593999997E+02  0.45594000000E+02  0.51100000000E-03 0. -1.
    9900012    2    1    2    0    0  0.42854328581E+02  0.91130344257E+01  0.10467695356E+02  0.46142317402E+02  0.99999967297E+01 0.  0.
         12    1    1    2    0    0 -0.42854328581E+02 -0.91130344257E+01 -0.10467695356E+02  0.45045682598E+02  0.00000000000E+00 0. -1.
         11    1    3    3    0    0  0.78672762018E+01  0.12692001796E+01  0.55355045950E+01  0.97029230294E+01  0.51100000000E-03 0.  1.
        -11    1    3    3    0    0  0.22721801707E+02  0.59830794235E+01  0.50515738589E+01  0.24033225146E+02  0.51100000000E-03 0. -1.
         12    1    3    3    0    0  0.12265250672E+02  0.18607548225E+01 -0.11938309752E+00  0.12406169227E+02  0.00000000000E+00 0. -1.
</event>
<event>
 7    1  0.2353206E-008  0.4614232E+02  0.7816164E-02  0.1320468E+00
        -11   -1    0    0    0    0  0.00000000000E+00  0.00000000000E+00  0.45593999997E+02  0.45594000000E+02  0.51100000000E-03 0.  1.
         11   -1    0    0    0    0 -0.00000000000E+00 -0.00000000000E+00 -0.45593999997E+02  0.45594000000E+02  0.51100000000E-03 0. -1.
    9900012    2    1    2    0    0  0.25978229869E+02  0.20636297625E+02  0.30469464821E+02  0.46142317707E+02  0.99999995039E+01 0.  0.
         12    1    1    2    0    0 -0.25978229869E+02 -0.20636297625E+02 -0.30469464821E+02  0.45045682293E+02  0.00000000000E+00 0. -1.
         11    1    3    3    0    0  0.11306531248E+02  0.61008508688E+01  0.11683270397E+02  0.17365391951E+02  0.51100000000E-03 0. -1.
        -11    1    3    3    0    0  0.82378621631E+01  0.58052871803E+01  0.13111700832E+02  0.16537243761E+02  0.51100000000E-03 0.  1.
         12    1    3    3    0    0  0.64338364578E+01  0.87301595763E+01  0.56744935923E+01  0.12239681994E+02  0.00000000000E+00 0. -1.
</event>
<event>
 7    1  0.2353206E-008  0.4614232E+02  0.7816164E-02  0.1320468E+00
        -11   -1    0    0    0    0  0.00000000000E+00  0.00000000000E+00  0.45593999997E+02  0.45594000000E+02  0.51100000000E-03 0.  1.
         11   -1    0    0    0    0 -0.00000000000E+00 -0.00000000000E+00 -0.45593999997E+02  0.45594000000E+02  0.51100000000E-03 0. -1.
    9900012    2    1    2    0    0  0.34100895549E+02 -0.14297630046E+02  0.25725867114E+02  0.46142317178E+02  0.99999946799E+01 0.  0.
         12    1    1    2    0    0 -0.34100895549E+02  0.14297630046E+02 -0.25725867114E+02  0.45045682822E+02  0.00000000000E+00 0. -1.
         11    1    3    3    0    0  0.33951282450E+01 -0.19613598960E+01  0.36138821928E+01  0.53323515644E+01  0.51100000000E-03 0. -1.
        -11    1    3    3    0    0  0.64033191986E+01  0.10923401003E+01  0.34468796808E+01  0.73536850251E+01  0.51100000000E-03 0.  1.
        -12    1    3    3    0    0  0.24302448105E+02 -0.13428610250E+02  0.18665105241E+02  0.33456280588E+02  0.00000000000E+00 0.  1.
</event>
<event>
 7    1  0.2353206E-008  0.4614232E+02  0.7816164E-02  0.1320468E+00
        -11   -1    0    0    0    0  0.00000000000E+00  0.00000000000E+00  0.45593999997E+02  0.45594000000E+02  0.51100000000E-03 0. -1.
         11   -1    0    0    0    0 -0.00000000000E+00 -0.00000000000E+00 -0.45593999997E+02  0.45594000000E+02  0.51100000000E-03 0.  1.
    9900012    2    1    2    0    0  0.43284044195E+02  0.68618218324E+01  0.10417321514E+02  0.46142315764E+02  0.99999817888E+01 0.  0.
         12    1    1    2    0    0 -0.43284044195E+02 -0.68618218324E+01 -0.10417321514E+02  0.45045684236E+02  0.00000000000E+00 0. -1.
         11    1    3    3    0    0  0.20356333406E+02  0.34439322600E+01  0.78500427912E+01  0.22087647028E+02  0.51100000000E-03 0.  1.
        -11    1    3    3    0    0  0.22082013739E+02  0.23328881981E+01  0.33742148037E+01  0.22459809080E+02  0.51100000000E-03 0. -1.
         12    1    3    3    0    0  0.84569705026E+00  0.10850013743E+01 -0.80693608091E+00  0.15948596558E+01  0.00000000000E+00 0. -1.
</event>
<event>
 7    1  0.2353206E-008  0.4614232E+02  0.7816164E-02  0.1320468E+00
        -11   -1    0    0    0    0  0.00000000000E+00  0.00000000000E+00  0.45593999997E+02  0.45594000000E+02  0.51100000000E-03 0.  1.
         11   -1    0    0    0    0 -0.00000000000E+00 -0.00000000000E+00 -0.45593999997E+02  0.45594000000E+02  0.51100000000E-03 0. -1.
    9900012    2    1    2    0    0  0.11019588714E+02  0.32461675789E+02  0.29221939499E+02  0.46142317871E+02  0.10000000999E+02 0.  0.
         12    1    1    2    0    0 -0.11019588714E+02 -0.32461675789E+02 -0.29221939499E+02  0.45045682129E+02  0.00000000000E+00 0. -1.
         11    1    3    3    0    0  0.12699993303E+01  0.58323674971E+00  0.27610856380E+01  0.30946175154E+01  0.51100000000E-03 0. -1.
        -11    1    3    3    0    0 -0.17505499541E+00  0.85491168980E+01  0.56662737016E+01  0.10257909237E+02  0.51100000000E-03 0.  1.
        -12    1    3    3    0    0  0.99246443791E+01  0.23329322141E+02  0.20794580159E+02  0.32789791118E+02  0.00000000000E+00 0.  1.
</event>
<event>
 7    1  0.2353206E-008  0.4614232E+02  0.7816164E-02  0.1320468E+00
        -11   -1    0    0    0    0  0.00000000000E+00  0.00000000000E+00  0.45593999997E+02  0.45594000000E+02  0.51100000000E-03 0.  1.
         11   -1    0    0    0    0 -0.00000000000E+00 -0.00000000000E+00 -0.45593999997E+02  0.45594000000E+02  0.51100000000E-03 0. -1.
    9900012    2    1    2    0    0 -0.59701341849E+01 -0.22476466414E+01  0.44591691678E+02  0.46142318916E+02  0.10000010536E+02 0.  0.
         12    1    1    2    0    0  0.59701341849E+01  0.22476466414E+01 -0.44591691678E+02  0.45045681084E+02  0.00000000000E+00 0. -1.
         11    1    3    3    0    0 -0.17986940904E+01 -0.20093997611E+01  0.19976492971E+02  0.20157709679E+02  0.51100000000E-03 0. -1.
        -11    1    3    3    0    0 -0.25013347116E+01 -0.19570805337E+01  0.22688137137E+02  0.22909351945E+02  0.51100000000E-03 0.  1.
         12    1    3    3    0    0 -0.16701053829E+01  0.17188336535E+01  0.19270615700E+01  0.30752572921E+01  0.00000000000E+00 0. -1.
</event>
<event>
 7    1  0.2353206E-008  0.4614232E+02  0.7816164E-02  0.1320468E+00
        -11   -1    0    0    0    0  0.00000000000E+00  0.00000000000E+00  0.45593999997E+02  0.45594000000E+02  0.51100000000E-03 0. -1.
         11   -1    0    0    0    0 -0.00000000000E+00 -0.00000000000E+00 -0.45593999997E+02  0.45594000000E+02  0.51100000000E-03 0.  1.
    9900012    2    1    2    0    0 -0.92726641041E+01 -0.34922018748E+02 -0.26899511862E+02  0.46142318392E+02  0.10000005757E+02 0.  0.
         12    1    1    2    0    0  0.92726641041E+01  0.34922018748E+02  0.26899511862E+02  0.45045681608E+02  0.00000000000E+00 0. -1.
         11    1    3    3    0    0 -0.10547713708E+00 -0.30744595498E+01 -0.49587426469E+00  0.31159779359E+01  0.51100000000E-03 0. -1.
        -11    1    3    3    0    0 -0.30902819070E+01 -0.14118815106E+02 -0.16114243631E+02  0.21646238249E+02  0.51100000000E-03 0.  1.
        -12    1    3    3    0    0 -0.60769050601E+01 -0.17728744093E+02 -0.10289393967E+02  0.21380102208E+02  0.00000000000E+00 0.  1.
</event>
<event>
 7    1  0.2353206E-008  0.4614232E+02  0.7816164E-02  0.1320468E+00
        -11   -1    0    0    0    0  0.00000000000E+00  0.00000000000E+00  0.45593999997E+02  0.45594000000E+02  0.51100000000E-03 0. -1.
         11   -1    0    0    0    0 -0.00000000000E+00 -0.00000000000E+00 -0.45593999997E+02  0.45594000000E+02  0.51100000000E-03 0.  1.
    9900012    2    1    2    0    0 -0.20036972178E+02 -0.11861282693E+02 -0.38560903801E+02  0.46142316709E+02  0.99999904065E+01 0.  0.
         12    1    1    2    0    0  0.20036972178E+02  0.11861282693E+02  0.38560903801E+02  0.45045683291E+02  0.00000000000E+00 0. -1.
         11    1    3    3    0    0 -0.14299878361E+02 -0.71736667117E+01 -0.21257258185E+02  0.26604868747E+02  0.51100000000E-03 0. -1.
        -11    1    3    3    0    0 -0.36387224177E+01 -0.30639522789E+01 -0.48090145613E+01  0.67642239548E+01  0.51100000000E-03 0.  1.
         12    1    3    3    0    0 -0.20983713994E+01 -0.16236637026E+01 -0.12494631054E+02  0.12773224007E+02  0.00000000000E+00 0. -1.
</event>
<event>
 7    1  0.2353206E-008  0.4614232E+02  0.7816164E-02  0.1320468E+00
        -11   -1    0    0    0    0  0.00000000000E+00  0.00000000000E+00  0.45593999997E+02  0.45594000000E+02  0.51100000000E-03 0.  1.
         11   -1    0    0    0    0 -0.00000000000E+00 -0.00000000000E+00 -0.45593999997E+02  0.45594000000E+02  0.51100000000E-03 0. -1.
    9900012    2    1    2    0    0  0.36356606619E+02  0.21950337048E+02  0.15016439066E+02  0.46142316705E+02  0.99999903675E+01 0.  0.
         12    1    1    2    0    0 -0.36356606619E+02 -0.21950337048E+02 -0.15016439066E+02  0.45045683295E+02  0.00000000000E+00 0. -1.
         11    1    3    3    0    0  0.21369832648E+02  0.11043303392E+02  0.11055996102E+02  0.26473748267E+02  0.51100000000E-03 0. -1.
        -11    1    3    3    0    0  0.12812919440E+02  0.11052655021E+02  0.43108830936E+01  0.17461838417E+02  0.51100000000E-03 0.  1.
         12    1    3    3    0    0  0.21738545301E+01 -0.14562136569E+00 -0.35044013009E+00  0.22067300208E+01  0.00000000000E+00 0. -1.
</event>
<event>
 7    1  0.2353206E-008  0.4614231E+02  0.7816164E-02  0.1320468E+00
        -11   -1    0    0    0    0  0.00000000000E+00  0.00000000000E+00  0.45593999997E+02  0.45594000000E+02  0.51100000000E-03 0.  1.
         11   -1    0    0    0    0 -0.00000000000E+00 -0.00000000000E+00 -0.45593999997E+02  0.45594000000E+02  0.51100000000E-03 0. -1.
    9900012    2    1    2    0    0 -0.32500675143E+02 -0.14398938236E+02  0.27667504410E+02  0.46142310891E+02  0.99999373497E+01 0.  0.
         12    1    1    2    0    0  0.32500675143E+02  0.14398938236E+02 -0.27667504410E+02  0.45045689109E+02  0.00000000000E+00 0. -1.
         11    1    3    3    0    0 -0.11309165706E+02 -0.46180120095E+01  0.76350135060E+01  0.14405439785E+02  0.51100000000E-03 0. -1.
        -11    1    3    3    0    0 -0.21407798763E+02 -0.81450757829E+01  0.19204920049E+02  0.29890885931E+02  0.51100000000E-03 0.  1.
         12    1    3    3    0    0  0.21628932652E+00 -0.16358504434E+01  0.82757085446E+00  0.18459851747E+01  0.00000000000E+00 0. -1.
</event>
<event>
 7    1  0.2353206E-008  0.4614232E+02  0.7816164E-02  0.1320468E+00
        -11   -1    0    0    0    0  0.00000000000E+00  0.00000000000E+00  0.45593999997E+02  0.45594000000E+02  0.51100000000E-03 0.  1.
         11   -1    0    0    0    0 -0.00000000000E+00 -0.00000000000E+00 -0.45593999997E+02  0.45594000000E+02  0.51100000000E-03 0. -1.
    9900012    2    1    2    0    0 -0.16528120525E+02 -0.54820102030E+01  0.41543737928E+02  0.46142319130E+02  0.10000012487E+02 0.  0.
         12    1    1    2    0    0  0.16528120525E+02  0.54820102030E+01 -0.41543737928E+02  0.45045680870E+02  0.00000000000E+00 0. -1.
         11    1    3    3    0    0  0.19241959840E+00 -0.24507638305E+01  0.73015873998E+01  0.77043135627E+01  0.51100000000E-03 0. -1.
        -11    1    3    3    0    0 -0.80136282053E+01 -0.34662740362E+01  0.17904480699E+02  0.19919932783E+02  0.51100000000E-03 0.  1.
        -12    1    3    3    0    0 -0.87069119177E+01  0.43502766359E+00  0.16337669830E+02  0.18518072785E+02  0.00000000000E+00 0.  1.
</event>
<event>
 7    1  0.2353206E-008  0.4614232E+02  0.7816164E-02  0.1320468E+00
        -11   -1    0    0    0    0  0.00000000000E+00  0.00000000000E+00  0.45593999997E+02  0.45594000000E+02  0.51100000000E-03 0.  1.
         11   -1    0    0    0    0 -0.00000000000E+00 -0.00000000000E+00 -0.45593999997E+02  0.45594000000E+02  0.51100000000E-03 0. -1.
    9900012    2    1    2    0    0 -0.10816878553E+02  0.42272226656E+02  0.11187829649E+02  0.46142317184E+02  0.99999947353E+01 0.  0.
         12    1    1    2    0    0  0.10816878553E+02 -0.42272226656E+02 -0.11187829649E+02  0.45045682816E+02  0.00000000000E+00 0. -1.
         11    1    3    3    0    0 -0.34267275460E+01  0.10317844221E+02  0.51948894500E+01  0.12049367108E+02  0.51100000000E-03 0. -1.
        -11    1    3    3    0    0 -0.39068141318E+01  0.14479513514E+02  0.63118994545E+01  0.16271434579E+02  0.51100000000E-03 0.  1.
         12    1    3    3    0    0 -0.34833368752E+01  0.17474868921E+02 -0.31895925555E+00  0.17821515497E+02  0.00000000000E+00 0. -1.
</event>
<event>
 7    1  0.2353206E-008  0.4614232E+02  0.7816164E-02  0.1320468E+00
        -11   -1    0    0    0    0  0.00000000000E+00  0.00000000000E+00  0.45593999997E+02  0.45594000000E+02  0.51100000000E-03 0.  1.
         11   -1    0    0    0    0 -0.00000000000E+00 -0.00000000000E+00 -0.45593999997E+02  0.45594000000E+02  0.51100000000E-03 0. -1.
    9900012    2    1    2    0    0  0.15052494166E+02 -0.17429897636E+02  0.38713493744E+02  0.46142317520E+02  0.99999977999E+01 0.  0.
         12    1    1    2    0    0 -0.15052494166E+02  0.17429897636E+02 -0.38713493744E+02  0.45045682480E+02  0.00000000000E+00 0. -1.
         11    1    3    3    0    0  0.11725700429E+01 -0.80827352114E+00 -0.85103810053E-01  0.14266988155E+01  0.51100000000E-03 0. -1.
        -11    1    3    3    0    0  0.11323470989E+02 -0.10075816194E+02  0.25156096833E+02  0.29369580783E+02  0.51100000000E-03 0.  1.
         12    1    3    3    0    0  0.25564531337E+01 -0.65458079204E+01  0.13642500721E+02  0.15346037921E+02  0.00000000000E+00 0. -1.
</event>
<event>
 7    1  0.2353206E-008  0.4614232E+02  0.7816164E-02  0.1320468E+00
        -11   -1    0    0    0    0  0.00000000000E+00  0.00000000000E+00  0.45593999997E+02  0.45594000000E+02  0.51100000000E-03 0. -1.
         11   -1    0    0    0    0 -0.00000000000E+00 -0.00000000000E+00 -0.45593999997E+02  0.45594000000E+02  0.51100000000E-03 0.  1.
    9900012    2    1    2    0    0 -0.42593229611E+02 -0.31365953479E+01 -0.14321034532E+02  0.46142317974E+02  0.10000001942E+02 0.  0.
         12    1    1    2    0    0  0.42593229611E+02  0.31365953479E+01  0.14321034532E+02  0.45045682026E+02  0.00000000000E+00 0. -1.
         11    1    3    3    0    0 -0.19443439588E+02 -0.39105165874E+01 -0.66282482714E+01  0.20911077409E+02  0.51100000000E-03 0. -1.
        -11    1    3    3    0    0 -0.13820546235E+02 -0.25889888735E+01 -0.36903922227E+01  0.14537171548E+02  0.51100000000E-03 0.  1.
         12    1    3    3    0    0 -0.93292437888E+01  0.33629101131E+01 -0.40023940381E+01  0.10694069017E+02  0.00000000000E+00 0. -1.
</event>
<event>
 7    1  0.2353206E-008  0.4614232E+02  0.7816164E-02  0.1320468E+00
        -11   -1    0    0    0    0  0.00000000000E+00  0.00000000000E+00  0.45593999997E+02  0.45594000000E+02  0.51100000000E-03 0. -1.
         11   -1    0    0    0    0 -0.00000000000E+00 -0.00000000000E+00 -0.45593999997E+02  0.45594000000E+02  0.51100000000E-03 0.  1.
    9900012    2    1    2    0    0 -0.76084034444E+01 -0.15225530135E+02 -0.41706222187E+02  0.46142317189E+02  0.99999947791E+01 0.  0.
         12    1    1    2    0    0  0.76084034444E+01  0.15225530135E+02  0.41706222187E+02  0.45045682811E+02  0.00000000000E+00 0. -1.
         11    1    3    3    0    0 -0.43695632745E+01 -0.33023510981E+01 -0.10845260425E+02  0.12149826333E+02  0.51100000000E-03 0. -1.
        -11    1    3    3    0    0 -0.53762781362E+01 -0.10099201866E+02 -0.24787525601E+02  0.27300543412E+02  0.51100000000E-03 0.  1.
         12    1    3    3    0    0  0.21374379663E+01 -0.18239771712E+01 -0.60734361608E+01  0.66919474430E+01  0.00000000000E+00 0. -1.
</event>
<event>
 7    1  0.2353206E-008  0.4614232E+02  0.7816164E-02  0.1320468E+00
        -11   -1    0    0    0    0  0.00000000000E+00  0.00000000000E+00  0.45593999997E+02  0.45594000000E+02  0.51100000000E-03 0. -1.
         11   -1    0    0    0    0 -0.00000000000E+00 -0.00000000000E+00 -0.45593999997E+02  0.45594000000E+02  0.51100000000E-03 0.  1.
    9900012    2    1    2    0    0 -0.14491314335E+02 -0.33181066891E+02 -0.26797987058E+02  0.46142317615E+02  0.99999986659E+01 0.  0.
         12    1    1    2    0    0  0.14491314335E+02  0.33181066891E+02  0.26797987058E+02  0.45045682385E+02  0.00000000000E+00 0. -1.
         11    1    3    3    0    0 -0.90641346002E+01 -0.19516011783E+02 -0.20534753590E+02  0.29744064235E+02  0.51100000000E-03 0. -1.
        -11    1    3    3    0    0 -0.22681994905E+01 -0.62268764303E+01 -0.48069125747E+01  0.81868875508E+01  0.51100000000E-03 0.  1.
         12    1    3    3    0    0 -0.31589802439E+01 -0.74381786784E+01 -0.14563208930E+01  0.82113658289E+01  0.00000000000E+00 0. -1.
</event>
<event>
 7    1  0.2353206E-008  0.4614232E+02  0.7816164E-02  0.1320468E+00
        -11   -1    0    0    0    0  0.00000000000E+00  0.00000000000E+00  0.45593999997E+02  0.45594000000E+02  0.51100000000E-03 0. -1.
         11   -1    0    0    0    0 -0.00000000000E+00 -0.00000000000E+00 -0.45593999997E+02  0.45594000000E+02  0.51100000000E-03 0.  1.
    9900012    2    1    2    0    0  0.41876543455E+02  0.56797923210E+01 -0.15595142557E+02  0.46142318699E+02  0.10000008549E+02 0.  0.
         12    1    1    2    0    0 -0.41876543455E+02 -0.56797923210E+01  0.15595142557E+02  0.45045681301E+02  0.00000000000E+00 0. -1.
         11    1    3    3    0    0  0.15192880479E+01 -0.65651759496E-01 -0.15545807050E+01  0.21746879674E+01  0.51100000000E-03 0. -1.
        -11    1    3    3    0    0  0.27960892591E+02  0.76762735789E+00 -0.68547702599E+01  0.28799108351E+02  0.51100000000E-03 0.  1.
        -12    1    3    3    0    0  0.12396362816E+02  0.49778167226E+01 -0.71857915921E+01  0.15168522380E+02  0.00000000000E+00 0.  1.
</event>
<event>
 7    1  0.2353206E-008  0.4614232E+02  0.7816164E-02  0.1320468E+00
        -11   -1    0    0    0    0  0.00000000000E+00  0.00000000000E+00  0.45593999997E+02  0.45594000000E+02  0.51100000000E-03 0.  1.
         11   -1    0    0    0    0 -0.00000000000E+00 -0.00000000000E+00 -0.45593999997E+02  0.45594000000E+02  0.51100000000E-03 0. -1.
    9900012    2    1    2    0    0  0.34118930753E+01  0.24569954269E+02  0.37600390454E+02  0.46142322855E+02  0.10000046451E+02 0.  0.
         12    1    1    2    0    0 -0.34118930753E+01 -0.24569954269E+02 -0.37600390454E+02  0.45045677145E+02  0.00000000000E+00 0. -1.
         11    1    3    3    0    0 -0.81827504279E+00  0.63966492801E+01  0.11679178391E+02  0.13341285703E+02  0.51100000000E-03 0. -1.
        -11    1    3    3    0    0  0.53592433116E+00  0.55622653188E+01  0.13938918448E+02  0.15017305289E+02  0.51100000000E-03 0.  1.
         12    1    3    3    0    0  0.36942437870E+01  0.12611039670E+02  0.11982293615E+02  0.17783731863E+02  0.00000000000E+00 0. -1.
</event>
<event>
 7    1  0.2353206E-008  0.4614232E+02  0.7816164E-02  0.1320468E+00
        -11   -1    0    0    0    0  0.00000000000E+00  0.00000000000E+00  0.45593999997E+02  0.45594000000E+02  0.51100000000E-03 0. -1.
         11   -1    0    0    0    0 -0.00000000000E+00 -0.00000000000E+00 -0.45593999997E+02  0.45594000000E+02  0.51100000000E-03 0.  1.
    9900012    2    1    2    0    0  0.22342471775E+02 -0.26043320334E+02 -0.29183436467E+02  0.46142317154E+02  0.99999944667E+01 0.  0.
         12    1    1    2    0    0 -0.22342471775E+02  0.26043320334E+02  0.29183436467E+02  0.45045682846E+02  0.00000000000E+00 0. -1.
         11    1    3    3    0    0  0.73313255972E+01 -0.90235583276E+01 -0.55182513499E+01  0.12869500306E+02  0.51100000000E-03 0. -1.
        -11    1    3    3    0    0  0.11693499025E+02 -0.15674011993E+02 -0.18043537715E+02  0.26607927859E+02  0.51100000000E-03 0.  1.
        -12    1    3    3    0    0  0.33176471532E+01 -0.13457500126E+01 -0.56216474021E+01  0.66648889895E+01  0.00000000000E+00 0.  1.
</event>
<event>
 7    1  0.2353206E-008  0.4614232E+02  0.7816164E-02  0.1320468E+00
        -11   -1    0    0    0    0  0.00000000000E+00  0.00000000000E+00  0.45593999997E+02  0.45594000000E+02  0.51100000000E-03 0. -1.
         11   -1    0    0    0    0 -0.00000000000E+00 -0.00000000000E+00 -0.45593999997E+02  0.45594000000E+02  0.51100000000E-03 0.  1.
    9900012    2    1    2    0    0 -0.41578686568E+02  0.98668234987E+01  0.14246830028E+02  0.46142317093E+02  0.99999939114E+01 0.  0.
         12    1    1    2    0    0  0.41578686568E+02 -0.98668234987E+01 -0.14246830028E+02  0.45045682907E+02  0.00000000000E+00 0. -1.
         11    1    3    3    0    0 -0.66134997208E+01  0.11942548555E+01  0.36352179012E+01  0.76406434721E+01  0.51100000000E-03 0. -1.
        -11    1    3    3    0    0 -0.17432891611E+02  0.84343543186E+01  0.40832126774E+01  0.19791833384E+02  0.51100000000E-03 0.  1.
        -12    1    3    3    0    0 -0.17532295237E+02  0.23821432453E+00  0.65283994489E+01  0.18709840237E+02  0.00000000000E+00 0.  1.
</event>
<event>
 7    1  0.2353206E-008  0.4614231E+02  0.7816164E-02  0.1320468E+00
        -11   -1    0    0    0    0  0.00000000000E+00  0.00000000000E+00  0.45593999997E+02  0.45594000000E+02  0.51100000000E-03 0.  1.
         11   -1    0    0    0    0 -0.00000000000E+00 -0.00000000000E+00 -0.45593999997E+02  0.45594000000E+02  0.51100000000E-03 0. -1.
    9900012    2    1    2    0    0  0.37983026500E+02  0.10911106224E+01  0.24191176326E+02  0.46142313896E+02  0.99999647579E+01 0.  0.
         12    1    1    2    0    0 -0.37983026500E+02 -0.10911106224E+01 -0.24191176326E+02  0.45045686104E+02  0.00000000000E+00 0. -1.
         11    1    3    3    0    0  0.20272774066E+02 -0.21379965767E+01  0.88049640270E+01  0.22205490075E+02  0.51100000000E-03 0. -1.
        -11    1    3    3    0    0 -0.90866297876E-01 -0.23792680455E-01 -0.86638239027E-01  0.12778584161E+00  0.51100000000E-03 0.  1.
        -12    1    3    3    0    0  0.17801118732E+02  0.32528998796E+01  0.15472850538E+02  0.23809037979E+02  0.00000000000E+00 0.  1.
</event>
<event>
 7    1  0.2353206E-008  0.4614232E+02  0.7816164E-02  0.1320468E+00
        -11   -1    0    0    0    0  0.00000000000E+00  0.00000000000E+00  0.45593999997E+02  0.45594000000E+02  0.51100000000E-03 0. -1.
         11   -1    0    0    0    0 -0.00000000000E+00 -0.00000000000E+00 -0.45593999997E+02  0.45594000000E+02  0.51100000000E-03 0.  1.
    9900012    2    1    2    0    0  0.19552278584E+01 -0.44991370663E+02 -0.10330376620E+01  0.46142317444E+02  0.99999971069E+01 0.  0.
         12    1    1    2    0    0 -0.19552278584E+01  0.44991370663E+02  0.10330376620E+01  0.45045682556E+02  0.00000000000E+00 0. -1.
         11    1    3    3    0    0  0.35786802943E+01 -0.19749120445E+02 -0.18164142137E+01  0.20152768342E+02  0.51100000000E-03 0. -1.
        -11    1    3    3    0    0  0.14831499872E+01 -0.16882028835E+02 -0.63377996274E+00  0.16958900576E+02  0.51100000000E-03 0.  1.
        -12    1    3    3    0    0 -0.31066024231E+01 -0.83602213837E+01  0.14171565145E+01  0.90306485252E+01  0.00000000000E+00 0.  1.
</event>
<event>
 7    1  0.2353206E-008  0.4614231E+02  0.7816164E-02  0.1320468E+00
        -11   -1    0    0    0    0  0.00000000000E+00  0.00000000000E+00  0.45593999997E+02  0.45594000000E+02  0.51100000000E-03 0.  1.
         11   -1    0    0    0    0 -0.00000000000E+00 -0.00000000000E+00 -0.45593999997E+02  0.45594000000E+02  0.51100000000E-03 0. -1.
    9900012    2    1    2    0    0  0.19666061159E+02  0.95738937361E+00  0.40514731815E+02  0.46142311528E+02  0.99999431571E+01 0.  0.
         12    1    1    2    0    0 -0.19666061159E+02 -0.95738937361E+00 -0.40514731815E+02  0.45045688472E+02  0.00000000000E+00 0. -1.
         11    1    3    3    0    0  0.12880787572E+01 -0.28574230331E+00  0.87433945088E+00  0.15828029837E+01  0.51100000000E-03 0. -1.
        -11    1    3    3    0    0  0.11433781984E+02  0.19322718037E+01  0.32792926198E+02  0.34782769494E+02  0.51100000000E-03 0.  1.
        -12    1    3    3    0    0  0.69442004174E+01 -0.68914012678E+00  0.68474661660E+01  0.97767390497E+01  0.00000000000E+00 0.  1.
</event>
<event>
 7    1  0.2353206E-008  0.4614232E+02  0.7816164E-02  0.1320468E+00
        -11   -1    0    0    0    0  0.00000000000E+00  0.00000000000E+00  0.45593999997E+02  0.45594000000E+02  0.51100000000E-03 0.  1.
         11   -1    0    0    0    0 -0.00000000000E+00 -0.00000000000E+00 -0.45593999997E+02  0.45594000000E+02  0.51100000000E-03 0. -1.
    9900012    2    1    2    0    0 -0.23646190495E+02  0.14758765812E+00  0.38339919600E+02  0.46142317166E+02  0.99999945726E+01 0.  0.
         12    1    1    2    0    0  0.23646190495E+02 -0.14758765812E+00 -0.38339919600E+02  0.45045682834E+02  0.00000000000E+00 0. -1.
         11    1    3    3    0    0 -0.28467037948E+01  0.19993665781E+01  0.18948555894E+01  0.39612709040E+01  0.51100000000E-03 0. -1.
        -11    1    3    3    0    0 -0.10167047897E+01  0.73808385448E+00  0.16820031500E+01  0.20994264129E+01  0.51100000000E-03 0.  1.
        -12    1    3    3    0    0 -0.19782781910E+02 -0.25898627745E+01  0.34763060861E+02  0.40081619849E+02  0.00000000000E+00 0.  1.
</event>
<event>
 7    1  0.2353206E-008  0.4614232E+02  0.7816164E-02  0.1320468E+00
        -11   -1    0    0    0    0  0.00000000000E+00  0.00000000000E+00  0.45593999997E+02  0.45594000000E+02  0.51100000000E-03 0.  1.
         11   -1    0    0    0    0 -0.00000000000E+00 -0.00000000000E+00 -0.45593999997E+02  0.45594000000E+02  0.51100000000E-03 0. -1.
    9900012    2    1    2    0    0 -0.42392176086E+02 -0.12762863749E+01 -0.15178534026E+02  0.46142318793E+02  0.10000009407E+02 0.  0.
         12    1    1    2    0    0  0.42392176086E+02  0.12762863749E+01  0.15178534026E+02  0.45045681207E+02  0.00000000000E+00 0. -1.
         11    1    3    3    0    0 -0.30306751673E+02  0.22894563970E+01 -0.10854318696E+02  0.32273162878E+02  0.51100000000E-03 0. -1.
        -11    1    3    3    0    0 -0.90923433041E+01 -0.14295039005E+01 -0.43764725970E+01  0.10191550462E+02  0.51100000000E-03 0.  1.
         12    1    3    3    0    0 -0.29930811098E+01 -0.21362388714E+01  0.52257267081E-01  0.36776054529E+01  0.00000000000E+00 0. -1.
</event>
<event>
 7    1  0.2353206E-008  0.4614232E+02  0.7816164E-02  0.1320468E+00
        -11   -1    0    0    0    0  0.00000000000E+00  0.00000000000E+00  0.45593999997E+02  0.45594000000E+02  0.51100000000E-03 0. -1.
         11   -1    0    0    0    0 -0.00000000000E+00 -0.00000000000E+00 -0.45593999997E+02  0.45594000000E+02  0.51100000000E-03 0.  1.
    9900012    2    1    2    0    0  0.63089728336E+01 -0.15672398312E+02 -0.41757469482E+02  0.46142318025E+02  0.10000002408E+02 0.  0.
         12    1    1    2    0    0 -0.63089728336E+01  0.15672398312E+02  0.41757469482E+02  0.45045681975E+02  0.00000000000E+00 0. -1.
         11    1    3    3    0    0 -0.17056381586E+01 -0.67590504117E+01 -0.13621308847E+02  0.15301438461E+02  0.51100000000E-03 0. -1.
        -11    1    3    3    0    0  0.55280151288E+01 -0.60997722528E+01 -0.23343326789E+02  0.24752314612E+02  0.51100000000E-03 0.  1.
         12    1    3    3    0    0  0.24865958634E+01 -0.28135756472E+01 -0.47928338453E+01  0.60885649524E+01  0.00000000000E+00 0. -1.
</event>
<event>
 7    1  0.2353206E-008  0.4614232E+02  0.7816164E-02  0.1320468E+00
        -11   -1    0    0    0    0  0.00000000000E+00  0.00000000000E+00  0.45593999997E+02  0.45594000000E+02  0.51100000000E-03 0.  1.
         11   -1    0    0    0    0 -0.00000000000E+00 -0.00000000000E+00 -0.45593999997E+02  0.45594000000E+02  0.51100000000E-03 0. -1.
    9900012    2    1    2    0    0 -0.40393127518E+02 -0.14317486043E+02  0.13875096188E+02  0.46142318170E+02  0.10000003730E+02 0.  0.
         12    1    1    2    0    0  0.40393127518E+02  0.14317486043E+02 -0.13875096188E+02  0.45045681830E+02  0.00000000000E+00 0. -1.
         11    1    3    3    0    0 -0.12698716442E+02 -0.20833908031E+01  0.50954958712E+01  0.13840592290E+02  0.51100000000E-03 0. -1.
        -11    1    3    3    0    0 -0.18967841374E+02 -0.46697956822E+01  0.57268557210E+01  0.20356396411E+02  0.51100000000E-03 0.  1.
         12    1    3    3    0    0 -0.87265697016E+01 -0.75642995579E+01  0.30527445957E+01  0.11945329469E+02  0.00000000000E+00 0. -1.
</event>
<event>
 7    1  0.2353206E-008  0.4614232E+02  0.7816164E-02  0.1320468E+00
        -11   -1    0    0    0    0  0.00000000000E+00  0.00000000000E+00  0.45593999997E+02  0.45594000000E+02  0.51100000000E-03 0.  1.
         11   -1    0    0    0    0 -0.00000000000E+00 -0.00000000000E+00 -0.45593999997E+02  0.45594000000E+02  0.51100000000E-03 0. -1.
    9900012    2    1    2    0    0  0.11875314093E+02 -0.27003730120E+02  0.34042458267E+02  0.46142317743E+02  0.99999998304E+01 0.  0.
         12    1    1    2    0    0 -0.11875314093E+02  0.27003730120E+02 -0.34042458267E+02  0.45045682257E+02  0.00000000000E+00 0. -1.
         11    1    3    3    0    0  0.56556919570E+01 -0.88414625351E+01  0.10569410598E+02  0.14895326513E+02  0.51100000000E-03 0. -1.
        -11    1    3    3    0    0  0.74304717804E+00  0.39484163492E-01 -0.30602775774E+00  0.80456905085E+00  0.51100000000E-03 0.  1.
        -12    1    3    3    0    0  0.54765749577E+01 -0.18201751748E+02  0.23779075426E+02  0.30442422179E+02  0.00000000000E+00 0.  1.
</event>
<event>
 7    1  0.2353206E-008  0.4614232E+02  0.7816164E-02  0.1320468E+00
        -11   -1    0    0    0    0  0.00000000000E+00  0.00000000000E+00  0.45593999997E+02  0.45594000000E+02  0.51100000000E-03 0. -1.
         11   -1    0    0    0    0 -0.00000000000E+00 -0.00000000000E+00 -0.45593999997E+02  0.45594000000E+02  0.51100000000E-03 0.  1.
    9900012    2    1    2    0    0 -0.40859163248E+02 -0.14805063405E+02 -0.11851259440E+02  0.46142317920E+02  0.10000001448E+02 0.  0.
         12    1    1    2    0    0  0.40859163248E+02  0.14805063405E+02  0.11851259440E+02  0.45045682080E+02  0.00000000000E+00 0. -1.
         11    1    3    3    0    0 -0.58961272513E+00 -0.11700450021E+01  0.50420591405E+00  0.14038776077E+01  0.51100000000E-03 0. -1.
        -11    1    3    3    0    0 -0.32551637394E+02 -0.95571502297E+01 -0.74810051819E+01  0.34740662866E+02  0.51100000000E-03 0.  1.
        -12    1    3    3    0    0 -0.77179131285E+01 -0.40778681730E+01 -0.48744601725E+01  0.99977774465E+01  0.00000000000E+00 0.  1.
</event>
<event>
 7    1  0.2353206E-008  0.4614232E+02  0.7816164E-02  0.1320468E+00
        -11   -1    0    0    0    0  0.00000000000E+00  0.00000000000E+00  0.45593999997E+02  0.45594000000E+02  0.51100000000E-03 0.  1.
         11   -1    0    0    0    0 -0.00000000000E+00 -0.00000000000E+00 -0.45593999997E+02  0.45594000000E+02  0.51100000000E-03 0. -1.
    9900012    2    1    2    0    0  0.37688818553E+02 -0.13583060136E+02  0.20595313181E+02  0.46142317725E+02  0.99999996733E+01 0.  0.
         12    1    1    2    0    0 -0.37688818553E+02  0.13583060136E+02 -0.20595313181E+02  0.45045682275E+02  0.00000000000E+00 0. -1.
         11    1    3    3    0    0  0.44201204960E+01 -0.29267862907E+01  0.92175652933E+00  0.53808157886E+01  0.51100000000E-03 0. -1.
        -11    1    3    3    0    0  0.24559053394E+02 -0.10602491393E+02  0.12739676556E+02  0.29628690257E+02  0.51100000000E-03 0.  1.
         12    1    3    3    0    0  0.87096446630E+01 -0.53782452009E-01  0.69338800956E+01  0.11132811679E+02  0.00000000000E+00 0. -1.
</event>
<event>
 7    1  0.2353206E-008  0.4614232E+02  0.7816164E-02  0.1320468E+00
        -11   -1    0    0    0    0  0.00000000000E+00  0.00000000000E+00  0.45593999997E+02  0.45594000000E+02  0.51100000000E-03 0.  1.
         11   -1    0    0    0    0 -0.00000000000E+00 -0.00000000000E+00 -0.45593999997E+02  0.45594000000E+02  0.51100000000E-03 0. -1.
    9900012    2    1    2    0    0 -0.13427535441E+02 -0.39728210427E+02 -0.16446407270E+02  0.46142315148E+02  0.99999761680E+01 0.  0.
         12    1    1    2    0    0  0.13427535441E+02  0.39728210427E+02  0.16446407270E+02  0.45045684852E+02  0.00000000000E+00 0. -1.
         11    1    3    3    0    0 -0.39240272958E+01 -0.17000137427E+02 -0.80117855754E+01  0.19198733581E+02  0.51100000000E-03 0.  1.
        -11    1    3    3    0    0 -0.45404243223E+01 -0.35053821930E+01 -0.18535773958E+01  0.60281760732E+01  0.51100000000E-03 0. -1.
        -12    1    3    3    0    0 -0.49630838230E+01 -0.19222690807E+02 -0.65810442991E+01  0.20915405493E+02  0.00000000000E+00 0.  1.
</event>
<event>
 7    1  0.2353206E-008  0.4614232E+02  0.7816164E-02  0.1320468E+00
        -11   -1    0    0    0    0  0.00000000000E+00  0.00000000000E+00  0.45593999997E+02  0.45594000000E+02  0.51100000000E-03 0.  1.
         11   -1    0    0    0    0 -0.00000000000E+00 -0.00000000000E+00 -0.45593999997E+02  0.45594000000E+02  0.51100000000E-03 0. -1.
    9900012    2    1    2    0    0 -0.15153274178E+02 -0.32477221693E+02  0.27289593078E+02  0.46142317215E+02  0.99999950168E+01 0.  0.
         12    1    1    2    0    0  0.15153274178E+02  0.32477221693E+02 -0.27289593078E+02  0.45045682785E+02  0.00000000000E+00 0. -1.
         11    1    3    3    0    0 -0.14858036749E+01 -0.68627596296E+00  0.68520903464E+00  0.17742882911E+01  0.51100000000E-03 0. -1.
        -11    1    3    3    0    0 -0.54610347369E+00 -0.58132869327E+00 -0.54920431915E+00  0.96839955540E+00  0.51100000000E-03 0.  1.
        -12    1    3    3    0    0 -0.13121367029E+02 -0.31209617037E+02  0.27153588363E+02  0.43399629368E+02  0.00000000000E+00 0.  1.
</event>
<event>
 7    1  0.2353206E-008  0.4614232E+02  0.7816164E-02  0.1320468E+00
        -11   -1    0    0    0    0  0.00000000000E+00  0.00000000000E+00  0.45593999997E+02  0.45594000000E+02  0.51100000000E-03 0.  1.
         11   -1    0    0    0    0 -0.00000000000E+00 -0.00000000000E+00 -0.45593999997E+02  0.45594000000E+02  0.51100000000E-03 0. -1.
    9900012    2    1    2    0    0  0.40818197434E+02  0.19051949975E+02  0.10714347403E+00  0.46142317417E+02  0.99999968625E+01 0.  0.
         12    1    1    2    0    0 -0.40818197434E+02 -0.19051949975E+02 -0.10714347403E+00  0.45045682583E+02  0.00000000000E+00 0. -1.
         11    1    3    3    0    0  0.76905049544E+01  0.70930438610E+01  0.16842087352E+01  0.10596777670E+02  0.51100000000E-03 0. -1.
        -11    1    3    3    0    0  0.57784538153E+01  0.16748215297E+01 -0.19496046303E+01  0.63242797319E+01  0.51100000000E-03 0.  1.
        -12    1    3    3    0    0  0.27349238665E+02  0.10284084584E+02  0.37253936906E+00  0.29221260015E+02  0.00000000000E+00 0.  1.
</event>
<event>
 7    1  0.2353206E-008  0.4614232E+02  0.7816164E-02  0.1320468E+00
        -11   -1    0    0    0    0  0.00000000000E+00  0.00000000000E+00  0.45593999997E+02  0.45594000000E+02  0.51100000000E-03 0.  1.
         11   -1    0    0    0    0 -0.00000000000E+00 -0.00000000000E+00 -0.45593999997E+02  0.45594000000E+02  0.51100000000E-03 0. -1.
    9900012    2    1    2    0    0 -0.21243880356E+02 -0.64096416920E+01  0.39201114087E+02  0.46142319798E+02  0.10000018575E+02 0.  0.
         12    1    1    2    0    0  0.21243880356E+02  0.64096416920E+01 -0.39201114087E+02  0.45045680202E+02  0.00000000000E+00 0. -1.
         11    1    3    3    0    0 -0.12440137247E+02 -0.68778853415E+01  0.19416889568E+02  0.24064037946E+02  0.51100000000E-03 0. -1.
        -11    1    3    3    0    0 -0.31931065356E+01 -0.17349122379E+01  0.93004246140E+01  0.99851764172E+01  0.51100000000E-03 0.  1.
         12    1    3    3    0    0 -0.56106365736E+01  0.22031558873E+01  0.10483799905E+02  0.12093105435E+02  0.00000000000E+00 0. -1.
</event>
<event>
 7    1  0.2353206E-008  0.4614232E+02  0.7816164E-02  0.1320468E+00
        -11   -1    0    0    0    0  0.00000000000E+00  0.00000000000E+00  0.45593999997E+02  0.45594000000E+02  0.51100000000E-03 0.  1.
         11   -1    0    0    0    0 -0.00000000000E+00 -0.00000000000E+00 -0.45593999997E+02  0.45594000000E+02  0.51100000000E-03 0. -1.
    9900012    2    1    2    0    0 -0.96028891455E+01 -0.33483663218E+02 -0.28561202839E+02  0.46142317742E+02  0.99999998268E+01 0.  0.
         12    1    1    2    0    0  0.96028891455E+01  0.33483663218E+02  0.28561202839E+02  0.45045682258E+02  0.00000000000E+00 0. -1.
         11    1    3    3    0    0  0.35443465142E+00 -0.11528776025E+02 -0.83514316820E+01  0.14240249715E+02  0.51100000000E-03 0. -1.
        -11    1    3    3    0    0 -0.15323949996E+00 -0.43293080811E+00  0.34002852597E+00  0.57142898820E+00  0.51100000000E-03 0.  1.
        -12    1    3    3    0    0 -0.98040842969E+01 -0.21521956386E+02 -0.20549799683E+02  0.31330639039E+02  0.00000000000E+00 0.  1.
</event>
<event>
 7    1  0.2353206E-008  0.4614232E+02  0.7816164E-02  0.1320468E+00
        -11   -1    0    0    0    0  0.00000000000E+00  0.00000000000E+00  0.45593999997E+02  0.45594000000E+02  0.51100000000E-03 0.  1.
         11   -1    0    0    0    0 -0.00000000000E+00 -0.00000000000E+00 -0.45593999997E+02  0.45594000000E+02  0.51100000000E-03 0. -1.
    9900012    2    1    2    0    0 -0.18565110731E+00 -0.13959793617E+02  0.42827598051E+02  0.46142318087E+02  0.10000002974E+02 0.  0.
         12    1    1    2    0    0  0.18565110731E+00  0.13959793617E+02 -0.42827598051E+02  0.45045681913E+02  0.00000000000E+00 0. -1.
         11    1    3    3    0    0 -0.52548140072E+00 -0.41174765731E+01  0.21124709185E+02  0.21528657238E+02  0.51100000000E-03 0. -1.
        -11    1    3    3    0    0  0.14444379407E+01 -0.81783507305E+01  0.20847773676E+02  0.22441067023E+02  0.51100000000E-03 0.  1.
         12    1    3    3    0    0 -0.11046076473E+01 -0.16639663137E+01  0.85511518990E+00  0.21725938267E+01  0.00000000000E+00 0. -1.
</event>
<event>
 7    1  0.2353206E-008  0.4614232E+02  0.7816164E-02  0.1320468E+00
        -11   -1    0    0    0    0  0.00000000000E+00  0.00000000000E+00  0.45593999997E+02  0.45594000000E+02  0.51100000000E-03 0. -1.
         11   -1    0    0    0    0 -0.00000000000E+00 -0.00000000000E+00 -0.45593999997E+02  0.45594000000E+02  0.51100000000E-03 0.  1.
    9900012    2    1    2    0    0  0.37939027615E+01 -0.44828041808E+02 -0.22729605401E+01  0.46142318962E+02  0.10000010952E+02 0.  0.
         12    1    1    2    0    0 -0.37939027615E+01  0.44828041808E+02  0.22729605401E+01  0.45045681038E+02  0.00000000000E+00 0. -1.
         11    1    3    3    0    0 -0.11799907067E+01 -0.77315823444E+01 -0.23448501443E+01  0.81650515049E+01  0.51100000000E-03 0. -1.
        -11    1    3    3    0    0 -0.30578726975E+00 -0.32344876338E+01 -0.16875334043E+01  0.36610361047E+01  0.51100000000E-03 0.  1.
         12    1    3    3    0    0  0.52796807380E+01 -0.33861971830E+02  0.17594230085E+01  0.34316231353E+02  0.00000000000E+00 0. -1.
</event>
<event>
 7    1  0.2353206E-008  0.4614232E+02  0.7816164E-02  0.1320468E+00
        -11   -1    0    0    0    0  0.00000000000E+00  0.00000000000E+00  0.45593999997E+02  0.45594000000E+02  0.51100000000E-03 0.  1.
         11   -1    0    0    0    0 -0.00000000000E+00 -0.00000000000E+00 -0.45593999997E+02  0.45594000000E+02  0.51100000000E-03 0. -1.
    9900012    2    1    2    0    0 -0.98196578900E+01 -0.37010534274E+02  0.23725686370E+02  0.46142317387E+02  0.99999965916E+01 0.  0.
         12    1    1    2    0    0  0.98196578900E+01  0.37010534274E+02 -0.23725686370E+02  0.45045682613E+02  0.00000000000E+00 0. -1.
         11    1    3    3    0    0  0.87912831533E+00 -0.11277088381E+01  0.18310525953E+01  0.23232192506E+01  0.51100000000E-03 0. -1.
        -11    1    3    3    0    0 -0.50371044055E+01 -0.79931364077E+01  0.64506761713E+01  0.11440011965E+02  0.51100000000E-03 0.  1.
        -12    1    3    3    0    0 -0.56616817999E+01 -0.27889689028E+02  0.15443957604E+02  0.32379086172E+02  0.00000000000E+00 0.  1.
</event>
<event>
 7    1  0.2353206E-008  0.4614232E+02  0.7816164E-02  0.1320468E+00
        -11   -1    0    0    0    0  0.00000000000E+00  0.00000000000E+00  0.45593999997E+02  0.45594000000E+02  0.51100000000E-03 0.  1.
         11   -1    0    0    0    0 -0.00000000000E+00 -0.00000000000E+00 -0.45593999997E+02  0.45594000000E+02  0.51100000000E-03 0. -1.
    9900012    2    1    2    0    0 -0.28396082840E+02  0.33613435280E+02 -0.96391387778E+01  0.46142317095E+02  0.99999939297E+01 0.  0.
         12    1    1    2    0    0  0.28396082840E+02 -0.33613435280E+02  0.96391387778E+01  0.45045682905E+02  0.00000000000E+00 0. -1.
         11    1    3    3    0    0 -0.17574633835E+02  0.21565410770E+02 -0.65533781367E+01  0.28581138210E+02  0.51100000000E-03 0. -1.
        -11    1    3    3    0    0 -0.64982635364E+01  0.10190899451E+02 -0.29382403011E+00  0.12090003864E+02  0.51100000000E-03 0.  1.
         12    1    3    3    0    0 -0.43231854681E+01  0.18571250593E+01 -0.27919366110E+01  0.54711750217E+01  0.00000000000E+00 0. -1.
</event>
<event>
 7    1  0.2353206E-008  0.4614231E+02  0.7816164E-02  0.1320468E+00
        -11   -1    0    0    0    0  0.00000000000E+00  0.00000000000E+00  0.45593999997E+02  0.45594000000E+02  0.51100000000E-03 0. -1.
         11   -1    0    0    0    0 -0.00000000000E+00 -0.00000000000E+00 -0.45593999997E+02  0.45594000000E+02  0.51100000000E-03 0.  1.
    9900012    2    1    2    0    0  0.26010833577E+02  0.33418078254E+02  0.15355231846E+02  0.46142305837E+02  0.99998912686E+01 0.  0.
         12    1    1    2    0    0 -0.26010833577E+02 -0.33418078254E+02 -0.15355231846E+02  0.45045694163E+02  0.00000000000E+00 0. -1.
         11    1    3    3    0    0  0.16511975160E+01  0.74615732774E+01  0.30408231046E+01  0.82248485959E+01  0.51100000000E-03 0. -1.
        -11    1    3    3    0    0  0.13575958859E+02  0.17301953047E+02  0.66578523926E+01  0.22978059903E+02  0.51100000000E-03 0.  1.
         12    1    3    3    0    0  0.10783677202E+02  0.86545519300E+01  0.56565563491E+01  0.14939397338E+02  0.00000000000E+00 0. -1.
</event>
<event>
 7    1  0.2353206E-008  0.4614232E+02  0.7816164E-02  0.1320468E+00
        -11   -1    0    0    0    0  0.00000000000E+00  0.00000000000E+00  0.45593999997E+02  0.45594000000E+02  0.51100000000E-03 0. -1.
         11   -1    0    0    0    0 -0.00000000000E+00 -0.00000000000E+00 -0.45593999997E+02  0.45594000000E+02  0.51100000000E-03 0.  1.
    9900012    2    1    2    0    0 -0.12324613600E+02  0.50729926578E+01 -0.43028852354E+02  0.46142317745E+02  0.99999998564E+01 0.  0.
         12    1    1    2    0    0  0.12324613600E+02 -0.50729926578E+01  0.43028852354E+02  0.45045682255E+02  0.00000000000E+00 0. -1.
         11    1    3    3    0    0 -0.58047146314E+00 -0.14367287142E+01 -0.23308296481E+01  0.27989111503E+01  0.51100000000E-03 0. -1.
        -11    1    3    3    0    0 -0.78331879204E+01  0.75990859317E+00 -0.19263317496E+02  0.20808933064E+02  0.51100000000E-03 0.  1.
        -12    1    3    3    0    0 -0.39109542163E+01  0.57498127788E+01 -0.21434705210E+02  0.22534473531E+02  0.00000000000E+00 0.  1.
</event>
<event>
 7    1  0.2353206E-008  0.4614232E+02  0.7816164E-02  0.1320468E+00
        -11   -1    0    0    0    0  0.00000000000E+00  0.00000000000E+00  0.45593999997E+02  0.45594000000E+02  0.51100000000E-03 0.  1.
         11   -1    0    0    0    0 -0.00000000000E+00 -0.00000000000E+00 -0.45593999997E+02  0.45594000000E+02  0.51100000000E-03 0. -1.
    9900012    2    1    2    0    0 -0.19748914452E+02 -0.58256782658E+01  0.40064390867E+02  0.46142316913E+02  0.99999922636E+01 0.  0.
         12    1    1    2    0    0  0.19748914452E+02  0.58256782658E+01 -0.40064390867E+02  0.45045683087E+02  0.00000000000E+00 0. -1.
         11    1    3    3    0    0 -0.15996723917E+02 -0.16455817938E+01  0.26711730753E+02  0.31178833776E+02  0.51100000000E-03 0. -1.
        -11    1    3    3    0    0 -0.32192208817E+01 -0.21515718427E+01  0.11603371318E+02  0.12232369790E+02  0.51100000000E-03 0.  1.
         12    1    3    3    0    0 -0.53296965254E+00 -0.20285246293E+01  0.17492887956E+01  0.27311133467E+01  0.00000000000E+00 0. -1.
</event>
<event>
 7    1  0.2353206E-008  0.4614232E+02  0.7816164E-02  0.1320468E+00
        -11   -1    0    0    0    0  0.00000000000E+00  0.00000000000E+00  0.45593999997E+02  0.45594000000E+02  0.51100000000E-03 0. -1.
         11   -1    0    0    0    0 -0.00000000000E+00 -0.00000000000E+00 -0.45593999997E+02  0.45594000000E+02  0.51100000000E-03 0.  1.
    9900012    2    1    2    0    0  0.38990067109E+02  0.17511445352E+02 -0.14221020931E+02  0.46142317767E+02  0.10000000055E+02 0.  0.
         12    1    1    2    0    0 -0.38990067109E+02 -0.17511445352E+02  0.14221020931E+02  0.45045682233E+02  0.00000000000E+00 0. -1.
         11    1    3    3    0    0  0.50817154350E+01  0.14976134198E+01 -0.30345526399E+01  0.61053409162E+01  0.51100000000E-03 0. -1.
        -11    1    3    3    0    0  0.14960035393E+02  0.91375431897E+01 -0.91574872099E+01  0.19777687599E+02  0.51100000000E-03 0.  1.
         12    1    3    3    0    0  0.18948316281E+02  0.68762887426E+01 -0.20289810809E+01  0.20259289252E+02  0.00000000000E+00 0. -1.
</event>
<event>
 7    1  0.2353206E-008  0.4614232E+02  0.7816164E-02  0.1320468E+00
        -11   -1    0    0    0    0  0.00000000000E+00  0.00000000000E+00  0.45593999997E+02  0.45594000000E+02  0.51100000000E-03 0. -1.
         11   -1    0    0    0    0 -0.00000000000E+00 -0.00000000000E+00 -0.45593999997E+02  0.45594000000E+02  0.51100000000E-03 0.  1.
    9900012    2    1    2    0    0  0.25168874355E+02 -0.36991726129E+02 -0.52204951200E+01  0.46142316437E+02  0.99999879278E+01 0.  0.
         12    1    1    2    0    0 -0.25168874355E+02  0.36991726129E+02  0.52204951200E+01  0.45045683563E+02  0.00000000000E+00 0. -1.
         11    1    3    3    0    0  0.76253253811E+00 -0.61733455693E+00 -0.16500352071E-02  0.98110183498E+00  0.51100000000E-03 0. -1.
        -11    1    3    3    0    0  0.22449621026E+02 -0.26677966755E+02 -0.53100366667E+01  0.35268908178E+02  0.51100000000E-03 0.  1.
        -12    1    3    3    0    0  0.19567207915E+01 -0.96964248173E+01  0.91191581867E-01  0.98923064246E+01  0.00000000000E+00 0.  1.
</event>
<event>
 7    1  0.2353206E-008  0.4614232E+02  0.7816164E-02  0.1320468E+00
        -11   -1    0    0    0    0  0.00000000000E+00  0.00000000000E+00  0.45593999997E+02  0.45594000000E+02  0.51100000000E-03 0. -1.
         11   -1    0    0    0    0 -0.00000000000E+00 -0.00000000000E+00 -0.45593999997E+02  0.45594000000E+02  0.51100000000E-03 0.  1.
    9900012    2    1    2    0    0 -0.32629080766E+02 -0.18453347932E+02 -0.24978601298E+02  0.46142317807E+02  0.10000000414E+02 0.  0.
         12    1    1    2    0    0  0.32629080766E+02  0.18453347932E+02  0.24978601298E+02  0.45045682193E+02  0.00000000000E+00 0. -1.
         11    1    3    3    0    0 -0.11171432222E+01 -0.21034113651E+01 -0.12853360720E+01  0.27063697879E+01  0.51100000000E-03 0. -1.
        -11    1    3    3    0    0 -0.82088796515E+01 -0.84179763467E+01 -0.68289454317E+01  0.13597151425E+02  0.51100000000E-03 0.  1.
        -12    1    3    3    0    0 -0.23303057892E+02 -0.79319602197E+01 -0.16864319794E+02  0.29838796594E+02  0.00000000000E+00 0.  1.
</event>
<event>
 7    1  0.2353206E-008  0.4614232E+02  0.7816164E-02  0.1320468E+00
        -11   -1    0    0    0    0  0.00000000000E+00  0.00000000000E+00  0.45593999997E+02  0.45594000000E+02  0.51100000000E-03 0.  1.
         11   -1    0    0    0    0 -0.00000000000E+00 -0.00000000000E+00 -0.45593999997E+02  0.45594000000E+02  0.51100000000E-03 0. -1.
    9900012    2    1    2    0    0 -0.71244325936E+01  0.11222275102E+02  0.43039709304E+02  0.46142316797E+02  0.99999912065E+01 0.  0.
         12    1    1    2    0    0  0.71244325936E+01 -0.11222275102E+02 -0.43039709304E+02  0.45045683203E+02  0.00000000000E+00 0. -1.
         11    1    3    3    0    0 -0.95681675451E+00 -0.32238512421E+00  0.16479431504E+01  0.19326529327E+01  0.51100000000E-03 0. -1.
        -11    1    3    3    0    0  0.81647580082E+00  0.69958933468E+01  0.15907984206E+02  0.17397503218E+02  0.51100000000E-03 0.  1.
        -12    1    3    3    0    0 -0.69840916399E+01  0.45487668794E+01  0.25483781948E+02  0.26812160646E+02  0.00000000000E+00 0.  1.
</event>
<event>
 7    1  0.2353206E-008  0.4614232E+02  0.7816164E-02  0.1320468E+00
        -11   -1    0    0    0    0  0.00000000000E+00  0.00000000000E+00  0.45593999997E+02  0.45594000000E+02  0.51100000000E-03 0.  1.
         11   -1    0    0    0    0 -0.00000000000E+00 -0.00000000000E+00 -0.45593999997E+02  0.45594000000E+02  0.51100000000E-03 0. -1.
    9900012    2    1    2    0    0  0.79622620801E+01  0.39005321790E+01  0.44164486932E+02  0.46142315693E+02  0.99999811456E+01 0.  0.
         12    1    1    2    0    0 -0.79622620801E+01 -0.39005321790E+01 -0.44164486932E+02  0.45045684307E+02  0.00000000000E+00 0. -1.
         11    1    3    3    0    0 -0.82282593409E+00 -0.14356434803E+01  0.58374450556E+01  0.60674442527E+01  0.51100000000E-03 0. -1.
        -11    1    3    3    0    0  0.79891260767E-01  0.24986069833E+01  0.98393323739E+01  0.10151939780E+02  0.51100000000E-03 0.  1.
         12    1    3    3    0    0  0.87051967534E+01  0.28375686761E+01  0.28487709502E+02  0.29922931661E+02  0.00000000000E+00 0. -1.
</event>
<event>
 7    1  0.2353206E-008  0.4614232E+02  0.7816164E-02  0.1320468E+00
        -11   -1    0    0    0    0  0.00000000000E+00  0.00000000000E+00  0.45593999997E+02  0.45594000000E+02  0.51100000000E-03 0. -1.
         11   -1    0    0    0    0 -0.00000000000E+00 -0.00000000000E+00 -0.45593999997E+02  0.45594000000E+02  0.51100000000E-03 0.  1.
    9900012    2    1    2    0    0  0.35490659214E+02 -0.14305457293E+02 -0.23767214988E+02  0.46142317543E+02  0.99999980074E+01 0.  0.
         12    1    1    2    0    0 -0.35490659214E+02  0.14305457293E+02  0.23767214988E+02  0.45045682457E+02  0.00000000000E+00 0. -1.
         11    1    3    3    0    0  0.21537221859E+02 -0.11058756454E+02 -0.12302923148E+02  0.27157134200E+02  0.51100000000E-03 0. -1.
        -11    1    3    3    0    0  0.97927305178E+01 -0.45142384748E+01 -0.82278632154E+01  0.13563688781E+02  0.51100000000E-03 0.  1.
         12    1    3    3    0    0  0.41607068367E+01  0.12675376354E+01 -0.32364286243E+01  0.54214945613E+01  0.00000000000E+00 0. -1.
</event>
<event>
 7    1  0.2353206E-008  0.4614232E+02  0.7816164E-02  0.1320468E+00
        -11   -1    0    0    0    0  0.00000000000E+00  0.00000000000E+00  0.45593999997E+02  0.45594000000E+02  0.51100000000E-03 0. -1.
         11   -1    0    0    0    0 -0.00000000000E+00 -0.00000000000E+00 -0.45593999997E+02  0.45594000000E+02  0.51100000000E-03 0.  1.
    9900012    2    1    2    0    0 -0.41897503749E+02 -0.90516130856E+01 -0.13848500202E+02  0.46142317880E+02  0.10000001083E+02 0.  0.
         12    1    1    2    0    0  0.41897503749E+02  0.90516130856E+01  0.13848500202E+02  0.45045682120E+02  0.00000000000E+00 0. -1.
         11    1    3    3    0    0 -0.92857368760E+01 -0.28315166015E+01 -0.42648153553E+01  0.10603350691E+02  0.51100000000E-03 0.  1.
        -11    1    3    3    0    0 -0.13894091519E+02 -0.58298513239E+01 -0.70883645589E+01  0.16651662318E+02  0.51100000000E-03 0. -1.
         12    1    3    3    0    0 -0.18717675354E+02 -0.39024516020E+00 -0.24953202882E+01  0.18887304871E+02  0.00000000000E+00 0. -1.
</event>
<event>
 7    1  0.2353206E-008  0.4614232E+02  0.7816164E-02  0.1320468E+00
        -11   -1    0    0    0    0  0.00000000000E+00  0.00000000000E+00  0.45593999997E+02  0.45594000000E+02  0.51100000000E-03 0.  1.
         11   -1    0    0    0    0 -0.00000000000E+00 -0.00000000000E+00 -0.45593999997E+02  0.45594000000E+02  0.51100000000E-03 0. -1.
    9900012    2    1    2    0    0 -0.14428311248E+02 -0.40891773917E+02  0.12198369152E+02  0.46142317082E+02  0.99999938077E+01 0.  0.
         12    1    1    2    0    0  0.14428311248E+02  0.40891773917E+02 -0.12198369152E+02  0.45045682918E+02  0.00000000000E+00 0. -1.
         11    1    3    3    0    0 -0.22785877167E+01 -0.14894637370E+02  0.67794374213E+01  0.16522801105E+02  0.51100000000E-03 0.  1.
        -11    1    3    3    0    0  0.37168897278E+00 -0.15373250688E+00  0.58002278119E-01  0.40638762474E+00  0.51100000000E-03 0. -1.
        -12    1    3    3    0    0 -0.12521412504E+02 -0.25843404041E+02  0.53609294530E+01  0.29213128352E+02  0.00000000000E+00 0.  1.
</event>
<event>
 7    1  0.2353206E-008  0.4614231E+02  0.7816164E-02  0.1320468E+00
        -11   -1    0    0    0    0  0.00000000000E+00  0.00000000000E+00  0.45593999997E+02  0.45594000000E+02  0.51100000000E-03 0. -1.
         11   -1    0    0    0    0 -0.00000000000E+00 -0.00000000000E+00 -0.45593999997E+02  0.45594000000E+02  0.51100000000E-03 0.  1.
    9900012    2    1    2    0    0  0.76840941821E+01 -0.95416355770E+01 -0.43347737345E+02  0.46142307133E+02  0.99999030881E+01 0.  0.
         12    1    1    2    0    0 -0.76840941821E+01  0.95416355770E+01  0.43347737345E+02  0.45045692867E+02  0.00000000000E+00 0. -1.
         11    1    3    3    0    0 -0.47219271396E+00 -0.34777838285E+00  0.14325226680E+00  0.60368637202E+00  0.51100000000E-03 0. -1.
        -11    1    3    3    0    0  0.96079614721E+00 -0.50213175954E+01 -0.14334551108E+02  0.15218939364E+02  0.51100000000E-03 0.  1.
        -12    1    3    3    0    0  0.71954907488E+01 -0.41725395987E+01 -0.29156438504E+02  0.30319681397E+02  0.00000000000E+00 0.  1.
</event>
<event>
 7    1  0.2353206E-008  0.4614232E+02  0.7816164E-02  0.1320468E+00
        -11   -1    0    0    0    0  0.00000000000E+00  0.00000000000E+00  0.45593999997E+02  0.45594000000E+02  0.51100000000E-03 0.  1.
         11   -1    0    0    0    0 -0.00000000000E+00 -0.00000000000E+00 -0.45593999997E+02  0.45594000000E+02  0.51100000000E-03 0. -1.
    9900012    2    1    2    0    0 -0.34441887074E+02 -0.16539045431E+01  0.28985073178E+02  0.46142318158E+02  0.10000003623E+02 0.  0.
         12    1    1    2    0    0  0.34441887074E+02  0.16539045431E+01 -0.28985073178E+02  0.45045681842E+02  0.00000000000E+00 0. -1.
         11    1    3    3    0    0 -0.11905104515E+01  0.59676373194E+00 -0.16950337881E+00  0.13424506485E+01  0.51100000000E-03 0. -1.
        -11    1    3    3    0    0 -0.62133384204E+01  0.22190797747E+01  0.51822356870E+01  0.83896040639E+01  0.51100000000E-03 0.  1.
        -12    1    3    3    0    0 -0.27038038202E+02 -0.44697480497E+01  0.23972340870E+02  0.36410263446E+02  0.00000000000E+00 0.  1.
</event>
<event>
 7    1  0.2353206E-008  0.4614232E+02  0.7816164E-02  0.1320468E+00
        -11   -1    0    0    0    0  0.00000000000E+00  0.00000000000E+00  0.45593999997E+02  0.45594000000E+02  0.51100000000E-03 0.  1.
         11   -1    0    0    0    0 -0.00000000000E+00 -0.00000000000E+00 -0.45593999997E+02  0.45594000000E+02  0.51100000000E-03 0. -1.
    9900012    2    1    2    0    0  0.10513110886E+02  0.40136872829E+02  0.17539083220E+02  0.46142317619E+02  0.99999986999E+01 0.  0.
         12    1    1    2    0    0 -0.10513110886E+02 -0.40136872829E+02 -0.17539083220E+02  0.45045682381E+02  0.00000000000E+00 0. -1.
         11    1    3    3    0    0  0.38441794493E+01  0.27375561473E+02  0.10539261492E+02  0.29585048836E+02  0.51100000000E-03 0. -1.
        -11    1    3    3    0    0  0.45395516949E+01  0.94715148986E+01  0.70292877918E+01  0.12638354766E+02  0.51100000000E-03 0.  1.
        -12    1    3    3    0    0  0.21293797420E+01  0.32897964581E+01 -0.29466063753E-01  0.39189140167E+01  0.00000000000E+00 0.  1.
</event>
<event>
 7    1  0.2353206E-008  0.4614232E+02  0.7816164E-02  0.1320468E+00
        -11   -1    0    0    0    0  0.00000000000E+00  0.00000000000E+00  0.45593999997E+02  0.45594000000E+02  0.51100000000E-03 0.  1.
         11   -1    0    0    0    0 -0.00000000000E+00 -0.00000000000E+00 -0.45593999997E+02  0.45594000000E+02  0.51100000000E-03 0. -1.
    9900012    2    1    2    0    0 -0.28485881773E+02 -0.34857008997E+02 -0.16300078231E+01  0.46142318052E+02  0.10000002656E+02 0.  0.
         12    1    1    2    0    0  0.28485881773E+02  0.34857008997E+02  0.16300078231E+01  0.45045681948E+02  0.00000000000E+00 0. -1.
         11    1    3    3    0    0 -0.11766606520E+02 -0.13633442159E+02  0.54195074900E+00  0.18017144195E+02  0.51100000000E-03 0. -1.
        -11    1    3    3    0    0 -0.17300467834E+02 -0.19207680673E+02 -0.26104916581E+01  0.25981836945E+02  0.51100000000E-03 0.  1.
         12    1    3    3    0    0  0.58119258050E+00 -0.20158861660E+01  0.43853308604E+00  0.21433369118E+01  0.00000000000E+00 0. -1.
</event>
<event>
 7    1  0.2353206E-008  0.4614232E+02  0.7816164E-02  0.1320468E+00
        -11   -1    0    0    0    0  0.00000000000E+00  0.00000000000E+00  0.45593999997E+02  0.45594000000E+02  0.51100000000E-03 0.  1.
         11   -1    0    0    0    0 -0.00000000000E+00 -0.00000000000E+00 -0.45593999997E+02  0.45594000000E+02  0.51100000000E-03 0. -1.
    9900012    2    1    2    0    0  0.33796975923E+02 -0.23006202122E+02  0.18910118532E+02  0.46142317626E+02  0.99999987723E+01 0.  0.
         12    1    1    2    0    0 -0.33796975923E+02  0.23006202122E+02 -0.18910118532E+02  0.45045682374E+02  0.00000000000E+00 0. -1.
         11    1    3    3    0    0  0.11247583136E+02 -0.54848589782E+01  0.56564352366E+01  0.13732700545E+02  0.51100000000E-03 0.  1.
        -11    1    3    3    0    0  0.21784550709E+02 -0.14453851744E+02  0.10351887862E+02  0.28118358103E+02  0.51100000000E-03 0. -1.
         12    1    3    3    0    0  0.76484207868E+00 -0.30674913995E+01  0.29017954325E+01  0.42912589789E+01  0.00000000000E+00 0. -1.
</event>
<event>
 7    1  0.2353206E-008  0.4614232E+02  0.7816164E-02  0.1320468E+00
        -11   -1    0    0    0    0  0.00000000000E+00  0.00000000000E+00  0.45593999997E+02  0.45594000000E+02  0.51100000000E-03 0.  1.
         11   -1    0    0    0    0 -0.00000000000E+00 -0.00000000000E+00 -0.45593999997E+02  0.45594000000E+02  0.51100000000E-03 0. -1.
    9900012    2    1    2    0    0 -0.63420918530E+01  0.69727653440E+01  0.44048518082E+02  0.46142317290E+02  0.99999957045E+01 0.  0.
         12    1    1    2    0    0  0.63420918530E+01 -0.69727653440E+01 -0.44048518082E+02  0.45045682710E+02  0.00000000000E+00 0. -1.
         11    1    3    3    0    0  0.10628949079E+00  0.31498444767E+01  0.51488738923E+01  0.60368634491E+01  0.51100000000E-03 0. -1.
        -11    1    3    3    0    0 -0.45097748565E+01  0.55340495156E+01  0.30006127431E+02  0.30843661536E+02  0.51100000000E-03 0.  1.
         12    1    3    3    0    0 -0.19386064873E+01 -0.17111286483E+01  0.88935167587E+01  0.92617923050E+01  0.00000000000E+00 0. -1.
</event>
<event>
 7    1  0.2353206E-008  0.4614232E+02  0.7816164E-02  0.1320468E+00
        -11   -1    0    0    0    0  0.00000000000E+00  0.00000000000E+00  0.45593999997E+02  0.45594000000E+02  0.51100000000E-03 0. -1.
         11   -1    0    0    0    0 -0.00000000000E+00 -0.00000000000E+00 -0.45593999997E+02  0.45594000000E+02  0.51100000000E-03 0.  1.
    9900012    2    1    2    0    0  0.30539411509E+02 -0.13110863655E+02 -0.30406630414E+02  0.46142316808E+02  0.99999913074E+01 0.  0.
         12    1    1    2    0    0 -0.30539411509E+02  0.13110863655E+02  0.30406630414E+02  0.45045683192E+02  0.00000000000E+00 0. -1.
         11    1    3    3    0    0  0.68806715318E+01 -0.23060829175E+01 -0.27717075449E+01  0.77681414847E+01  0.51100000000E-03 0. -1.
        -11    1    3    3    0    0  0.18054636352E+02 -0.56027001577E+01 -0.18342927825E+02  0.26340522856E+02  0.51100000000E-03 0.  1.
         12    1    3    3    0    0  0.56041036254E+01 -0.52020805803E+01 -0.92919950441E+01  0.12033652467E+02  0.00000000000E+00 0. -1.
</event>
<event>
 7    1  0.2353206E-008  0.4614232E+02  0.7816164E-02  0.1320468E+00
        -11   -1    0    0    0    0  0.00000000000E+00  0.00000000000E+00  0.45593999997E+02  0.45594000000E+02  0.51100000000E-03 0.  1.
         11   -1    0    0    0    0 -0.00000000000E+00 -0.00000000000E+00 -0.45593999997E+02  0.45594000000E+02  0.51100000000E-03 0. -1.
    9900012    2    1    2    0    0  0.26982258602E+02 -0.24049043454E+02  0.26883354781E+02  0.46142317248E+02  0.99999953236E+01 0.  0.
         12    1    1    2    0    0 -0.26982258602E+02  0.24049043454E+02 -0.26883354781E+02  0.45045682752E+02  0.00000000000E+00 0. -1.
         11    1    3    3    0    0  0.11215195711E+02 -0.11475650678E+02  0.90322058475E+01  0.18413362432E+02  0.51100000000E-03 0. -1.
        -11    1    3    3    0    0  0.54869577281E+01 -0.85731774814E+01  0.89702404038E+01  0.13567287511E+02  0.51100000000E-03 0.  1.
        -12    1    3    3    0    0  0.10280105163E+02 -0.40002152941E+01  0.88809085295E+01  0.14161667305E+02  0.00000000000E+00 0.  1.
</event>
<event>
 7    1  0.2353206E-008  0.4614232E+02  0.7816164E-02  0.1320468E+00
        -11   -1    0    0    0    0  0.00000000000E+00  0.00000000000E+00  0.45593999997E+02  0.45594000000E+02  0.51100000000E-03 0.  1.
         11   -1    0    0    0    0 -0.00000000000E+00 -0.00000000000E+00 -0.45593999997E+02  0.45594000000E+02  0.51100000000E-03 0. -1.
    9900012    2    1    2    0    0 -0.39780851706E+02  0.20560379584E+02  0.48854980906E+01  0.46142318046E+02  0.10000002595E+02 0.  0.
         12    1    1    2    0    0  0.39780851706E+02 -0.20560379584E+02 -0.48854980906E+01  0.45045681954E+02  0.00000000000E+00 0. -1.
         11    1    3    3    0    0 -0.82329463568E+00  0.70745150099E+00  0.13067259926E+01  0.16987744889E+01  0.51100000000E-03 0. -1.
        -11    1    3    3    0    0 -0.21327660803E+02  0.13715582241E+02 -0.38337420963E+00  0.25360072705E+02  0.51100000000E-03 0.  1.
        -12    1    3    3    0    0 -0.17629896267E+02  0.61373458417E+01  0.39621463077E+01  0.19083470852E+02  0.00000000000E+00 0.  1.
</event>
<event>
 7    1  0.2353206E-008  0.4614232E+02  0.7816164E-02  0.1320468E+00
        -11   -1    0    0    0    0  0.00000000000E+00  0.00000000000E+00  0.45593999997E+02  0.45594000000E+02  0.51100000000E-03 0.  1.
         11   -1    0    0    0    0 -0.00000000000E+00 -0.00000000000E+00 -0.45593999997E+02  0.45594000000E+02  0.51100000000E-03 0. -1.
    9900012    2    1    2    0    0  0.94438204683E+01 -0.27412882261E+02  0.34474067763E+02  0.46142320884E+02  0.10000028481E+02 0.  0.
         12    1    1    2    0    0 -0.94438204683E+01  0.27412882261E+02 -0.34474067763E+02  0.45045679116E+02  0.00000000000E+00 0. -1.
         11    1    3    3    0    0  0.52556079473E+01 -0.16288452380E+02  0.21883851030E+02  0.27781973148E+02  0.51100000000E-03 0. -1.
        -11    1    3    3    0    0  0.48136581812E+01 -0.72682642657E+01  0.11245446624E+02  0.14228810230E+02  0.51100000000E-03 0.  1.
         12    1    3    3    0    0 -0.62544566023E+00 -0.38561656148E+01  0.13447701089E+01  0.41315375066E+01  0.00000000000E+00 0. -1.
</event>
<event>
 7    1  0.2353206E-008  0.4614232E+02  0.7816164E-02  0.1320468E+00
        -11   -1    0    0    0    0  0.00000000000E+00  0.00000000000E+00  0.45593999997E+02  0.45594000000E+02  0.51100000000E-03 0.  1.
         11   -1    0    0    0    0 -0.00000000000E+00 -0.00000000000E+00 -0.45593999997E+02  0.45594000000E+02  0.51100000000E-03 0. -1.
    9900012    2    1    2    0    0 -0.33058444724E+02  0.17919100600E+02  0.24802390938E+02  0.46142317298E+02  0.99999957745E+01 0.  0.
         12    1    1    2    0    0  0.33058444724E+02 -0.17919100600E+02 -0.24802390938E+02  0.45045682702E+02  0.00000000000E+00 0. -1.
         11    1    3    3    0    0 -0.13725906225E+02  0.34620738659E+01  0.10033384014E+02  0.17350943842E+02  0.51100000000E-03 0. -1.
        -11    1    3    3    0    0 -0.35194546925E+01  0.11068733594E+01  0.40738109398E+01  0.54961500890E+01  0.51100000000E-03 0.  1.
        -12    1    3    3    0    0 -0.15813083806E+02  0.13350153375E+02  0.10695195984E+02  0.23295223367E+02  0.00000000000E+00 0.  1.
</event>
<event>
 7    1  0.2353206E-008  0.4614232E+02  0.7816164E-02  0.1320468E+00
        -11   -1    0    0    0    0  0.00000000000E+00  0.00000000000E+00  0.45593999997E+02  0.45594000000E+02  0.51100000000E-03 0.  1.
         11   -1    0    0    0    0 -0.00000000000E+00 -0.00000000000E+00 -0.45593999997E+02  0.45594000000E+02  0.51100000000E-03 0. -1.
    9900012    2    1    2    0    0 -0.12364059660E+02 -0.31056429623E+02  0.30195059978E+02  0.46142318306E+02  0.10000004965E+02 0.  0.
         12    1    1    2    0    0  0.12364059660E+02  0.31056429623E+02 -0.30195059978E+02  0.45045681694E+02  0.00000000000E+00 0. -1.
         11    1    3    3    0    0  0.12976293041E+00 -0.64084075122E+01  0.76256659810E+01  0.99616919836E+01  0.51100000000E-03 0. -1.
        -11    1    3    3    0    0 -0.40248043563E+01 -0.12381862674E+02  0.13383998637E+02  0.18671930622E+02  0.51100000000E-03 0.  1.
        -12    1    3    3    0    0 -0.84690182345E+01 -0.12266159437E+02  0.91853953605E+01  0.17508695700E+02  0.00000000000E+00 0.  1.
</event>
<event>
 7    1  0.2353206E-008  0.4614232E+02  0.7816164E-02  0.1320468E+00
        -11   -1    0    0    0    0  0.00000000000E+00  0.00000000000E+00  0.45593999997E+02  0.45594000000E+02  0.51100000000E-03 0. -1.
         11   -1    0    0    0    0 -0.00000000000E+00 -0.00000000000E+00 -0.45593999997E+02  0.45594000000E+02  0.51100000000E-03 0.  1.
    9900012    2    1    2    0    0 -0.10304164965E+01 -0.45023851486E+02  0.95103765541E+00  0.46142318371E+02  0.10000005558E+02 0.  0.
         12    1    1    2    0    0  0.10304164965E+01  0.45023851486E+02 -0.95103765541E+00  0.45045681629E+02  0.00000000000E+00 0. -1.
         11    1    3    3    0    0  0.81108615725E-01 -0.10275236231E+02  0.41060468094E+01  0.11065562745E+02  0.51100000000E-03 0. -1.
        -11    1    3    3    0    0 -0.88340031382E+00 -0.42368485843E+01 -0.12493665457E+01  0.45046863451E+01  0.51100000000E-03 0.  1.
        -12    1    3    3    0    0 -0.22812479839E+00 -0.30511766671E+02 -0.19056426083E+01  0.30572069280E+02  0.00000000000E+00 0.  1.
</event>
<event>
 7    1  0.2353206E-008  0.4614232E+02  0.7816164E-02  0.1320468E+00
        -11   -1    0    0    0    0  0.00000000000E+00  0.00000000000E+00  0.45593999997E+02  0.45594000000E+02  0.51100000000E-03 0.  1.
         11   -1    0    0    0    0 -0.00000000000E+00 -0.00000000000E+00 -0.45593999997E+02  0.45594000000E+02  0.51100000000E-03 0. -1.
    9900012    2    1    2    0    0 -0.24704371674E+02  0.30948285994E+02  0.21471167952E+02  0.46142318309E+02  0.10000004996E+02 0.  0.
         12    1    1    2    0    0  0.24704371674E+02 -0.30948285994E+02 -0.21471167952E+02  0.45045681691E+02  0.00000000000E+00 0. -1.
         11    1    3    3    0    0 -0.11450201387E+02  0.96509652519E+01  0.45786867052E+01  0.15659266085E+02  0.51100000000E-03 0. -1.
        -11    1    3    3    0    0 -0.51785713748E+01  0.51045738250E+01  0.51946595061E+01  0.89363730375E+01  0.51100000000E-03 0.  1.
        -12    1    3    3    0    0 -0.80755989122E+01  0.16192746917E+02  0.11697821740E+02  0.21546679187E+02  0.00000000000E+00 0.  1.
</event>
<event>
 7    1  0.2353206E-008  0.4614232E+02  0.7816164E-02  0.1320468E+00
        -11   -1    0    0    0    0  0.00000000000E+00  0.00000000000E+00  0.45593999997E+02  0.45594000000E+02  0.51100000000E-03 0.  1.
         11   -1    0    0    0    0 -0.00000000000E+00 -0.00000000000E+00 -0.45593999997E+02  0.45594000000E+02  0.51100000000E-03 0. -1.
    9900012    2    1    2    0    0 -0.30371943343E+02 -0.17095453748E+02  0.28537759165E+02  0.46142321190E+02  0.10000031268E+02 0.  0.
         12    1    1    2    0    0  0.30371943343E+02  0.17095453748E+02 -0.28537759165E+02  0.45045678810E+02  0.00000000000E+00 0. -1.
         11    1    3    3    0    0 -0.99175401090E+01 -0.20966783697E+01  0.11505366397E+02  0.15333855294E+02  0.51100000000E-03 0. -1.
        -11    1    3    3    0    0 -0.10957347817E+02 -0.66127835595E+01  0.10498464284E+02  0.16553251347E+02  0.51100000000E-03 0.  1.
        -12    1    3    3    0    0 -0.94970554169E+01 -0.83859918188E+01  0.65339284841E+01  0.14255214548E+02  0.00000000000E+00 0.  1.
</event>
<event>
 7    1  0.2353206E-008  0.4614232E+02  0.7816164E-02  0.1320468E+00
        -11   -1    0    0    0    0  0.00000000000E+00  0.00000000000E+00  0.45593999997E+02  0.45594000000E+02  0.51100000000E-03 0.  1.
         11   -1    0    0    0    0 -0.00000000000E+00 -0.00000000000E+00 -0.45593999997E+02  0.45594000000E+02  0.51100000000E-03 0. -1.
    9900012    2    1    2    0    0 -0.13901845222E+02 -0.39378169096E+02  0.16888222139E+02  0.46142317089E+02  0.99999938708E+01 0.  0.
         12    1    1    2    0    0  0.13901845222E+02  0.39378169096E+02 -0.16888222139E+02  0.45045682911E+02  0.00000000000E+00 0. -1.
         11    1    3    3    0    0 -0.41963435420E+00 -0.41665724734E+01  0.10689814802E+01  0.43219371622E+01  0.51100000000E-03 0. -1.
        -11    1    3    3    0    0 -0.48005499409E+01 -0.53173979710E+01  0.65417464157E+00  0.71936044956E+01  0.51100000000E-03 0.  1.
        -12    1    3    3    0    0 -0.86816609266E+01 -0.29894198651E+02  0.15165066017E+02  0.34626775431E+02  0.00000000000E+00 0.  1.
</event>
<event>
 7    1  0.2353206E-008  0.4614232E+02  0.7816164E-02  0.1320468E+00
        -11   -1    0    0    0    0  0.00000000000E+00  0.00000000000E+00  0.45593999997E+02  0.45594000000E+02  0.51100000000E-03 0.  1.
         11   -1    0    0    0    0 -0.00000000000E+00 -0.00000000000E+00 -0.45593999997E+02  0.45594000000E+02  0.51100000000E-03 0. -1.
    9900012    2    1    2    0    0 -0.42283571078E+02  0.53646903444E+00  0.15521767991E+02  0.46142318035E+02  0.10000002494E+02 0.  0.
         12    1    1    2    0    0  0.42283571078E+02 -0.53646903444E+00 -0.15521767991E+02  0.45045681965E+02  0.00000000000E+00 0. -1.
         11    1    3    3    0    0 -0.20005359420E+01  0.40731239882E+00  0.31679873373E+01  0.37688448464E+01  0.51100000000E-03 0. -1.
        -11    1    3    3    0    0 -0.54112152969E+01  0.60198895438E+00  0.22387139485E+00  0.54491981386E+01  0.51100000000E-03 0.  1.
        -12    1    3    3    0    0 -0.34871819840E+02 -0.47283231877E+00  0.12129909259E+02  0.36924275050E+02  0.00000000000E+00 0.  1.
</event>
<event>
 7    1  0.2353206E-008  0.4614232E+02  0.7816164E-02  0.1320468E+00
        -11   -1    0    0    0    0  0.00000000000E+00  0.00000000000E+00  0.45593999997E+02  0.45594000000E+02  0.51100000000E-03 0. -1.
         11   -1    0    0    0    0 -0.00000000000E+00 -0.00000000000E+00 -0.45593999997E+02  0.45594000000E+02  0.51100000000E-03 0.  1.
    9900012    2    1    2    0    0  0.15349650151E+02  0.33986573648E+02 -0.25266868006E+02  0.46142316889E+02  0.99999920488E+01 0.  0.
         12    1    1    2    0    0 -0.15349650151E+02 -0.33986573648E+02  0.25266868006E+02  0.45045683111E+02  0.00000000000E+00 0. -1.
         11    1    3    3    0    0  0.48942333330E+01  0.77156707435E+01 -0.23863371888E+01  0.94435004304E+01  0.51100000000E-03 0. -1.
        -11    1    3    3    0    0  0.10626270446E+02  0.22502648340E+02 -0.20464535319E+02  0.32219311166E+02  0.51100000000E-03 0.  1.
         12    1    3    3    0    0 -0.17085362759E+00  0.37682545641E+01 -0.24159954986E+01  0.44795052931E+01  0.00000000000E+00 0. -1.
</event>
<event>
 7    1  0.2353206E-008  0.4614232E+02  0.7816164E-02  0.1320468E+00
        -11   -1    0    0    0    0  0.00000000000E+00  0.00000000000E+00  0.45593999997E+02  0.45594000000E+02  0.51100000000E-03 0.  1.
         11   -1    0    0    0    0 -0.00000000000E+00 -0.00000000000E+00 -0.45593999997E+02  0.45594000000E+02  0.51100000000E-03 0. -1.
    9900012    2    1    2    0    0  0.45479121441E+01  0.41948516908E+02  0.15771869111E+02  0.46142318399E+02  0.10000005819E+02 0.  0.
         12    1    1    2    0    0 -0.45479121441E+01 -0.41948516908E+02 -0.15771869111E+02  0.45045681601E+02  0.00000000000E+00 0. -1.
         11    1    3    3    0    0 -0.96734398185E+00  0.22519880639E+02  0.10953383741E+02  0.25061073281E+02  0.51100000000E-03 0. -1.
        -11    1    3    3    0    0  0.33005435467E+01  0.12971989915E+02  0.49023850768E+01  0.14254805848E+02  0.51100000000E-03 0.  1.
        -12    1    3    3    0    0  0.22147125792E+01  0.64566463536E+01 -0.83899706977E-01  0.68264392698E+01  0.00000000000E+00 0.  1.
</event>
<event>
 7    1  0.2353206E-008  0.4614232E+02  0.7816164E-02  0.1320468E+00
        -11   -1    0    0    0    0  0.00000000000E+00  0.00000000000E+00  0.45593999997E+02  0.45594000000E+02  0.51100000000E-03 0. -1.
         11   -1    0    0    0    0 -0.00000000000E+00 -0.00000000000E+00 -0.45593999997E+02  0.45594000000E+02  0.51100000000E-03 0.  1.
    9900012    2    1    2    0    0 -0.24360357586E+01 -0.18443542335E+02 -0.41024565973E+02  0.46142317218E+02  0.99999950456E+01 0.  0.
         12    1    1    2    0    0  0.24360357586E+01  0.18443542335E+02  0.41024565973E+02  0.45045682782E+02  0.00000000000E+00 0. -1.
         11    1    3    3    0    0  0.73779603575E+00  0.37497972016E+00 -0.15166782785E+01  0.17277922452E+01  0.51100000000E-03 0. -1.
        -11    1    3    3    0    0  0.37433684405E+00 -0.73661276092E+01 -0.21930063295E+02  0.23137148494E+02  0.51100000000E-03 0.  1.
        -12    1    3    3    0    0 -0.35481686384E+01 -0.11452394445E+02 -0.17577824399E+02  0.21277376479E+02  0.00000000000E+00 0.  1.
</event>
<event>
 7    1  0.2353206E-008  0.4614232E+02  0.7816164E-02  0.1320468E+00
        -11   -1    0    0    0    0  0.00000000000E+00  0.00000000000E+00  0.45593999997E+02  0.45594000000E+02  0.51100000000E-03 0. -1.
         11   -1    0    0    0    0 -0.00000000000E+00 -0.00000000000E+00 -0.45593999997E+02  0.45594000000E+02  0.51100000000E-03 0.  1.
    9900012    2    1    2    0    0  0.44669683147E+02  0.13120021761E+01 -0.56578783277E+01  0.46142317306E+02  0.99999958507E+01 0.  0.
         12    1    1    2    0    0 -0.44669683147E+02 -0.13120021761E+01  0.56578783277E+01  0.45045682694E+02  0.00000000000E+00 0. -1.
         11    1    3    3    0    0  0.22609394825E+02 -0.29687204078E+01 -0.18454831856E+01  0.22878020973E+02  0.51100000000E-03 0.  1.
        -11    1    3    3    0    0  0.14443457772E+02  0.19771189462E+01 -0.33999223002E+00  0.14582114618E+02  0.51100000000E-03 0. -1.
        -12    1    3    3    0    0  0.76168305504E+01  0.23036036377E+01 -0.34724029120E+01  0.86821817152E+01  0.00000000000E+00 0.  1.
</event>
<event>
 7    1  0.2353206E-008  0.4614232E+02  0.7816164E-02  0.1320468E+00
        -11   -1    0    0    0    0  0.00000000000E+00  0.00000000000E+00  0.45593999997E+02  0.45594000000E+02  0.51100000000E-03 0. -1.
         11   -1    0    0    0    0 -0.00000000000E+00 -0.00000000000E+00 -0.45593999997E+02  0.45594000000E+02  0.51100000000E-03 0.  1.
    9900012    2    1    2    0    0  0.36480528143E+02 -0.49994811417E+01  0.25947828196E+02  0.46142317261E+02  0.99999954416E+01 0.  0.
         12    1    1    2    0    0 -0.36480528143E+02  0.49994811417E+01 -0.25947828196E+02  0.45045682739E+02  0.00000000000E+00 0. -1.
         11    1    3    3    0    0  0.38746137218E+01 -0.30006896759E+00  0.30870923406E+00  0.38984579683E+01  0.51100000000E-03 0. -1.
        -11    1    3    3    0    0  0.18615160218E+02 -0.57190049478E+00  0.11270739040E+02  0.21768803800E+02  0.51100000000E-03 0.  1.
         12    1    3    3    0    0  0.13990754203E+02 -0.41275116794E+01  0.14368379922E+02  0.20475055493E+02  0.00000000000E+00 0. -1.
</event>
<event>
 7    1  0.2353206E-008  0.4614232E+02  0.7816164E-02  0.1320468E+00
        -11   -1    0    0    0    0  0.00000000000E+00  0.00000000000E+00  0.45593999997E+02  0.45594000000E+02  0.51100000000E-03 0. -1.
         11   -1    0    0    0    0 -0.00000000000E+00 -0.00000000000E+00 -0.45593999997E+02  0.45594000000E+02  0.51100000000E-03 0.  1.
    9900012    2    1    2    0    0 -0.35662590506E+02  0.20649792531E+02 -0.18190082283E+02  0.46142318891E+02  0.10000010299E+02 0.  0.
         12    1    1    2    0    0  0.35662590506E+02 -0.20649792531E+02  0.18190082283E+02  0.45045681109E+02  0.00000000000E+00 0. -1.
         11    1    3    3    0    0 -0.80124396870E+01  0.71370272335E+01 -0.49979190459E+01  0.11837041122E+02  0.51100000000E-03 0. -1.
        -11    1    3    3    0    0 -0.20643785365E+02  0.11604777503E+02 -0.13056011465E+02  0.27042488249E+02  0.51100000000E-03 0.  1.
         12    1    3    3    0    0 -0.70063654538E+01  0.19079877946E+01 -0.13615177207E+00  0.72627895193E+01  0.00000000000E+00 0. -1.
</event>
<event>
 7    1  0.2353206E-008  0.4614232E+02  0.7816164E-02  0.1320468E+00
        -11   -1    0    0    0    0  0.00000000000E+00  0.00000000000E+00  0.45593999997E+02  0.45594000000E+02  0.51100000000E-03 0.  1.
         11   -1    0    0    0    0 -0.00000000000E+00 -0.00000000000E+00 -0.45593999997E+02  0.45594000000E+02  0.51100000000E-03 0. -1.
    9900012    2    1    2    0    0  0.21469305223E+02  0.27340267161E+02  0.28647725717E+02  0.46142318032E+02  0.10000002472E+02 0.  0.
         12    1    1    2    0    0 -0.21469305223E+02 -0.27340267161E+02 -0.28647725717E+02  0.45045681968E+02  0.00000000000E+00 0. -1.
         11    1    3    3    0    0  0.22393751901E+01  0.49297140616E+01  0.15712107586E+01  0.56378706512E+01  0.51100000000E-03 0. -1.
        -11    1    3    3    0    0  0.19374686557E+02  0.20524158628E+02  0.25594531502E+02  0.38101175961E+02  0.51100000000E-03 0.  1.
        -12    1    3    3    0    0 -0.14475652354E+00  0.18863944710E+01  0.14819834562E+01  0.24032714195E+01  0.00000000000E+00 0.  1.
</event>
<event>
 7    1  0.2353206E-008  0.4614232E+02  0.7816164E-02  0.1320468E+00
        -11   -1    0    0    0    0  0.00000000000E+00  0.00000000000E+00  0.45593999997E+02  0.45594000000E+02  0.51100000000E-03 0. -1.
         11   -1    0    0    0    0 -0.00000000000E+00 -0.00000000000E+00 -0.45593999997E+02  0.45594000000E+02  0.51100000000E-03 0.  1.
    9900012    2    1    2    0    0  0.27243326083E+02 -0.23570323661E+02 -0.27043566502E+02  0.46142318046E+02  0.10000002597E+02 0.  0.
         12    1    1    2    0    0 -0.27243326083E+02  0.23570323661E+02  0.27043566502E+02  0.45045681954E+02  0.00000000000E+00 0. -1.
         11    1    3    3    0    0  0.14271401921E+02 -0.15857776756E+02 -0.19832703309E+02  0.29128647707E+02  0.51100000000E-03 0. -1.
        -11    1    3    3    0    0  0.28577573577E+01 -0.32362942829E+01 -0.15374217540E+01  0.45830168789E+01  0.51100000000E-03 0.  1.
         12    1    3    3    0    0  0.10114166804E+02 -0.44762526221E+01 -0.56734414394E+01  0.12430653460E+02  0.00000000000E+00 0. -1.
</event>
<event>
 7    1  0.2353206E-008  0.4614232E+02  0.7816164E-02  0.1320468E+00
        -11   -1    0    0    0    0  0.00000000000E+00  0.00000000000E+00  0.45593999997E+02  0.45594000000E+02  0.51100000000E-03 0. -1.
         11   -1    0    0    0    0 -0.00000000000E+00 -0.00000000000E+00 -0.45593999997E+02  0.45594000000E+02  0.51100000000E-03 0.  1.
    9900012    2    1    2    0    0  0.33687250809E+01  0.27723162753E+02 -0.35343901777E+02  0.46142318136E+02  0.10000003421E+02 0.  0.
         12    1    1    2    0    0 -0.33687250809E+01 -0.27723162753E+02  0.35343901777E+02  0.45045681864E+02  0.00000000000E+00 0. -1.
         11    1    3    3    0    0  0.16908593648E+00  0.81761854917E+00 -0.29170919377E-01  0.83542884168E+00  0.51100000000E-03 0.  1.
        -11    1    3    3    0    0  0.63296016709E-01  0.90900558887E+00 -0.57153291880E+01  0.57875111692E+01  0.51100000000E-03 0. -1.
        -12    1    3    3    0    0  0.31363431277E+01  0.25996538615E+02 -0.29599401670E+02  0.39519378125E+02  0.00000000000E+00 0.  1.
</event>
<event>
 7    1  0.2353206E-008  0.4614231E+02  0.7816164E-02  0.1320468E+00
        -11   -1    0    0    0    0  0.00000000000E+00  0.00000000000E+00  0.45593999997E+02  0.45594000000E+02  0.51100000000E-03 0. -1.
         11   -1    0    0    0    0 -0.00000000000E+00 -0.00000000000E+00 -0.45593999997E+02  0.45594000000E+02  0.51100000000E-03 0.  1.
    9900012    2    1    2    0    0  0.44502555576E+01  0.77555883550E+01 -0.44149290069E+02  0.46142314981E+02  0.99999746481E+01 0.  0.
         12    1    1    2    0    0 -0.44502555576E+01 -0.77555883550E+01  0.44149290069E+02  0.45045685019E+02  0.00000000000E+00 0. -1.
         11    1    3    3    0    0  0.38424289593E+01  0.37633017415E+01 -0.13586106890E+02  0.14611947201E+02  0.51100000000E-03 0. -1.
        -11    1    3    3    0    0 -0.30157538398E+01  0.18098540777E+01 -0.14264703144E+02  0.14691905902E+02  0.51100000000E-03 0.  1.
        -12    1    3    3    0    0  0.36235804380E+01  0.21824325358E+01 -0.16298480035E+02  0.16838461878E+02  0.00000000000E+00 0.  1.
</event>
<event>
 7    1  0.2353206E-008  0.4614232E+02  0.7816164E-02  0.1320468E+00
        -11   -1    0    0    0    0  0.00000000000E+00  0.00000000000E+00  0.45593999997E+02  0.45594000000E+02  0.51100000000E-03 0.  1.
         11   -1    0    0    0    0 -0.00000000000E+00 -0.00000000000E+00 -0.45593999997E+02  0.45594000000E+02  0.51100000000E-03 0. -1.
    9900012    2    1    2    0    0  0.27445074952E+02 -0.14265861221E+02  0.32747009638E+02  0.46142316791E+02  0.99999911541E+01 0.  0.
         12    1    1    2    0    0 -0.27445074952E+02  0.14265861221E+02 -0.32747009638E+02  0.45045683209E+02  0.00000000000E+00 0. -1.
         11    1    3    3    0    0  0.19442968588E+02 -0.72918339224E+01  0.18771623860E+02  0.27992387038E+02  0.51100000000E-03 0. -1.
        -11    1    3    3    0    0  0.35961947060E+01 -0.24641181865E+01  0.24191366493E+01  0.49856511300E+01  0.51100000000E-03 0.  1.
         12    1    3    3    0    0  0.44059116578E+01 -0.45099091119E+01  0.11556249129E+02  0.13164278623E+02  0.00000000000E+00 0. -1.
</event>
<event>
 7    1  0.2353206E-008  0.4614232E+02  0.7816164E-02  0.1320468E+00
        -11   -1    0    0    0    0  0.00000000000E+00  0.00000000000E+00  0.45593999997E+02  0.45594000000E+02  0.51100000000E-03 0.  1.
         11   -1    0    0    0    0 -0.00000000000E+00 -0.00000000000E+00 -0.45593999997E+02  0.45594000000E+02  0.51100000000E-03 0. -1.
    9900012    2    1    2    0    0  0.75834819531E+00 -0.15878547854E+02  0.42147479895E+02  0.46142318348E+02  0.10000005353E+02 0.  0.
         12    1    1    2    0    0 -0.75834819531E+00  0.15878547854E+02 -0.42147479895E+02  0.45045681652E+02  0.00000000000E+00 0. -1.
         11    1    3    3    0    0  0.22038201077E+01 -0.26486835293E+01  0.71507578668E+01  0.79376120991E+01  0.51100000000E-03 0. -1.
        -11    1    3    3    0    0  0.15572107470E+01 -0.90565656219E+01  0.15295770031E+02  0.17843958845E+02  0.51100000000E-03 0.  1.
        -12    1    3    3    0    0 -0.30026826593E+01 -0.41732987031E+01  0.19700951998E+02  0.20360747404E+02  0.00000000000E+00 0.  1.
</event>
<event>
 7    1  0.2353206E-008  0.4614232E+02  0.7816164E-02  0.1320468E+00
        -11   -1    0    0    0    0  0.00000000000E+00  0.00000000000E+00  0.45593999997E+02  0.45594000000E+02  0.51100000000E-03 0. -1.
         11   -1    0    0    0    0 -0.00000000000E+00 -0.00000000000E+00 -0.45593999997E+02  0.45594000000E+02  0.51100000000E-03 0.  1.
    9900012    2    1    2    0    0 -0.40724664215E+02  0.10388845086E+02  0.16207620143E+02  0.46142319537E+02  0.10000016195E+02 0.  0.
         12    1    1    2    0    0  0.40724664215E+02 -0.10388845086E+02 -0.16207620143E+02  0.45045680463E+02  0.00000000000E+00 0. -1.
         11    1    3    3    0    0 -0.15589771930E+02  0.17090661147E+01  0.56812930514E+01  0.16680497199E+02  0.51100000000E-03 0. -1.
        -11    1    3    3    0    0 -0.14281959826E+02  0.66084569239E+01  0.28111213358E+01  0.15985883860E+02  0.51100000000E-03 0.  1.
         12    1    3    3    0    0 -0.10852932460E+02  0.20713220470E+01  0.77152057557E+01  0.13475938478E+02  0.00000000000E+00 0. -1.
</event>
<event>
 7    1  0.2353206E-008  0.4614232E+02  0.7816164E-02  0.1320468E+00
        -11   -1    0    0    0    0  0.00000000000E+00  0.00000000000E+00  0.45593999997E+02  0.45594000000E+02  0.51100000000E-03 0.  1.
         11   -1    0    0    0    0 -0.00000000000E+00 -0.00000000000E+00 -0.45593999997E+02  0.45594000000E+02  0.51100000000E-03 0. -1.
    9900012    2    1    2    0    0 -0.10672950177E+02  0.28008776799E+02  0.33626031107E+02  0.46142318618E+02  0.10000007809E+02 0.  0.
         12    1    1    2    0    0  0.10672950177E+02 -0.28008776799E+02 -0.33626031107E+02  0.45045681382E+02  0.00000000000E+00 0. -1.
         11    1    3    3    0    0 -0.81571860465E+00  0.63454267445E+00  0.75669554433E+00  0.12808706631E+01  0.51100000000E-03 0. -1.
        -11    1    3    3    0    0 -0.77328887486E+01  0.21122192415E+02  0.30388980799E+02  0.37807866048E+02  0.51100000000E-03 0.  1.
         12    1    3    3    0    0 -0.21243428236E+01  0.62520417091E+01  0.24803547634E+01  0.70535819069E+01  0.00000000000E+00 0. -1.
</event>
<event>
 7    1  0.2353206E-008  0.4614232E+02  0.7816164E-02  0.1320468E+00
        -11   -1    0    0    0    0  0.00000000000E+00  0.00000000000E+00  0.45593999997E+02  0.45594000000E+02  0.51100000000E-03 0. -1.
         11   -1    0    0    0    0 -0.00000000000E+00 -0.00000000000E+00 -0.45593999997E+02  0.45594000000E+02  0.51100000000E-03 0.  1.
    9900012    2    1    2    0    0  0.12526152176E+02  0.25211577856E+02 -0.35165115694E+02  0.46142317542E+02  0.99999980014E+01 0.  0.
         12    1    1    2    0    0 -0.12526152176E+02 -0.25211577856E+02  0.35165115694E+02  0.45045682458E+02  0.00000000000E+00 0. -1.
         11    1    3    3    0    0  0.24842982450E+00 -0.56593859639E+00 -0.15741104634E+00  0.63779492881E+00  0.51100000000E-03 0. -1.
        -11    1    3    3    0    0  0.13651180192E+01  0.77902864027E+01 -0.77640379543E+01  0.11082977716E+02  0.51100000000E-03 0.  1.
        -12    1    3    3    0    0  0.10912604333E+02  0.17987230050E+02 -0.27243666694E+02  0.34421544897E+02  0.00000000000E+00 0.  1.
</event>
<event>
 7    1  0.2353206E-008  0.4614232E+02  0.7816164E-02  0.1320468E+00
        -11   -1    0    0    0    0  0.00000000000E+00  0.00000000000E+00  0.45593999997E+02  0.45594000000E+02  0.51100000000E-03 0.  1.
         11   -1    0    0    0    0 -0.00000000000E+00 -0.00000000000E+00 -0.45593999997E+02  0.45594000000E+02  0.51100000000E-03 0. -1.
    9900012    2    1    2    0    0 -0.14854405310E+02 -0.29993710149E+02  0.30146934355E+02  0.46142315893E+02  0.99999829685E+01 0.  0.
         12    1    1    2    0    0  0.14854405310E+02  0.29993710149E+02 -0.30146934355E+02  0.45045684107E+02  0.00000000000E+00 0. -1.
         11    1    3    3    0    0 -0.71625450004E+01 -0.19954844965E+02  0.16864890791E+02  0.27091002752E+02  0.51100000000E-03 0. -1.
        -11    1    3    3    0    0 -0.73401815584E+01 -0.10515614682E+02  0.11689915047E+02  0.17352536745E+02  0.51100000000E-03 0.  1.
         12    1    3    3    0    0 -0.35167875104E+00  0.47674949733E+00  0.15921285176E+01  0.16987763960E+01  0.00000000000E+00 0. -1.
</event>
<event>
 7    1  0.2353206E-008  0.4614232E+02  0.7816164E-02  0.1320468E+00
        -11   -1    0    0    0    0  0.00000000000E+00  0.00000000000E+00  0.45593999997E+02  0.45594000000E+02  0.51100000000E-03 0. -1.
         11   -1    0    0    0    0 -0.00000000000E+00 -0.00000000000E+00 -0.45593999997E+02  0.45594000000E+02  0.51100000000E-03 0.  1.
    9900012    2    1    2    0    0  0.19274939300E+01 -0.29073901044E+02 -0.34352678285E+02  0.46142318075E+02  0.10000002860E+02 0.  0.
         12    1    1    2    0    0 -0.19274939300E+01  0.29073901044E+02  0.34352678285E+02  0.45045681925E+02  0.00000000000E+00 0. -1.
         11    1    3    3    0    0 -0.12481058375E+01 -0.23558346545E+00 -0.44231122353E+00  0.13449562188E+01  0.51100000000E-03 0. -1.
        -11    1    3    3    0    0  0.11432799359E+01 -0.23482203251E+02 -0.26385723518E+02  0.35340166445E+02  0.51100000000E-03 0.  1.
        -12    1    3    3    0    0  0.20323198317E+01 -0.53561143276E+01 -0.75246435433E+01  0.94571954110E+01  0.00000000000E+00 0.  1.
</event>
<event>
 7    1  0.2353206E-008  0.4614232E+02  0.7816164E-02  0.1320468E+00
        -11   -1    0    0    0    0  0.00000000000E+00  0.00000000000E+00  0.45593999997E+02  0.45594000000E+02  0.51100000000E-03 0. -1.
         11   -1    0    0    0    0 -0.00000000000E+00 -0.00000000000E+00 -0.45593999997E+02  0.45594000000E+02  0.51100000000E-03 0.  1.
    9900012    2    1    2    0    0 -0.43506398800E+02  0.89092695749E+01  0.75452964209E+01  0.46142319641E+02  0.10000017146E+02 0.  0.
         12    1    1    2    0    0  0.43506398800E+02 -0.89092695749E+01 -0.75452964209E+01  0.45045680359E+02  0.00000000000E+00 0. -1.
         11    1    3    3    0    0 -0.86853151675E+00 -0.57995451027E+00  0.15882297332E+01  0.19008335477E+01  0.51100000000E-03 0. -1.
        -11    1    3    3    0    0 -0.11263623512E+02  0.33584232371E+01  0.30438235935E+01  0.12141378982E+02  0.51100000000E-03 0.  1.
        -12    1    3    3    0    0 -0.31374243771E+02  0.61308008480E+01  0.29132430942E+01  0.32100107111E+02  0.00000000000E+00 0.  1.
</event>
<event>
 7    1  0.2353206E-008  0.4614232E+02  0.7816164E-02  0.1320468E+00
        -11   -1    0    0    0    0  0.00000000000E+00  0.00000000000E+00  0.45593999997E+02  0.45594000000E+02  0.51100000000E-03 0. -1.
         11   -1    0    0    0    0 -0.00000000000E+00 -0.00000000000E+00 -0.45593999997E+02  0.45594000000E+02  0.51100000000E-03 0.  1.
    9900012    2    1    2    0    0  0.75426192826E+01 -0.25689151112E+02 -0.36225541932E+02  0.46142317868E+02  0.10000000972E+02 0.  0.
         12    1    1    2    0    0 -0.75426192826E+01  0.25689151112E+02  0.36225541932E+02  0.45045682132E+02  0.00000000000E+00 0. -1.
         11    1    3    3    0    0 -0.96327349626E+00 -0.15206710033E+01 -0.21519662464E+01  0.28055828477E+01  0.51100000000E-03 0.  1.
        -11    1    3    3    0    0 -0.78308841547E+00 -0.37825250076E+01 -0.85124491271E+01  0.93478614293E+01  0.51100000000E-03 0. -1.
        -12    1    3    3    0    0  0.92889811944E+01 -0.20385955101E+02 -0.25561126559E+02  0.33988873591E+02  0.00000000000E+00 0.  1.
</event>
<event>
 7    1  0.2353206E-008  0.4614232E+02  0.7816164E-02  0.1320468E+00
        -11   -1    0    0    0    0  0.00000000000E+00  0.00000000000E+00  0.45593999997E+02  0.45594000000E+02  0.51100000000E-03 0.  1.
         11   -1    0    0    0    0 -0.00000000000E+00 -0.00000000000E+00 -0.45593999997E+02  0.45594000000E+02  0.51100000000E-03 0. -1.
    9900012    2    1    2    0    0  0.26892505999E+02  0.29436738187E+02  0.20961513794E+02  0.46142317693E+02  0.99999993777E+01 0.  0.
         12    1    1    2    0    0 -0.26892505999E+02 -0.29436738187E+02 -0.20961513794E+02  0.45045682307E+02  0.00000000000E+00 0. -1.
         11    1    3    3    0    0  0.72470727394E+00  0.16507639030E+01  0.29651275595E+01  0.34701878626E+01  0.51100000000E-03 0. -1.
        -11    1    3    3    0    0  0.12752421991E+02  0.14304732500E+02  0.12480900931E+02  0.22869685762E+02  0.51100000000E-03 0.  1.
         12    1    3    3    0    0  0.13415376734E+02  0.13481241784E+02  0.55154853031E+01  0.19802444068E+02  0.00000000000E+00 0. -1.
</event>
<event>
 7    1  0.2353206E-008  0.4614233E+02  0.7816164E-02  0.1320468E+00
        -11   -1    0    0    0    0  0.00000000000E+00  0.00000000000E+00  0.45593999997E+02  0.45594000000E+02  0.51100000000E-03 0.  1.
         11   -1    0    0    0    0 -0.00000000000E+00 -0.00000000000E+00 -0.45593999997E+02  0.45594000000E+02  0.51100000000E-03 0. -1.
    9900012    2    1    2    0    0  0.32955574041E+02 -0.97879877384E+01  0.29107355418E+02  0.46142326470E+02  0.10000079410E+02 0.  0.
         12    1    1    2    0    0 -0.32955574041E+02  0.97879877384E+01 -0.29107355418E+02  0.45045673530E+02  0.00000000000E+00 0. -1.
         11    1    3    3    0    0  0.14246862597E+02 -0.16276242340E+01  0.80694771890E+01  0.16454139810E+02  0.51100000000E-03 0. -1.
        -11    1    3    3    0    0  0.20024586299E+01 -0.17949376358E+01  0.10909305867E+01  0.29020288570E+01  0.51100000000E-03 0.  1.
        -12    1    3    3    0    0  0.16706252814E+02 -0.63654258686E+01  0.19946947643E+02  0.26786157803E+02  0.00000000000E+00 0.  1.
</event>
<event>
 7    1  0.2353206E-008  0.4614232E+02  0.7816164E-02  0.1320468E+00
        -11   -1    0    0    0    0  0.00000000000E+00  0.00000000000E+00  0.45593999997E+02  0.45594000000E+02  0.51100000000E-03 0.  1.
         11   -1    0    0    0    0 -0.00000000000E+00 -0.00000000000E+00 -0.45593999997E+02  0.45594000000E+02  0.51100000000E-03 0. -1.
    9900012    2    1    2    0    0 -0.63166692292E+01  0.23339348114E+02  0.38006419844E+02  0.46142318410E+02  0.10000005914E+02 0.  0.
         12    1    1    2    0    0  0.63166692292E+01 -0.23339348114E+02 -0.38006419844E+02  0.45045681590E+02  0.00000000000E+00 0. -1.
         11    1    3    3    0    0 -0.74883536786E+00  0.26436924115E+01  0.94255980250E+00  0.29048723238E+01  0.51100000000E-03 0. -1.
        -11    1    3    3    0    0 -0.58120934392E+01  0.18020574626E+02  0.35194931439E+02  0.39965043966E+02  0.51100000000E-03 0.  1.
         12    1    3    3    0    0  0.24425957791E+00  0.26750810768E+01  0.18689286033E+01  0.32724021197E+01  0.00000000000E+00 0. -1.
</event>
<event>
 7    1  0.2353206E-008  0.4614232E+02  0.7816164E-02  0.1320468E+00
        -11   -1    0    0    0    0  0.00000000000E+00  0.00000000000E+00  0.45593999997E+02  0.45594000000E+02  0.51100000000E-03 0.  1.
         11   -1    0    0    0    0 -0.00000000000E+00 -0.00000000000E+00 -0.45593999997E+02  0.45594000000E+02  0.51100000000E-03 0. -1.
    9900012    2    1    2    0    0 -0.18981478953E+01  0.26908275080E+02  0.36075686048E+02  0.46142319218E+02  0.10000013289E+02 0.  0.
         12    1    1    2    0    0  0.18981478953E+01 -0.26908275080E+02 -0.36075686048E+02  0.45045680782E+02  0.00000000000E+00 0. -1.
         11    1    3    3    0    0 -0.33495213900E+01  0.42210545800E+01  0.62235514473E+01  0.82322043334E+01  0.51100000000E-03 0. -1.
        -11    1    3    3    0    0  0.12160430059E+01  0.22668347796E+02  0.30007947954E+02  0.37627246685E+02  0.51100000000E-03 0.  1.
         12    1    3    3    0    0  0.23533048870E+00  0.18872704114E-01 -0.15581335287E+00  0.28286820041E+00  0.00000000000E+00 0. -1.
</event>
<event>
 7    1  0.2353206E-008  0.4614232E+02  0.7816164E-02  0.1320468E+00
        -11   -1    0    0    0    0  0.00000000000E+00  0.00000000000E+00  0.45593999997E+02  0.45594000000E+02  0.51100000000E-03 0. -1.
         11   -1    0    0    0    0 -0.00000000000E+00 -0.00000000000E+00 -0.45593999997E+02  0.45594000000E+02  0.51100000000E-03 0.  1.
    9900012    2    1    2    0    0 -0.14068480897E+01 -0.17663365463E+02 -0.41414246591E+02  0.46142317391E+02  0.99999966291E+01 0.  0.
         12    1    1    2    0    0  0.14068480897E+01  0.17663365463E+02  0.41414246591E+02  0.45045682609E+02  0.00000000000E+00 0. -1.
         11    1    3    3    0    0  0.89390889263E+00 -0.21425643187E+01 -0.10621163136E+02  0.10871925386E+02  0.51100000000E-03 0.  1.
        -11    1    3    3    0    0 -0.21357577925E+01 -0.88734138376E+01 -0.10482223251E+02  0.13898774731E+02  0.51100000000E-03 0. -1.
         12    1    3    3    0    0 -0.16499918983E+00 -0.66473873061E+01 -0.20310860203E+02  0.21371617274E+02  0.00000000000E+00 0. -1.
</event>
<event>
 7    1  0.2353206E-008  0.4614232E+02  0.7816164E-02  0.1320468E+00
        -11   -1    0    0    0    0  0.00000000000E+00  0.00000000000E+00  0.45593999997E+02  0.45594000000E+02  0.51100000000E-03 0. -1.
         11   -1    0    0    0    0 -0.00000000000E+00 -0.00000000000E+00 -0.45593999997E+02  0.45594000000E+02  0.51100000000E-03 0.  1.
    9900012    2    1    2    0    0 -0.13646875119E+02 -0.42515032327E+02 -0.59454421239E+01  0.46142318117E+02  0.10000003248E+02 0.  0.
         12    1    1    2    0    0  0.13646875119E+02  0.42515032327E+02  0.59454421239E+01  0.45045681883E+02  0.00000000000E+00 0. -1.
         11    1    3    3    0    0 -0.17149291795E+01 -0.85295098726E+00 -0.63655284170E+00  0.20183427010E+01  0.51100000000E-03 0. -1.
        -11    1    3    3    0    0 -0.46580143402E+01 -0.12704420683E+02 -0.44850342150E+01  0.14255347581E+02  0.51100000000E-03 0.  1.
        -12    1    3    3    0    0 -0.72739315990E+01 -0.28957660657E+02 -0.82385506718E+00  0.29868627836E+02  0.00000000000E+00 0.  1.
</event>
<event>
 7    1  0.2353206E-008  0.4614232E+02  0.7816164E-02  0.1320468E+00
        -11   -1    0    0    0    0  0.00000000000E+00  0.00000000000E+00  0.45593999997E+02  0.45594000000E+02  0.51100000000E-03 0. -1.
         11   -1    0    0    0    0 -0.00000000000E+00 -0.00000000000E+00 -0.45593999997E+02  0.45594000000E+02  0.51100000000E-03 0.  1.
    9900012    2    1    2    0    0  0.29938956161E+02 -0.33087188216E+02  0.61652462605E+01  0.46142318947E+02  0.10000010816E+02 0.  0.
         12    1    1    2    0    0 -0.29938956161E+02  0.33087188216E+02 -0.61652462605E+01  0.45045681053E+02  0.00000000000E+00 0. -1.
         11    1    3    3    0    0  0.50209692995E+01 -0.98990503106E+01  0.91038910660E-01  0.11099982797E+02  0.51100000000E-03 0. -1.
        -11    1    3    3    0    0  0.63335688723E+01 -0.89191842224E+01  0.46080177183E+00  0.10948894026E+02  0.51100000000E-03 0.  1.
         12    1    3    3    0    0  0.18584417989E+02 -0.14268953683E+02  0.56134055780E+01  0.24093442124E+02  0.00000000000E+00 0. -1.
</event>
<event>
 7    1  0.2353206E-008  0.4614232E+02  0.7816164E-02  0.1320468E+00
        -11   -1    0    0    0    0  0.00000000000E+00  0.00000000000E+00  0.45593999997E+02  0.45594000000E+02  0.51100000000E-03 0.  1.
         11   -1    0    0    0    0 -0.00000000000E+00 -0.00000000000E+00 -0.45593999997E+02  0.45594000000E+02  0.51100000000E-03 0. -1.
    9900012    2    1    2    0    0 -0.58190454817E+01  0.41404193936E+02  0.16761407331E+02  0.46142319391E+02  0.10000014863E+02 0.  0.
         12    1    1    2    0    0  0.58190454817E+01 -0.41404193936E+02 -0.16761407331E+02  0.45045680609E+02  0.00000000000E+00 0. -1.
         11    1    3    3    0    0  0.11126304505E+01  0.98393319088E+01  0.60144859846E+01  0.11585527215E+02  0.51100000000E-03 0. -1.
        -11    1    3    3    0    0 -0.74961651975E+00  0.10649105040E+02  0.59633761742E+01  0.12228132267E+02  0.51100000000E-03 0.  1.
         12    1    3    3    0    0 -0.61820594124E+01  0.20915756987E+02  0.47835451722E+01  0.22328659909E+02  0.00000000000E+00 0. -1.
</event>
<event>
 7    1  0.2353206E-008  0.4614232E+02  0.7816164E-02  0.1320468E+00
        -11   -1    0    0    0    0  0.00000000000E+00  0.00000000000E+00  0.45593999997E+02  0.45594000000E+02  0.51100000000E-03 0.  1.
         11   -1    0    0    0    0 -0.00000000000E+00 -0.00000000000E+00 -0.45593999997E+02  0.45594000000E+02  0.51100000000E-03 0. -1.
    9900012    2    1    2    0    0 -0.75831846828E+01  0.43892021512E+02  0.67155989311E+01  0.46142317506E+02  0.99999976725E+01 0.  0.
         12    1    1    2    0    0  0.75831846828E+01 -0.43892021512E+02 -0.67155989311E+01  0.45045682494E+02  0.00000000000E+00 0. -1.
         11    1    3    3    0    0  0.10480780977E+01  0.14187361185E+01  0.96720933638E+00  0.20116595225E+01  0.51100000000E-03 0. -1.
        -11    1    3    3    0    0 -0.35336404869E+01  0.68828352659E+01  0.19357341336E+01  0.79754061517E+01  0.51100000000E-03 0.  1.
         12    1    3    3    0    0 -0.50976222936E+01  0.35590450128E+02  0.38126554611E+01  0.36155251832E+02  0.00000000000E+00 0. -1.
</event>
<event>
 7    1  0.2353206E-008  0.4614232E+02  0.7816164E-02  0.1320468E+00
        -11   -1    0    0    0    0  0.00000000000E+00  0.00000000000E+00  0.45593999997E+02  0.45594000000E+02  0.51100000000E-03 0. -1.
         11   -1    0    0    0    0 -0.00000000000E+00 -0.00000000000E+00 -0.45593999997E+02  0.45594000000E+02  0.51100000000E-03 0.  1.
    9900012    2    1    2    0    0  0.37962680067E+02  0.60182559668E+01  0.23488910817E+02  0.46142318585E+02  0.10000007517E+02 0.  0.
         12    1    1    2    0    0 -0.37962680067E+02 -0.60182559668E+01 -0.23488910817E+02  0.45045681415E+02  0.00000000000E+00 0. -1.
         11    1    3    3    0    0  0.68429589757E+01  0.41621277355E+01  0.53425331443E+01  0.96276713430E+01  0.51100000000E-03 0.  1.
        -11    1    3    3    0    0  0.37416541541E+00 -0.64324435024E-01 -0.40451278478E+00  0.55476864115E+00  0.51100000000E-03 0. -1.
        -12    1    3    3    0    0  0.30745555675E+02  0.19204526663E+01  0.18550890458E+02  0.35959878601E+02  0.00000000000E+00 0.  1.
</event>
<event>
 7    1  0.2353206E-008  0.4614232E+02  0.7816164E-02  0.1320468E+00
        -11   -1    0    0    0    0  0.00000000000E+00  0.00000000000E+00  0.45593999997E+02  0.45594000000E+02  0.51100000000E-03 0.  1.
         11   -1    0    0    0    0 -0.00000000000E+00 -0.00000000000E+00 -0.45593999997E+02  0.45594000000E+02  0.51100000000E-03 0. -1.
    9900012    2    1    2    0    0  0.40543404152E+02  0.10399056215E+02  0.16649489309E+02  0.46142317802E+02  0.10000000377E+02 0.  0.
         12    1    1    2    0    0 -0.40543404152E+02 -0.10399056215E+02 -0.16649489309E+02  0.45045682198E+02  0.00000000000E+00 0. -1.
         11    1    3    3    0    0  0.69612995221E+01  0.10483045262E+01  0.65551255640E+00  0.70702425976E+01  0.51100000000E-03 0. -1.
        -11    1    3    3    0    0  0.20225163508E+02  0.64504824818E+01  0.57579657477E+01  0.21995911734E+02  0.51100000000E-03 0.  1.
        -12    1    3    3    0    0  0.13356941121E+02  0.29002692065E+01  0.10236011005E+02  0.17076163471E+02  0.00000000000E+00 0.  1.
</event>
<event>
 7    1  0.2353206E-008  0.4614232E+02  0.7816164E-02  0.1320468E+00
        -11   -1    0    0    0    0  0.00000000000E+00  0.00000000000E+00  0.45593999997E+02  0.45594000000E+02  0.51100000000E-03 0.  1.
         11   -1    0    0    0    0 -0.00000000000E+00 -0.00000000000E+00 -0.45593999997E+02  0.45594000000E+02  0.51100000000E-03 0. -1.
    9900012    2    1    2    0    0  0.39394379673E+02  0.10016780164E+02 -0.19412896206E+02  0.46142316813E+02  0.99999913588E+01 0.  0.
         12    1    1    2    0    0 -0.39394379673E+02 -0.10016780164E+02  0.19412896206E+02  0.45045683187E+02  0.00000000000E+00 0. -1.
         11    1    3    3    0    0  0.15137112839E+01  0.20282449613E+01 -0.25532857171E+01  0.35950476615E+01  0.51100000000E-03 0. -1.
        -11    1    3    3    0    0  0.26558395753E+02  0.35108946036E+01 -0.10168940519E+02  0.28654530487E+02  0.51100000000E-03 0.  1.
        -12    1    3    3    0    0  0.11322272636E+02  0.44776405986E+01 -0.66906699696E+01  0.13892738665E+02  0.00000000000E+00 0.  1.
</event>
<event>
 7    1  0.2353206E-008  0.4614232E+02  0.7816164E-02  0.1320468E+00
        -11   -1    0    0    0    0  0.00000000000E+00  0.00000000000E+00  0.45593999997E+02  0.45594000000E+02  0.51100000000E-03 0.  1.
         11   -1    0    0    0    0 -0.00000000000E+00 -0.00000000000E+00 -0.45593999997E+02  0.45594000000E+02  0.51100000000E-03 0. -1.
    9900012    2    1    2    0    0  0.12741453278E+01  0.23458060257E+02  0.38434482472E+02  0.46142317852E+02  0.10000000828E+02 0.  0.
         12    1    1    2    0    0 -0.12741453278E+01 -0.23458060257E+02 -0.38434482472E+02  0.45045682148E+02  0.00000000000E+00 0. -1.
         11    1    3    3    0    0 -0.27003225545E+01  0.18374186004E+02  0.28501058632E+02  0.34017830569E+02  0.51100000000E-03 0. -1.
        -11    1    3    3    0    0  0.30569206250E+01  0.46119633360E+01  0.95236507274E+01  0.11014304016E+02  0.51100000000E-03 0.  1.
        -12    1    3    3    0    0  0.91754725733E+00  0.47191091643E+00  0.40977311262E+00  0.11101832670E+01  0.00000000000E+00 0.  1.
</event>
<event>
 7    1  0.2353206E-008  0.4614232E+02  0.7816164E-02  0.1320468E+00
        -11   -1    0    0    0    0  0.00000000000E+00  0.00000000000E+00  0.45593999997E+02  0.45594000000E+02  0.51100000000E-03 0.  1.
         11   -1    0    0    0    0 -0.00000000000E+00 -0.00000000000E+00 -0.45593999997E+02  0.45594000000E+02  0.51100000000E-03 0. -1.
    9900012    2    1    2    0    0  0.40042814378E+01 -0.23460019779E+02  0.38245348650E+02  0.46142317729E+02  0.99999997103E+01 0.  0.
         12    1    1    2    0    0 -0.40042814378E+01  0.23460019779E+02 -0.38245348650E+02  0.45045682271E+02  0.00000000000E+00 0. -1.
         11    1    3    3    0    0 -0.92640318209E+00 -0.10228286253E+02  0.12773637199E+02  0.16390298048E+02  0.51100000000E-03 0.  1.
        -11    1    3    3    0    0 -0.47008211544E+00 -0.21829808879E+01  0.11823315943E+01  0.25267154593E+01  0.51100000000E-03 0. -1.
         12    1    3    3    0    0  0.54007667353E+01 -0.11048752638E+02  0.24289379857E+02  0.27225304222E+02  0.00000000000E+00 0. -1.
</event>
<event>
 7    1  0.2353206E-008  0.4614232E+02  0.7816164E-02  0.1320468E+00
        -11   -1    0    0    0    0  0.00000000000E+00  0.00000000000E+00  0.45593999997E+02  0.45594000000E+02  0.51100000000E-03 0.  1.
         11   -1    0    0    0    0 -0.00000000000E+00 -0.00000000000E+00 -0.45593999997E+02  0.45594000000E+02  0.51100000000E-03 0. -1.
    9900012    2    1    2    0    0 -0.21431156445E+02  0.39243471072E+02  0.54561015782E+01  0.46142317269E+02  0.99999955095E+01 0.  0.
         12    1    1    2    0    0  0.21431156445E+02 -0.39243471072E+02 -0.54561015782E+01  0.45045682731E+02  0.00000000000E+00 0. -1.
         11    1    3    3    0    0 -0.14353729779E+02  0.26044829098E+02 -0.87985294169E-01  0.29738366178E+02  0.51100000000E-03 0. -1.
        -11    1    3    3    0    0 -0.28332195453E+01  0.34365314020E+01  0.11675020070E+00  0.44553913340E+01  0.51100000000E-03 0.  1.
         12    1    3    3    0    0 -0.42442071207E+01  0.97621105720E+01  0.54273366717E+01  0.11948559756E+02  0.00000000000E+00 0. -1.
</event>
<event>
 7    1  0.2353206E-008  0.4614232E+02  0.7816164E-02  0.1320468E+00
        -11   -1    0    0    0    0  0.00000000000E+00  0.00000000000E+00  0.45593999997E+02  0.45594000000E+02  0.51100000000E-03 0. -1.
         11   -1    0    0    0    0 -0.00000000000E+00 -0.00000000000E+00 -0.45593999997E+02  0.45594000000E+02  0.51100000000E-03 0.  1.
    9900012    2    1    2    0    0 -0.25005686610E+02 -0.33392152466E+02 -0.16993917968E+02  0.46142318109E+02  0.10000003170E+02 0.  0.
         12    1    1    2    0    0  0.25005686610E+02  0.33392152466E+02  0.16993917968E+02  0.45045681891E+02  0.00000000000E+00 0. -1.
         11    1    3    3    0    0 -0.74140159946E+01 -0.14042481955E+02 -0.58467189640E+01  0.16921674135E+02  0.51100000000E-03 0. -1.
        -11    1    3    3    0    0 -0.14686849907E+02 -0.19009070670E+02 -0.92874134431E+01  0.25754696206E+02  0.51100000000E-03 0.  1.
         12    1    3    3    0    0 -0.29048207084E+01 -0.34059984116E+00 -0.18597855605E+01  0.34659477680E+01  0.00000000000E+00 0. -1.
</event>
<event>
 7    1  0.2353206E-008  0.4614232E+02  0.7816164E-02  0.1320468E+00
        -11   -1    0    0    0    0  0.00000000000E+00  0.00000000000E+00  0.45593999997E+02  0.45594000000E+02  0.51100000000E-03 0. -1.
         11   -1    0    0    0    0 -0.00000000000E+00 -0.00000000000E+00 -0.45593999997E+02  0.45594000000E+02  0.51100000000E-03 0.  1.
    9900012    2    1    2    0    0  0.12600265196E+02  0.31979083627E+02 -0.29115033793E+02  0.46142315797E+02  0.99999820864E+01 0.  0.
         12    1    1    2    0    0 -0.12600265196E+02 -0.31979083627E+02  0.29115033793E+02  0.45045684203E+02  0.00000000000E+00 0. -1.
         11    1    3    3    0    0  0.28193892971E+01  0.88646395319E+01 -0.13165232213E+02  0.16119991610E+02  0.51100000000E-03 0. -1.
        -11    1    3    3    0    0  0.36060794824E+01  0.42801519973E+01 -0.30542492546E+01  0.63758881047E+01  0.51100000000E-03 0.  1.
        -12    1    3    3    0    0  0.61747964162E+01  0.18834292097E+02 -0.12895552326E+02  0.23646436082E+02  0.00000000000E+00 0.  1.
</event>
<event>
 7    1  0.2353206E-008  0.4614232E+02  0.7816164E-02  0.1320468E+00
        -11   -1    0    0    0    0  0.00000000000E+00  0.00000000000E+00  0.45593999997E+02  0.45594000000E+02  0.51100000000E-03 0.  1.
         11   -1    0    0    0    0 -0.00000000000E+00 -0.00000000000E+00 -0.45593999997E+02  0.45594000000E+02  0.51100000000E-03 0. -1.
    9900012    2    1    2    0    0  0.10284219596E+02 -0.38873435602E+02  0.20302814475E+02  0.46142318255E+02  0.10000004508E+02 0.  0.
         12    1    1    2    0    0 -0.10284219596E+02  0.38873435602E+02 -0.20302814475E+02  0.45045681745E+02  0.00000000000E+00 0. -1.
         11    1    3    3    0    0  0.47566198804E+01 -0.73790743229E+01  0.39389609611E+01  0.96224520921E+01  0.51100000000E-03 0. -1.
        -11    1    3    3    0    0  0.21560269331E+01 -0.23376109888E+01  0.25718265864E+01  0.40898862481E+01  0.51100000000E-03 0.  1.
        -12    1    3    3    0    0  0.33715727829E+01 -0.29156750290E+02  0.13792026928E+02  0.32429979915E+02  0.00000000000E+00 0.  1.
</event>
<event>
 7    1  0.2353206E-008  0.4614232E+02  0.7816164E-02  0.1320468E+00
        -11   -1    0    0    0    0  0.00000000000E+00  0.00000000000E+00  0.45593999997E+02  0.45594000000E+02  0.51100000000E-03 0.  1.
         11   -1    0    0    0    0 -0.00000000000E+00 -0.00000000000E+00 -0.45593999997E+02  0.45594000000E+02  0.51100000000E-03 0. -1.
    9900012    2    1    2    0    0 -0.21891519726E+01  0.27621063314E+02  0.35516165243E+02  0.46142317427E+02  0.99999969521E+01 0.  0.
         12    1    1    2    0    0  0.21891519726E+01 -0.27621063314E+02 -0.35516165243E+02  0.45045682573E+02  0.00000000000E+00 0. -1.
         11    1    3    3    0    0  0.11543866852E+00  0.41245220843E+01  0.18128943192E+01  0.45068386462E+01  0.51100000000E-03 0. -1.
        -11    1    3    3    0    0 -0.88046531004E+00  0.18181568191E+02  0.20996219995E+02  0.27788233038E+02  0.51100000000E-03 0.  1.
         12    1    3    3    0    0 -0.14241253311E+01  0.53149730389E+01  0.12707050928E+02  0.13847245742E+02  0.00000000000E+00 0. -1.
</event>
<event>
 7    1  0.2353206E-008  0.4614232E+02  0.7816164E-02  0.1320468E+00
        -11   -1    0    0    0    0  0.00000000000E+00  0.00000000000E+00  0.45593999997E+02  0.45594000000E+02  0.51100000000E-03 0. -1.
         11   -1    0    0    0    0 -0.00000000000E+00 -0.00000000000E+00 -0.45593999997E+02  0.45594000000E+02  0.51100000000E-03 0.  1.
    9900012    2    1    2    0    0  0.32222179897E+02  0.28999089582E+02 -0.12243258547E+02  0.46142318145E+02  0.10000003501E+02 0.  0.
         12    1    1    2    0    0 -0.32222179897E+02 -0.28999089582E+02  0.12243258547E+02  0.45045681855E+02  0.00000000000E+00 0. -1.
         11    1    3    3    0    0  0.25366134469E+01  0.36381566832E+01 -0.32951217823E+01  0.55252529039E+01  0.51100000000E-03 0. -1.
        -11    1    3    3    0    0  0.23677697146E+02  0.23258401543E+02 -0.83465389461E+01  0.34223548867E+02  0.51100000000E-03 0.  1.
        -12    1    3    3    0    0  0.60078693047E+01  0.21025313564E+01 -0.60159781890E+00  0.63935163738E+01  0.00000000000E+00 0.  1.
</event>
<event>
 7    1  0.2353206E-008  0.4614232E+02  0.7816164E-02  0.1320468E+00
        -11   -1    0    0    0    0  0.00000000000E+00  0.00000000000E+00  0.45593999997E+02  0.45594000000E+02  0.51100000000E-03 0.  1.
         11   -1    0    0    0    0 -0.00000000000E+00 -0.00000000000E+00 -0.45593999997E+02  0.45594000000E+02  0.51100000000E-03 0. -1.
    9900012    2    1    2    0    0 -0.23317562822E+02 -0.38559293386E+00  0.38539018107E+02  0.46142319469E+02  0.10000015570E+02 0.  0.
         12    1    1    2    0    0  0.23317562822E+02  0.38559293386E+00 -0.38539018107E+02  0.45045680531E+02  0.00000000000E+00 0. -1.
         11    1    3    3    0    0 -0.87259681065E+00  0.96857266627E+00  0.97054403329E+00  0.16252735725E+01  0.51100000000E-03 0. -1.
        -11    1    3    3    0    0 -0.11587461266E+02 -0.34707496246E+01  0.14136834948E+02  0.18605522410E+02  0.51100000000E-03 0.  1.
        -12    1    3    3    0    0 -0.10857504745E+02  0.21165840245E+01  0.23431639126E+02  0.25911523486E+02  0.00000000000E+00 0.  1.
</event>
<event>
 7    1  0.2353206E-008  0.4614232E+02  0.7816164E-02  0.1320468E+00
        -11   -1    0    0    0    0  0.00000000000E+00  0.00000000000E+00  0.45593999997E+02  0.45594000000E+02  0.51100000000E-03 0.  1.
         11   -1    0    0    0    0 -0.00000000000E+00 -0.00000000000E+00 -0.45593999997E+02  0.45594000000E+02  0.51100000000E-03 0. -1.
    9900012    2    1    2    0    0  0.19290916818E+02 -0.36978643341E+02  0.17016266078E+02  0.46142324888E+02  0.10000064989E+02 0.  0.
         12    1    1    2    0    0 -0.19290916818E+02  0.36978643341E+02 -0.17016266078E+02  0.45045675112E+02  0.00000000000E+00 0. -1.
         11    1    3    3    0    0  0.10542786110E+01 -0.63337924644E+01  0.29745529681E+01  0.70764677625E+01  0.51100000000E-03 0. -1.
        -11    1    3    3    0    0  0.90339080021E+01 -0.19614971501E+02  0.52506088557E+01  0.22224479620E+02  0.51100000000E-03 0.  1.
        -12    1    3    3    0    0  0.92027302049E+01 -0.11029879376E+02  0.87911042540E+01  0.16841377506E+02  0.00000000000E+00 0.  1.
</event>
<event>
 7    1  0.2353206E-008  0.4614232E+02  0.7816164E-02  0.1320468E+00
        -11   -1    0    0    0    0  0.00000000000E+00  0.00000000000E+00  0.45593999997E+02  0.45594000000E+02  0.51100000000E-03 0.  1.
         11   -1    0    0    0    0 -0.00000000000E+00 -0.00000000000E+00 -0.45593999997E+02  0.45594000000E+02  0.51100000000E-03 0. -1.
    9900012    2    1    2    0    0  0.27589760220E+02 -0.26439964318E+02  0.23850512251E+02  0.46142317446E+02  0.99999971228E+01 0.  0.
         12    1    1    2    0    0 -0.27589760220E+02  0.26439964318E+02 -0.23850512251E+02  0.45045682554E+02  0.00000000000E+00 0. -1.
         11    1    3    3    0    0  0.16291932830E+02 -0.17486858422E+02  0.18636786205E+02  0.30307541852E+02  0.51100000000E-03 0. -1.
        -11    1    3    3    0    0  0.57605724456E+01 -0.67789781975E+01  0.40441999504E+01  0.97721181841E+01  0.51100000000E-03 0.  1.
         12    1    3    3    0    0  0.55372549451E+01 -0.21741276985E+01  0.11695260954E+01  0.60626574094E+01  0.00000000000E+00 0. -1.
</event>
<event>
 7    1  0.2353206E-008  0.4614232E+02  0.7816164E-02  0.1320468E+00
        -11   -1    0    0    0    0  0.00000000000E+00  0.00000000000E+00  0.45593999997E+02  0.45594000000E+02  0.51100000000E-03 0.  1.
         11   -1    0    0    0    0 -0.00000000000E+00 -0.00000000000E+00 -0.45593999997E+02  0.45594000000E+02  0.51100000000E-03 0. -1.
    9900012    2    1    2    0    0  0.31928039499E+02  0.13318178900E+02  0.28850300494E+02  0.46142318364E+02  0.10000005497E+02 0.  0.
         12    1    1    2    0    0 -0.31928039499E+02 -0.13318178900E+02 -0.28850300494E+02  0.45045681636E+02  0.00000000000E+00 0. -1.
         11    1    3    3    0    0  0.10676919251E+02  0.76438461193E+01  0.10194286371E+02  0.16623731923E+02  0.51100000000E-03 0. -1.
        -11    1    3    3    0    0  0.15679116272E+02  0.69623931876E+01  0.14130269855E+02  0.22225528844E+02  0.51100000000E-03 0.  1.
        -12    1    3    3    0    0  0.55720039762E+01 -0.12880604072E+01  0.45257442683E+01  0.72930575965E+01  0.00000000000E+00 0.  1.
</event>
<event>
 7    1  0.2353206E-008  0.4614232E+02  0.7816164E-02  0.1320468E+00
        -11   -1    0    0    0    0  0.00000000000E+00  0.00000000000E+00  0.45593999997E+02  0.45594000000E+02  0.51100000000E-03 0. -1.
         11   -1    0    0    0    0 -0.00000000000E+00 -0.00000000000E+00 -0.45593999997E+02  0.45594000000E+02  0.51100000000E-03 0.  1.
    9900012    2    1    2    0    0  0.35140233328E+02  0.17476455814E+02 -0.22109973808E+02  0.46142318210E+02  0.10000004091E+02 0.  0.
         12    1    1    2    0    0 -0.35140233328E+02 -0.17476455814E+02  0.22109973808E+02  0.45045681790E+02  0.00000000000E+00 0. -1.
         11    1    3    3    0    0  0.46732793954E+01  0.55918848090E+01 -0.54890772596E+01  0.91235237407E+01  0.51100000000E-03 0. -1.
        -11    1    3    3    0    0  0.21989028341E+02  0.10134006730E+02 -0.10360064597E+02  0.26335269099E+02  0.51100000000E-03 0.  1.
         12    1    3    3    0    0  0.84779255916E+01  0.17505642753E+01 -0.62608319515E+01  0.10683525371E+02  0.00000000000E+00 0. -1.
</event>
<event>
 7    1  0.2353206E-008  0.4614232E+02  0.7816164E-02  0.1320468E+00
        -11   -1    0    0    0    0  0.00000000000E+00  0.00000000000E+00  0.45593999997E+02  0.45594000000E+02  0.51100000000E-03 0.  1.
         11   -1    0    0    0    0 -0.00000000000E+00 -0.00000000000E+00 -0.45593999997E+02  0.45594000000E+02  0.51100000000E-03 0. -1.
    9900012    2    1    2    0    0 -0.24019393974E+01  0.26182414676E+02  0.36576294473E+02  0.46142317981E+02  0.10000002009E+02 0.  0.
         12    1    1    2    0    0  0.24019393974E+01 -0.26182414676E+02 -0.36576294473E+02  0.45045682019E+02  0.00000000000E+00 0. -1.
         11    1    3    3    0    0  0.16349017910E+01  0.53609258734E+01  0.77768395824E+01  0.95860139911E+01  0.51100000000E-03 0. -1.
        -11    1    3    3    0    0  0.11959341155E+01  0.72326302401E+01  0.13947987729E+02  0.15757143159E+02  0.51100000000E-03 0.  1.
        -12    1    3    3    0    0 -0.52327753039E+01  0.13588858563E+02  0.14851467162E+02  0.20799160831E+02  0.00000000000E+00 0.  1.
</event>
<event>
 7    1  0.2353206E-008  0.4614232E+02  0.7816164E-02  0.1320468E+00
        -11   -1    0    0    0    0  0.00000000000E+00  0.00000000000E+00  0.45593999997E+02  0.45594000000E+02  0.51100000000E-03 0.  1.
         11   -1    0    0    0    0 -0.00000000000E+00 -0.00000000000E+00 -0.45593999997E+02  0.45594000000E+02  0.51100000000E-03 0. -1.
    9900012    2    1    2    0    0 -0.84632425233E+01 -0.37241874173E+02  0.23885766121E+02  0.46142317753E+02  0.99999999252E+01 0.  0.
         12    1    1    2    0    0  0.84632425233E+01  0.37241874173E+02 -0.23885766121E+02  0.45045682247E+02  0.00000000000E+00 0. -1.
         11    1    3    3    0    0 -0.46147945759E+01 -0.12253385542E+02  0.45102047664E+01  0.13848600417E+02  0.51100000000E-03 0. -1.
        -11    1    3    3    0    0  0.62995999874E+00 -0.70165970753E+01  0.75119222683E+01  0.10298468845E+02  0.51100000000E-03 0.  1.
        -12    1    3    3    0    0 -0.44784079461E+01 -0.17971891556E+02  0.11863639086E+02  0.21995248492E+02  0.00000000000E+00 0.  1.
</event>
<event>
 7    1  0.2353206E-008  0.4614232E+02  0.7816164E-02  0.1320468E+00
        -11   -1    0    0    0    0  0.00000000000E+00  0.00000000000E+00  0.45593999997E+02  0.45594000000E+02  0.51100000000E-03 0. -1.
         11   -1    0    0    0    0 -0.00000000000E+00 -0.00000000000E+00 -0.45593999997E+02  0.45594000000E+02  0.51100000000E-03 0.  1.
    9900012    2    1    2    0    0  0.41452727634E+02 -0.88274569538E+01 -0.15259782716E+02  0.46142316598E+02  0.99999893961E+01 0.  0.
         12    1    1    2    0    0 -0.41452727634E+02  0.88274569538E+01  0.15259782716E+02  0.45045683402E+02  0.00000000000E+00 0. -1.
         11    1    3    3    0    0  0.39089871444E+01 -0.28952091834E+01 -0.19181067615E+01  0.52289148512E+01  0.51100000000E-03 0. -1.
        -11    1    3    3    0    0  0.90874395363E+01 -0.32972347314E+01 -0.78660447535E+00  0.96990752684E+01  0.51100000000E-03 0.  1.
        -12    1    3    3    0    0  0.28456300954E+02 -0.26350130390E+01 -0.12555071479E+02  0.31214326479E+02  0.00000000000E+00 0.  1.
</event>
<event>
 7    1  0.2353206E-008  0.4614231E+02  0.7816164E-02  0.1320468E+00
        -11   -1    0    0    0    0  0.00000000000E+00  0.00000000000E+00  0.45593999997E+02  0.45594000000E+02  0.51100000000E-03 0.  1.
         11   -1    0    0    0    0 -0.00000000000E+00 -0.00000000000E+00 -0.45593999997E+02  0.45594000000E+02  0.51100000000E-03 0. -1.
    9900012    2    1    2    0    0 -0.69939481586E+01  0.11818189058E+02  0.42901388180E+02  0.46142311957E+02  0.99999470748E+01 0.  0.
         12    1    1    2    0    0  0.69939481586E+01 -0.11818189058E+02 -0.42901388180E+02  0.45045688043E+02  0.00000000000E+00 0. -1.
         11    1    3    3    0    0 -0.90822322387E+00  0.18289326701E+01  0.81058012510E+00  0.21970217423E+01  0.51100000000E-03 0. -1.
        -11    1    3    3    0    0  0.50171042274E+00 -0.16771323468E-01  0.74069192567E+00  0.89477338777E+00  0.51100000000E-03 0.  1.
        -12    1    3    3    0    0 -0.65874353575E+01  0.10006027711E+02  0.41350116130E+02  0.43050516827E+02  0.00000000000E+00 0.  1.
</event>
<event>
 7    1  0.2353206E-008  0.4614232E+02  0.7816164E-02  0.1320468E+00
        -11   -1    0    0    0    0  0.00000000000E+00  0.00000000000E+00  0.45593999997E+02  0.45594000000E+02  0.51100000000E-03 0. -1.
         11   -1    0    0    0    0 -0.00000000000E+00 -0.00000000000E+00 -0.45593999997E+02  0.45594000000E+02  0.51100000000E-03 0.  1.
    9900012    2    1    2    0    0 -0.23671053113E+02 -0.31348666128E+02 -0.22046676345E+02  0.46142316951E+02  0.99999926118E+01 0.  0.
         12    1    1    2    0    0  0.23671053113E+02  0.31348666128E+02  0.22046676345E+02  0.45045683049E+02  0.00000000000E+00 0. -1.
         11    1    3    3    0    0 -0.56799256097E+01 -0.64160145144E+01 -0.49600610622E+01  0.99009597102E+01  0.51100000000E-03 0. -1.
        -11    1    3    3    0    0 -0.51552256971E+01 -0.83888200806E+01 -0.10252635583E+02  0.14214963630E+02  0.51100000000E-03 0.  1.
         12    1    3    3    0    0 -0.12835901806E+02 -0.16543831533E+02 -0.68339797002E+01  0.22026393611E+02  0.00000000000E+00 0. -1.
</event>
<event>
 7    1  0.2353206E-008  0.4614232E+02  0.7816164E-02  0.1320468E+00
        -11   -1    0    0    0    0  0.00000000000E+00  0.00000000000E+00  0.45593999997E+02  0.45594000000E+02  0.51100000000E-03 0. -1.
         11   -1    0    0    0    0 -0.00000000000E+00 -0.00000000000E+00 -0.45593999997E+02  0.45594000000E+02  0.51100000000E-03 0.  1.
    9900012    2    1    2    0    0  0.70588912222E+01  0.10153865593E+02 -0.43314946972E+02  0.46142316933E+02  0.99999924453E+01 0.  0.
         12    1    1    2    0    0 -0.70588912222E+01 -0.10153865593E+02  0.43314946972E+02  0.45045683067E+02  0.00000000000E+00 0. -1.
         11    1    3    3    0    0  0.14623129605E+01 -0.11879250482E+01 -0.15304670839E+01  0.24273143328E+01  0.51100000000E-03 0. -1.
        -11    1    3    3    0    0  0.15717018818E+01  0.57076237390E+01 -0.19755704812E+02  0.20623653615E+02  0.51100000000E-03 0.  1.
         12    1    3    3    0    0  0.40248763800E+01  0.56341669026E+01 -0.22028775077E+02  0.23091348985E+02  0.00000000000E+00 0. -1.
</event>
<event>
 7    1  0.2353206E-008  0.4614232E+02  0.7816164E-02  0.1320468E+00
        -11   -1    0    0    0    0  0.00000000000E+00  0.00000000000E+00  0.45593999997E+02  0.45594000000E+02  0.51100000000E-03 0.  1.
         11   -1    0    0    0    0 -0.00000000000E+00 -0.00000000000E+00 -0.45593999997E+02  0.45594000000E+02  0.51100000000E-03 0. -1.
    9900012    2    1    2    0    0 -0.30372723995E+02 -0.39450168491E+01  0.33031018037E+02  0.46142315708E+02  0.99999812744E+01 0.  0.
         12    1    1    2    0    0  0.30372723995E+02  0.39450168491E+01 -0.33031018037E+02  0.45045684292E+02  0.00000000000E+00 0. -1.
         11    1    3    3    0    0 -0.54878588380E+01 -0.31422589792E+01  0.48308691005E+01  0.79578692277E+01  0.51100000000E-03 0. -1.
        -11    1    3    3    0    0 -0.59475380777E+01 -0.20870782589E+01  0.41503904043E+01  0.75468434206E+01  0.51100000000E-03 0.  1.
        -12    1    3    3    0    0 -0.18937327079E+02  0.12843203891E+01  0.24049758532E+02  0.30637603059E+02  0.00000000000E+00 0.  1.
</event>
<event>
 7    1  0.2353206E-008  0.4614232E+02  0.7816164E-02  0.1320468E+00
        -11   -1    0    0    0    0  0.00000000000E+00  0.00000000000E+00  0.45593999997E+02  0.45594000000E+02  0.51100000000E-03 0.  1.
         11   -1    0    0    0    0 -0.00000000000E+00 -0.00000000000E+00 -0.45593999997E+02  0.45594000000E+02  0.51100000000E-03 0. -1.
    9900012    2    1    2    0    0 -0.26541728339E+02 -0.22492088771E+02  0.28613915257E+02  0.46142317112E+02  0.99999940810E+01 0.  0.
         12    1    1    2    0    0  0.26541728339E+02  0.22492088771E+02 -0.28613915257E+02  0.45045682888E+02  0.00000000000E+00 0. -1.
         11    1    3    3    0    0 -0.68299719736E+01 -0.29322110120E+01  0.77910385116E+01  0.10767853079E+02  0.51100000000E-03 0. -1.
        -11    1    3    3    0    0 -0.84490205193E+01 -0.39017865400E+01  0.69793737818E+01  0.11632778885E+02  0.51100000000E-03 0.  1.
         12    1    3    3    0    0 -0.11262735846E+02 -0.15658091219E+02  0.13843502964E+02  0.23741685148E+02  0.00000000000E+00 0. -1.
</event>
<event>
 7    1  0.2353206E-008  0.4614232E+02  0.7816164E-02  0.1320468E+00
        -11   -1    0    0    0    0  0.00000000000E+00  0.00000000000E+00  0.45593999997E+02  0.45594000000E+02  0.51100000000E-03 0.  1.
         11   -1    0    0    0    0 -0.00000000000E+00 -0.00000000000E+00 -0.45593999997E+02  0.45594000000E+02  0.51100000000E-03 0. -1.
    9900012    2    1    2    0    0  0.10329525898E+02 -0.40509001424E+02  0.16776036568E+02  0.46142315361E+02  0.99999781148E+01 0.  0.
         12    1    1    2    0    0 -0.10329525898E+02  0.40509001424E+02 -0.16776036568E+02  0.45045684639E+02  0.00000000000E+00 0. -1.
         11    1    3    3    0    0  0.24088246399E+01 -0.16392685329E+02  0.52276877560E+01  0.17373867963E+02  0.51100000000E-03 0. -1.
        -11    1    3    3    0    0  0.57616618714E+01 -0.22687218300E+02  0.88384945893E+01  0.25020503764E+02  0.51100000000E-03 0.  1.
         12    1    3    3    0    0  0.21590393863E+01 -0.14290977943E+01  0.27098542229E+01  0.37479436344E+01  0.00000000000E+00 0. -1.
</event>
<event>
 7    1  0.2353206E-008  0.4614231E+02  0.7816164E-02  0.1320468E+00
        -11   -1    0    0    0    0  0.00000000000E+00  0.00000000000E+00  0.45593999997E+02  0.45594000000E+02  0.51100000000E-03 0.  1.
         11   -1    0    0    0    0 -0.00000000000E+00 -0.00000000000E+00 -0.45593999997E+02  0.45594000000E+02  0.51100000000E-03 0. -1.
    9900012    2    1    2    0    0 -0.18099835962E+00 -0.35648260030E+02  0.27536931298E+02  0.46142314425E+02  0.99999695806E+01 0.  0.
         12    1    1    2    0    0  0.18099835962E+00  0.35648260030E+02 -0.27536931298E+02  0.45045685575E+02  0.00000000000E+00 0. -1.
         11    1    3    3    0    0 -0.28500348391E+01 -0.21697572916E+02  0.12197094255E+02  0.25053472365E+02  0.51100000000E-03 0. -1.
        -11    1    3    3    0    0  0.26197017456E+01 -0.11570337142E+02  0.11209369757E+02  0.16321320701E+02  0.51100000000E-03 0.  1.
         12    1    3    3    0    0  0.49334733879E-01 -0.23803499719E+01  0.41304672863E+01  0.47675213589E+01  0.00000000000E+00 0. -1.
</event>
<event>
 7    1  0.2353206E-008  0.4614232E+02  0.7816164E-02  0.1320468E+00
        -11   -1    0    0    0    0  0.00000000000E+00  0.00000000000E+00  0.45593999997E+02  0.45594000000E+02  0.51100000000E-03 0.  1.
         11   -1    0    0    0    0 -0.00000000000E+00 -0.00000000000E+00 -0.45593999997E+02  0.45594000000E+02  0.51100000000E-03 0. -1.
    9900012    2    1    2    0    0  0.30455234691E+02 -0.33102715130E+02 -0.24088507355E+01  0.46142316178E+02  0.99999855675E+01 0.  0.
         12    1    1    2    0    0 -0.30455234691E+02  0.33102715130E+02  0.24088507355E+01  0.45045683822E+02  0.00000000000E+00 0. -1.
         11    1    3    3    0    0  0.19248215111E+01 -0.44592351010E+01  0.96072912698E+00  0.49510318371E+01  0.51100000000E-03 0. -1.
        -11    1    3    3    0    0  0.24031838011E+02 -0.27101622502E+02 -0.37774659868E+01  0.36418352927E+02  0.51100000000E-03 0.  1.
        -12    1    3    3    0    0  0.44985751697E+01 -0.15418575273E+01  0.40788612428E+00  0.47729314140E+01  0.00000000000E+00 0.  1.
</event>
<event>
 7    1  0.2353206E-008  0.4614232E+02  0.7816164E-02  0.1320468E+00
        -11   -1    0    0    0    0  0.00000000000E+00  0.00000000000E+00  0.45593999997E+02  0.45594000000E+02  0.51100000000E-03 0. -1.
         11   -1    0    0    0    0 -0.00000000000E+00 -0.00000000000E+00 -0.45593999997E+02  0.45594000000E+02  0.51100000000E-03 0.  1.
    9900012    2    1    2    0    0  0.43812372793E+02 -0.95975497449E+01 -0.41805085615E+01  0.46142316270E+02  0.99999864068E+01 0.  0.
         12    1    1    2    0    0 -0.43812372793E+02  0.95975497449E+01  0.41805085615E+01  0.45045683730E+02  0.00000000000E+00 0. -1.
         11    1    3    3    0    0  0.26160947623E+02 -0.39069742356E+01 -0.60786937623E+01  0.27140562749E+02  0.51100000000E-03 0. -1.
        -11    1    3    3    0    0  0.75055075347E+01 -0.41851004857E+01  0.13644129727E+00  0.85945521069E+01  0.51100000000E-03 0.  1.
         12    1    3    3    0    0  0.10145917635E+02 -0.15054750236E+01  0.17617439036E+01  0.10407201415E+02  0.00000000000E+00 0. -1.
</event>
<event>
 7    1  0.2353206E-008  0.4614232E+02  0.7816164E-02  0.1320468E+00
        -11   -1    0    0    0    0  0.00000000000E+00  0.00000000000E+00  0.45593999997E+02  0.45594000000E+02  0.51100000000E-03 0.  1.
         11   -1    0    0    0    0 -0.00000000000E+00 -0.00000000000E+00 -0.45593999997E+02  0.45594000000E+02  0.51100000000E-03 0. -1.
    9900012    2    1    2    0    0  0.26088656646E+02  0.25631812971E+02  0.26296492392E+02  0.46142319254E+02  0.10000013610E+02 0.  0.
         12    1    1    2    0    0 -0.26088656646E+02 -0.25631812971E+02 -0.26296492392E+02  0.45045680746E+02  0.00000000000E+00 0. -1.
         11    1    3    3    0    0  0.13578858600E+01  0.38184296196E+01  0.56048571750E+01  0.69165513792E+01  0.51100000000E-03 0. -1.
        -11    1    3    3    0    0  0.46682373245E+01  0.65611736880E+01  0.61231404589E+01  0.10116041183E+02  0.51100000000E-03 0.  1.
         12    1    3    3    0    0  0.20062533461E+02  0.15252209663E+02  0.14568494758E+02  0.29109726691E+02  0.00000000000E+00 0. -1.
</event>
<event>
 7    1  0.2353206E-008  0.4614232E+02  0.7816164E-02  0.1320468E+00
        -11   -1    0    0    0    0  0.00000000000E+00  0.00000000000E+00  0.45593999997E+02  0.45594000000E+02  0.51100000000E-03 0.  1.
         11   -1    0    0    0    0 -0.00000000000E+00 -0.00000000000E+00 -0.45593999997E+02  0.45594000000E+02  0.51100000000E-03 0. -1.
    9900012    2    1    2    0    0 -0.28099549475E+02 -0.12184929170E+02  0.33031141447E+02  0.46142317800E+02  0.10000000355E+02 0.  0.
         12    1    1    2    0    0  0.28099549475E+02  0.12184929170E+02 -0.33031141447E+02  0.45045682200E+02  0.00000000000E+00 0. -1.
         11    1    3    3    0    0 -0.46033185896E+01 -0.77919796051E+00  0.35042160282E+01  0.58375698482E+01  0.51100000000E-03 0. -1.
        -11    1    3    3    0    0 -0.22102721551E+02 -0.79513809455E+01  0.23548499469E+02  0.33260886735E+02  0.51100000000E-03 0.  1.
         12    1    3    3    0    0 -0.13935093351E+01 -0.34543502638E+01  0.59784259492E+01  0.70438612169E+01  0.00000000000E+00 0. -1.
</event>
<event>
 7    1  0.2353206E-008  0.4614232E+02  0.7816164E-02  0.1320468E+00
        -11   -1    0    0    0    0  0.00000000000E+00  0.00000000000E+00  0.45593999997E+02  0.45594000000E+02  0.51100000000E-03 0.  1.
         11   -1    0    0    0    0 -0.00000000000E+00 -0.00000000000E+00 -0.45593999997E+02  0.45594000000E+02  0.51100000000E-03 0. -1.
    9900012    2    1    2    0    0 -0.28222298279E+02  0.19722588269E+02  0.29045386749E+02  0.46142322077E+02  0.10000039353E+02 0.  0.
         12    1    1    2    0    0  0.28222298279E+02 -0.19722588269E+02 -0.29045386749E+02  0.45045677923E+02  0.00000000000E+00 0. -1.
         11    1    3    3    0    0 -0.59384853224E+01  0.26409267773E+01  0.64111004595E+01  0.91292010347E+01  0.51100000000E-03 0. -1.
        -11    1    3    3    0    0 -0.14709987884E+02  0.14545438128E+02  0.19512598204E+02  0.28437563236E+02  0.51100000000E-03 0.  1.
         12    1    3    3    0    0 -0.75738250723E+01  0.25362233637E+01  0.31216880852E+01  0.85755578057E+01  0.00000000000E+00 0. -1.
</event>
<event>
 7    1  0.2353206E-008  0.4614232E+02  0.7816164E-02  0.1320468E+00
        -11   -1    0    0    0    0  0.00000000000E+00  0.00000000000E+00  0.45593999997E+02  0.45594000000E+02  0.51100000000E-03 0.  1.
         11   -1    0    0    0    0 -0.00000000000E+00 -0.00000000000E+00 -0.45593999997E+02  0.45594000000E+02  0.51100000000E-03 0. -1.
    9900012    2    1    2    0    0 -0.26297363233E+02 -0.81597728888E+01  0.35650810717E+02  0.46142317506E+02  0.99999976699E+01 0.  0.
         12    1    1    2    0    0  0.26297363233E+02  0.81597728888E+01 -0.35650810717E+02  0.45045682494E+02  0.00000000000E+00 0. -1.
         11    1    3    3    0    0 -0.15115999339E+02 -0.43093949627E+01  0.12760612552E+02  0.20245926848E+02  0.51100000000E-03 0. -1.
        -11    1    3    3    0    0 -0.72917858529E+01 -0.30705876249E+01  0.12719885839E+02  0.14979791231E+02  0.51100000000E-03 0.  1.
         12    1    3    3    0    0 -0.38895780409E+01 -0.77979030115E+00  0.10170312326E+02  0.10916599427E+02  0.00000000000E+00 0. -1.
</event>
<event>
 7    1  0.2353206E-008  0.4614232E+02  0.7816164E-02  0.1320468E+00
        -11   -1    0    0    0    0  0.00000000000E+00  0.00000000000E+00  0.45593999997E+02  0.45594000000E+02  0.51100000000E-03 0.  1.
         11   -1    0    0    0    0 -0.00000000000E+00 -0.00000000000E+00 -0.45593999997E+02  0.45594000000E+02  0.51100000000E-03 0. -1.
    9900012    2    1    2    0    0  0.41811778512E+02 -0.66890690162E+01  0.15367010245E+02  0.46142317959E+02  0.10000001807E+02 0.  0.
         12    1    1    2    0    0 -0.41811778512E+02  0.66890690162E+01 -0.15367010245E+02  0.45045682041E+02  0.00000000000E+00 0. -1.
         11    1    3    3    0    0  0.19549278069E+02 -0.57594974027E+01  0.71471317327E+01  0.21596934403E+02  0.51100000000E-03 0.  1.
        -11    1    3    3    0    0  0.18360754358E+02 -0.20150276684E+01  0.87894459316E+01  0.20455610407E+02  0.51100000000E-03 0. -1.
         12    1    3    3    0    0  0.39017460854E+01  0.10854560549E+01 -0.56956741974E+00  0.40897731487E+01  0.00000000000E+00 0. -1.
</event>
<event>
 7    1  0.2353206E-008  0.4614232E+02  0.7816164E-02  0.1320468E+00
        -11   -1    0    0    0    0  0.00000000000E+00  0.00000000000E+00  0.45593999997E+02  0.45594000000E+02  0.51100000000E-03 0.  1.
         11   -1    0    0    0    0 -0.00000000000E+00 -0.00000000000E+00 -0.45593999997E+02  0.45594000000E+02  0.51100000000E-03 0. -1.
    9900012    2    1    2    0    0 -0.29999304474E+02  0.29379005346E+02  0.16310403996E+02  0.46142317604E+02  0.99999985634E+01 0.  0.
         12    1    1    2    0    0  0.29999304474E+02 -0.29379005346E+02 -0.16310403996E+02  0.45045682396E+02  0.00000000000E+00 0. -1.
         11    1    3    3    0    0 -0.10385413817E+02  0.12244481099E+02  0.21738498864E+01  0.16202152978E+02  0.51100000000E-03 0. -1.
        -11    1    3    3    0    0 -0.76408017598E+01  0.52443310647E+01  0.30773177917E+01  0.97649754173E+01  0.51100000000E-03 0.  1.
         12    1    3    3    0    0 -0.11973088897E+02  0.11890193183E+02  0.11059236318E+02  0.20175189208E+02  0.00000000000E+00 0. -1.
</event>
<event>
 7    1  0.2353206E-008  0.4614232E+02  0.7816164E-02  0.1320468E+00
        -11   -1    0    0    0    0  0.00000000000E+00  0.00000000000E+00  0.45593999997E+02  0.45594000000E+02  0.51100000000E-03 0.  1.
         11   -1    0    0    0    0 -0.00000000000E+00 -0.00000000000E+00 -0.45593999997E+02  0.45594000000E+02  0.51100000000E-03 0. -1.
    9900012    2    1    2    0    0 -0.10318739963E+02 -0.26852586861E+02  0.34663750751E+02  0.46142318390E+02  0.10000005735E+02 0.  0.
         12    1    1    2    0    0  0.10318739963E+02  0.26852586861E+02 -0.34663750751E+02  0.45045681610E+02  0.00000000000E+00 0. -1.
         11    1    3    3    0    0 -0.13014531819E+01 -0.38046796323E+01  0.16822891777E+01  0.43588375317E+01  0.51100000000E-03 0. -1.
        -11    1    3    3    0    0  0.17209106631E+00 -0.44422103114E+01  0.31668837706E+01  0.54582049121E+01  0.51100000000E-03 0.  1.
        -12    1    3    3    0    0 -0.91893778470E+01 -0.18605696918E+02  0.29814577803E+02  0.36325275946E+02  0.00000000000E+00 0.  1.
</event>
<event>
 7    1  0.2353206E-008  0.4614232E+02  0.7816164E-02  0.1320468E+00
        -11   -1    0    0    0    0  0.00000000000E+00  0.00000000000E+00  0.45593999997E+02  0.45594000000E+02  0.51100000000E-03 0.  1.
         11   -1    0    0    0    0 -0.00000000000E+00 -0.00000000000E+00 -0.45593999997E+02  0.45594000000E+02  0.51100000000E-03 0. -1.
    9900012    2    1    2    0    0 -0.32739575792E+02  0.20050896829E+02  0.23562581493E+02  0.46142317263E+02  0.99999954547E+01 0.  0.
         12    1    1    2    0    0  0.32739575792E+02 -0.20050896829E+02 -0.23562581493E+02  0.45045682737E+02  0.00000000000E+00 0. -1.
         11    1    3    3    0    0 -0.72237430736E+01  0.16288510818E+01  0.75057912033E+01  0.10543838091E+02  0.51100000000E-03 0. -1.
        -11    1    3    3    0    0 -0.17420565402E+02  0.10357498997E+02  0.90614987484E+01  0.22200555043E+02  0.51100000000E-03 0.  1.
        -12    1    3    3    0    0 -0.80952673156E+01  0.80645467502E+01  0.69952915414E+01  0.13397924128E+02  0.00000000000E+00 0.  1.
</event>
<event>
 7    1  0.2353206E-008  0.4614232E+02  0.7816164E-02  0.1320468E+00
        -11   -1    0    0    0    0  0.00000000000E+00  0.00000000000E+00  0.45593999997E+02  0.45594000000E+02  0.51100000000E-03 0.  1.
         11   -1    0    0    0    0 -0.00000000000E+00 -0.00000000000E+00 -0.45593999997E+02  0.45594000000E+02  0.51100000000E-03 0. -1.
    9900012    2    1    2    0    0  0.28887580604E+02 -0.98812898446E+01  0.33120707547E+02  0.46142317959E+02  0.10000001802E+02 0.  0.
         12    1    1    2    0    0 -0.28887580604E+02  0.98812898446E+01 -0.33120707547E+02  0.45045682041E+02  0.00000000000E+00 0. -1.
         11    1    3    3    0    0  0.14600693297E+02 -0.15278686107E+01  0.12845535448E+02  0.19506983581E+02  0.51100000000E-03 0. -1.
        -11    1    3    3    0    0  0.12902750722E+02 -0.84267209191E+01  0.16328795095E+02  0.22452620140E+02  0.51100000000E-03 0.  1.
        -12    1    3    3    0    0  0.13841365852E+01  0.73299685148E-01  0.39463770046E+01  0.41827142375E+01  0.00000000000E+00 0.  1.
</event>
<event>
 7    1  0.2353206E-008  0.4614232E+02  0.7816164E-02  0.1320468E+00
        -11   -1    0    0    0    0  0.00000000000E+00  0.00000000000E+00  0.45593999997E+02  0.45594000000E+02  0.51100000000E-03 0. -1.
         11   -1    0    0    0    0 -0.00000000000E+00 -0.00000000000E+00 -0.45593999997E+02  0.45594000000E+02  0.51100000000E-03 0.  1.
    9900012    2    1    2    0    0  0.22353718877E+02 -0.30654862268E+02  0.24283828739E+02  0.46142315783E+02  0.99999819663E+01 0.  0.
         12    1    1    2    0    0 -0.22353718877E+02  0.30654862268E+02 -0.24283828739E+02  0.45045684217E+02  0.00000000000E+00 0. -1.
         11    1    3    3    0    0  0.42927291409E+01 -0.53952895574E+01  0.24862100860E+01  0.73292505577E+01  0.51100000000E-03 0. -1.
        -11    1    3    3    0    0  0.13846994777E+02 -0.17278801527E+02  0.10950523782E+02  0.24702433442E+02  0.51100000000E-03 0.  1.
         12    1    3    3    0    0  0.42139949587E+01 -0.79807711832E+01  0.10847094872E+02  0.14110631784E+02  0.00000000000E+00 0. -1.
</event>
<event>
 7    1  0.2353206E-008  0.4614232E+02  0.7816164E-02  0.1320468E+00
        -11   -1    0    0    0    0  0.00000000000E+00  0.00000000000E+00  0.45593999997E+02  0.45594000000E+02  0.51100000000E-03 0. -1.
         11   -1    0    0    0    0 -0.00000000000E+00 -0.00000000000E+00 -0.45593999997E+02  0.45594000000E+02  0.51100000000E-03 0.  1.
    9900012    2    1    2    0    0  0.25172219097E+02 -0.30440661896E+02  0.21652689814E+02  0.46142317776E+02  0.10000000133E+02 0.  0.
         12    1    1    2    0    0 -0.25172219097E+02  0.30440661896E+02 -0.21652689814E+02  0.45045682224E+02  0.00000000000E+00 0. -1.
         11    1    3    3    0    0  0.10787524962E+02 -0.68323356291E+01  0.49333039309E+01  0.13689009931E+02  0.51100000000E-03 0. -1.
        -11    1    3    3    0    0  0.66971636832E+00 -0.24245350412E+00  0.30118630006E+00  0.77331569499E+00  0.51100000000E-03 0.  1.
         12    1    3    3    0    0  0.13714977767E+02 -0.23365872762E+02  0.16418199583E+02  0.31679992150E+02  0.00000000000E+00 0. -1.
</event>
<event>
 7    1  0.2353206E-008  0.4614232E+02  0.7816164E-02  0.1320468E+00
        -11   -1    0    0    0    0  0.00000000000E+00  0.00000000000E+00  0.45593999997E+02  0.45594000000E+02  0.51100000000E-03 0. -1.
         11   -1    0    0    0    0 -0.00000000000E+00 -0.00000000000E+00 -0.45593999997E+02  0.45594000000E+02  0.51100000000E-03 0.  1.
    9900012    2    1    2    0    0  0.27812519401E+02  0.93902196359E+01 -0.34167251134E+02  0.46142317518E+02  0.99999977802E+01 0.  0.
         12    1    1    2    0    0 -0.27812519401E+02 -0.93902196359E+01  0.34167251134E+02  0.45045682482E+02  0.00000000000E+00 0. -1.
         11    1    3    3    0    0  0.84180645408E+01  0.89518340836E+00 -0.12929899729E+02  0.15454690913E+02  0.51100000000E-03 0. -1.
        -11    1    3    3    0    0  0.95398418499E+01  0.67360447584E+01 -0.14513988302E+02  0.18628975769E+02  0.51100000000E-03 0.  1.
         12    1    3    3    0    0  0.98546130101E+01  0.17589914692E+01 -0.67233631035E+01  0.12058650836E+02  0.00000000000E+00 0. -1.
</event>
<event>
 7    1  0.2353206E-008  0.4614232E+02  0.7816164E-02  0.1320468E+00
        -11   -1    0    0    0    0  0.00000000000E+00  0.00000000000E+00  0.45593999997E+02  0.45594000000E+02  0.51100000000E-03 0.  1.
         11   -1    0    0    0    0 -0.00000000000E+00 -0.00000000000E+00 -0.45593999997E+02  0.45594000000E+02  0.51100000000E-03 0. -1.
    9900012    2    1    2    0    0 -0.33969636468E+02 -0.21854025790E+02 -0.19939375248E+02  0.46142319516E+02  0.10000016003E+02 0.  0.
         12    1    1    2    0    0  0.33969636468E+02  0.21854025790E+02  0.19939375248E+02  0.45045680484E+02  0.00000000000E+00 0. -1.
         11    1    3    3    0    0 -0.19035031524E+02 -0.10175660726E+02 -0.92057697054E+01  0.23465350891E+02  0.51100000000E-03 0.  1.
        -11    1    3    3    0    0 -0.14593395990E+02 -0.91214944853E+01 -0.10313833114E+02  0.20063499743E+02  0.51100000000E-03 0. -1.
        -12    1    3    3    0    0 -0.34120895460E+00 -0.25568705785E+01 -0.41977242834E+00  0.26134688821E+01  0.00000000000E+00 0.  1.
</event>
<event>
 7    1  0.2353206E-008  0.4614232E+02  0.7816164E-02  0.1320468E+00
        -11   -1    0    0    0    0  0.00000000000E+00  0.00000000000E+00  0.45593999997E+02  0.45594000000E+02  0.51100000000E-03 0.  1.
         11   -1    0    0    0    0 -0.00000000000E+00 -0.00000000000E+00 -0.45593999997E+02  0.45594000000E+02  0.51100000000E-03 0. -1.
    9900012    2    1    2    0    0 -0.37180161649E+01 -0.12963347786E+02  0.42979547098E+02  0.46142317646E+02  0.99999989501E+01 0.  0.
         12    1    1    2    0    0  0.37180161649E+01  0.12963347786E+02 -0.42979547098E+02  0.45045682354E+02  0.00000000000E+00 0. -1.
         11    1    3    3    0    0 -0.10382271954E+01 -0.84915190605E+01  0.18699096975E+02  0.20563074663E+02  0.51100000000E-03 0. -1.
        -11    1    3    3    0    0 -0.10285876926E+00  0.44921898353E+00 -0.18090564435E+00  0.49508053371E+00  0.51100000000E-03 0.  1.
        -12    1    3    3    0    0 -0.25769302002E+01 -0.49210477091E+01  0.24461355767E+02  0.25084162449E+02  0.00000000000E+00 0.  1.
</event>
<event>
 7    1  0.2353206E-008  0.4614232E+02  0.7816164E-02  0.1320468E+00
        -11   -1    0    0    0    0  0.00000000000E+00  0.00000000000E+00  0.45593999997E+02  0.45594000000E+02  0.51100000000E-03 0.  1.
         11   -1    0    0    0    0 -0.00000000000E+00 -0.00000000000E+00 -0.45593999997E+02  0.45594000000E+02  0.51100000000E-03 0. -1.
    9900012    2    1    2    0    0  0.71895244770E+01 -0.38874289712E+02  0.21591984068E+02  0.46142318311E+02  0.10000005015E+02 0.  0.
         12    1    1    2    0    0 -0.71895244770E+01  0.38874289712E+02 -0.21591984068E+02  0.45045681689E+02  0.00000000000E+00 0. -1.
         11    1    3    3    0    0  0.10691194554E+01 -0.44538067362E+01  0.27492119819E+01  0.53420574347E+01  0.51100000000E-03 0. -1.
        -11    1    3    3    0    0  0.70955832074E+01 -0.30919481942E+02  0.19306879771E+02  0.37136468213E+02  0.51100000000E-03 0.  1.
         12    1    3    3    0    0 -0.97517818580E+00 -0.35010010344E+01 -0.46410768464E+00  0.36637926633E+01  0.00000000000E+00 0. -1.
</event>
