<event>
 7    1  0.1971192E-015  0.9000781E+02  0.7816164E-02  0.1186339E+00
        -11   -1    0    0    0    0  0.00000000000E+00  0.00000000000E+00  0.45593999997E+02  0.45594000000E+02  0.51100000000E-03 0.  1.
         11   -1    0    0    0    0 -0.00000000000E+00 -0.00000000000E+00 -0.45593999997E+02  0.45594000000E+02  0.51100000000E-03 0. -1.
    9900012    2    1    2    0    0  0.34893179722E+00  0.68239960026E+00  0.89745717136E+00  0.90007808495E+02  0.90000070767E+02 0.  0.
         12    1    1    2    0    0 -0.34893179722E+00 -0.68239960026E+00 -0.89745717136E+00  0.11801915048E+01  0.00000000000E+00 0. -1.
         11    1    3    3    0    0 -0.89655913063E+01 -0.10753823511E+02 -0.96235905763E+01  0.16989409743E+02  0.51100000000E-03 0. -1.
        -11    1    3    3    0    0 -0.24199955986E+02 -0.14523251645E+02  0.11837971491E+02  0.30605559582E+02  0.51100000000E-03 0.  1.
         12    1    3    3    0    0  0.33514479089E+02  0.25959474757E+02 -0.13169237433E+01  0.42412839170E+02  0.00000000000E+00 0. -1.
</event>
<event>
 7    1  0.1971192E-015  0.9000773E+02  0.7816164E-02  0.1186339E+00
        -11   -1    0    0    0    0  0.00000000000E+00  0.00000000000E+00  0.45593999997E+02  0.45594000000E+02  0.51100000000E-03 0.  1.
         11   -1    0    0    0    0 -0.00000000000E+00 -0.00000000000E+00 -0.45593999997E+02  0.45594000000E+02  0.51100000000E-03 0. -1.
    9900012    2    1    2    0    0 -0.44189165124E+00 -0.50341764192E+00  0.97176735161E+00  0.90007733361E+02  0.89999994641E+02 0.  0.
         12    1    1    2    0    0  0.44189165124E+00  0.50341764192E+00 -0.97176735161E+00  0.11802666391E+01  0.00000000000E+00 0. -1.
         11    1    3    3    0    0 -0.17352051969E+02 -0.45984044656E+01 -0.37154375302E+02  0.41263623635E+02  0.51100000000E-03 0. -1.
        -11    1    3    3    0    0 -0.65897483850E+01  0.10580943791E+01  0.81915675317E+01  0.10566273060E+02  0.51100000000E-03 0.  1.
        -12    1    3    3    0    0  0.23499908703E+02  0.30368924446E+01  0.29934575122E+02  0.38177836666E+02  0.00000000000E+00 0.  1.
</event>
<event>
 7    1  0.1971192E-015  0.9000775E+02  0.7816164E-02  0.1186339E+00
        -11   -1    0    0    0    0  0.00000000000E+00  0.00000000000E+00  0.45593999997E+02  0.45594000000E+02  0.51100000000E-03 0.  1.
         11   -1    0    0    0    0 -0.00000000000E+00 -0.00000000000E+00 -0.45593999997E+02  0.45594000000E+02  0.51100000000E-03 0. -1.
    9900012    2    1    2    0    0 -0.90503903810E+00 -0.56598781759E+00 -0.50354271408E+00  0.90007748698E+02  0.90000010181E+02 0.  0.
         12    1    1    2    0    0  0.90503903810E+00  0.56598781759E+00  0.50354271408E+00  0.11802513017E+01  0.00000000000E+00 0. -1.
         11    1    3    3    0    0  0.19785382127E+02 -0.20355081333E+01  0.12573622362E+01  0.19929515783E+02  0.51100000000E-03 0. -1.
        -11    1    3    3    0    0  0.46244816934E+01 -0.18542166151E+02  0.22636157554E+02  0.29624202699E+02  0.51100000000E-03 0.  1.
         12    1    3    3    0    0 -0.25314902859E+02  0.20011686466E+02 -0.24397062504E+02  0.40454030217E+02  0.00000000000E+00 0. -1.
</event>
<event>
 7    1  0.1971192E-015  0.9000774E+02  0.7816164E-02  0.1186339E+00
        -11   -1    0    0    0    0  0.00000000000E+00  0.00000000000E+00  0.45593999997E+02  0.45594000000E+02  0.51100000000E-03 0.  1.
         11   -1    0    0    0    0 -0.00000000000E+00 -0.00000000000E+00 -0.45593999997E+02  0.45594000000E+02  0.51100000000E-03 0. -1.
    9900012    2    1    2    0    0  0.70057251038E+00  0.60131273308E+00 -0.73527574396E+00  0.90007741865E+02  0.90000003258E+02 0.  0.
         12    1    1    2    0    0 -0.70057251038E+00 -0.60131273308E+00  0.73527574396E+00  0.11802581349E+01  0.00000000000E+00 0. -1.
         11    1    3    3    0    0  0.24406639367E+02  0.20389888212E+02 -0.17010885174E+02  0.36066630022E+02  0.51100000000E-03 0. -1.
        -11    1    3    3    0    0  0.48582563412E+01  0.22136349836E+01 -0.86101943450E+01  0.10131055297E+02  0.51100000000E-03 0.  1.
        -12    1    3    3    0    0 -0.28564323197E+02 -0.22002210463E+02  0.24885803775E+02  0.43810056546E+02  0.00000000000E+00 0.  1.
</event>
<event>
 7    1  0.1971192E-015  0.9000772E+02  0.7816164E-02  0.1186339E+00
        -11   -1    0    0    0    0  0.00000000000E+00  0.00000000000E+00  0.45593999997E+02  0.45594000000E+02  0.51100000000E-03 0.  1.
         11   -1    0    0    0    0 -0.00000000000E+00 -0.00000000000E+00 -0.45593999997E+02  0.45594000000E+02  0.51100000000E-03 0. -1.
    9900012    2    1    2    0    0  0.30619263352E+00 -0.10252633002E+01  0.49813072195E+00  0.90007723346E+02  0.89999984494E+02 0.  0.
         12    1    1    2    0    0 -0.30619263352E+00  0.10252633002E+01 -0.49813072195E+00  0.11802766538E+01  0.00000000000E+00 0. -1.
         11    1    3    3    0    0  0.24940284666E+02 -0.23157180019E+02 -0.84972722683E+01  0.35078147356E+02  0.51100000000E-03 0. -1.
        -11    1    3    3    0    0  0.91177574135E+01 -0.46892655189E+01  0.56060708761E+01  0.11685492813E+02  0.51100000000E-03 0.  1.
        -12    1    3    3    0    0 -0.33751849446E+02  0.26821182237E+02  0.33893321142E+01  0.43244083177E+02  0.00000000000E+00 0.  1.
</event>
<event>
 7    1  0.1971192E-015  0.9000769E+02  0.7816164E-02  0.1186339E+00
        -11   -1    0    0    0    0  0.00000000000E+00  0.00000000000E+00  0.45593999997E+02  0.45594000000E+02  0.51100000000E-03 0. -1.
         11   -1    0    0    0    0 -0.00000000000E+00 -0.00000000000E+00 -0.45593999997E+02  0.45594000000E+02  0.51100000000E-03 0.  1.
    9900012    2    1    2    0    0  0.45384278773E+00  0.10867070621E+01 -0.78883390962E-01  0.90007691522E+02  0.89999952250E+02 0.  0.
         12    1    1    2    0    0 -0.45384278773E+00 -0.10867070621E+01  0.78883390962E-01  0.11803084784E+01  0.00000000000E+00 0. -1.
         11    1    3    3    0    0 -0.24234925438E+01  0.30106523721E+02  0.27160856462E+02  0.40620046907E+02  0.51100000000E-03 0. -1.
        -11    1    3    3    0    0 -0.47771496370E+01  0.44913918509E+01 -0.24195639986E+01  0.69891379738E+01  0.51100000000E-03 0.  1.
        -12    1    3    3    0    0  0.76544849686E+01 -0.33511208510E+02 -0.24820175855E+02  0.42398506641E+02  0.00000000000E+00 0.  1.
</event>
<event>
 7    1  0.1971192E-015  0.9000783E+02  0.7816164E-02  0.1186339E+00
        -11   -1    0    0    0    0  0.00000000000E+00  0.00000000000E+00  0.45593999997E+02  0.45594000000E+02  0.51100000000E-03 0. -1.
         11   -1    0    0    0    0 -0.00000000000E+00 -0.00000000000E+00 -0.45593999997E+02  0.45594000000E+02  0.51100000000E-03 0.  1.
    9900012    2    1    2    0    0  0.10461673465E+01 -0.48680713185E+00 -0.24767349719E+00  0.90007834985E+02  0.90000097607E+02 0.  0.
         12    1    1    2    0    0 -0.10461673465E+01  0.48680713185E+00  0.24767349719E+00  0.11801650146E+01  0.00000000000E+00 0. -1.
         11    1    3    3    0    0 -0.13468251025E+02 -0.20725037727E+01 -0.16250411572E+01  0.13723331104E+02  0.51100000000E-03 0. -1.
        -11    1    3    3    0    0  0.20145831622E+01 -0.31019679035E+02 -0.18430817980E+02  0.36138263440E+02  0.51100000000E-03 0.  1.
         12    1    3    3    0    0  0.12499835210E+02  0.32605375676E+02  0.19808185640E+02  0.40146240442E+02  0.00000000000E+00 0. -1.
</event>
<event>
 7    1  0.1971192E-015  0.9000777E+02  0.7816164E-02  0.1186339E+00
        -11   -1    0    0    0    0  0.00000000000E+00  0.00000000000E+00  0.45593999997E+02  0.45594000000E+02  0.51100000000E-03 0. -1.
         11   -1    0    0    0    0 -0.00000000000E+00 -0.00000000000E+00 -0.45593999997E+02  0.45594000000E+02  0.51100000000E-03 0.  1.
    9900012    2    1    2    0    0 -0.54005527170E+00 -0.38728630811E+00 -0.97534426923E+00  0.90007768317E+02  0.90000030059E+02 0.  0.
         12    1    1    2    0    0  0.54005527170E+00  0.38728630811E+00  0.97534426923E+00  0.11802316825E+01  0.00000000000E+00 0. -1.
         11    1    3    3    0    0 -0.64526406333E+01  0.43779204450E+00 -0.76864859326E+01  0.10045411852E+02  0.51100000000E-03 0. -1.
        -11    1    3    3    0    0 -0.23021443272E+02 -0.52675162901E+01 -0.26630442312E+02  0.35593735912E+02  0.51100000000E-03 0.  1.
         12    1    3    3    0    0  0.28934028634E+02  0.44424379375E+01  0.33341583975E+02  0.44368620553E+02  0.00000000000E+00 0. -1.
</event>
<event>
 8    1  0.1971192E-015  0.9000758E+02  0.7816164E-02  0.1186339E+00
        -11   -1    0    0    0    0  0.00000000000E+00  0.00000000000E+00  0.45593999997E+02  0.45594000000E+02  0.51100000000E-03 0. -1.
         11   -1    0    0    0    0 -0.00000000000E+00 -0.00000000000E+00 -0.45593999997E+02  0.45594000000E+02  0.51100000000E-03 0.  1.
    9900012    2    1    2    0    0 -0.35088953346E+00  0.93006830974E+00 -0.63658796603E+00  0.90007578565E+02  0.89999837802E+02 0.  0.
         23    2    3    3    0    0  0.10528723263E+02  0.23888265468E+02  0.92592148015E+01  0.62742734833E+02  0.56297553010E+02 0.  0.
         12    1    1    2    0    0  0.35088953346E+00 -0.93006830974E+00  0.63658796603E+00  0.11804214349E+01  0.00000000000E+00 0. -1.
         11    1    4    4    0    0  0.27121418686E+02  0.27368980663E+02 -0.71039659484E+01  0.39180336733E+02  0.51100000000E-03 0. -1.
        -11    1    4    4    0    0 -0.16592695423E+02 -0.34807151958E+01  0.16363180750E+02  0.23562398099E+02  0.51100000000E-03 0.  1.
        -12    1    3    3    0    0 -0.10879612797E+02 -0.22958197158E+02 -0.98958027676E+01  0.27264843732E+02  0.00000000000E+00 0.  1.
</event>
<event>
 7    1  0.1971192E-015  0.9000767E+02  0.7816164E-02  0.1186339E+00
        -11   -1    0    0    0    0  0.00000000000E+00  0.00000000000E+00  0.45593999997E+02  0.45594000000E+02  0.51100000000E-03 0. -1.
         11   -1    0    0    0    0 -0.00000000000E+00 -0.00000000000E+00 -0.45593999997E+02  0.45594000000E+02  0.51100000000E-03 0.  1.
    9900012    2    1    2    0    0  0.53063905230E+00 -0.10363842699E+01  0.19366195377E+00  0.90007671609E+02  0.89999932074E+02 0.  0.
         12    1    1    2    0    0 -0.53063905230E+00  0.10363842699E+01 -0.19366195377E+00  0.11803283912E+01  0.00000000000E+00 0. -1.
         11    1    3    3    0    0  0.34810650967E+01 -0.67564592743E+01 -0.41623490357E+01  0.86656047619E+01  0.51100000000E-03 0. -1.
        -11    1    3    3    0    0  0.16527921132E+02 -0.33128873298E+02 -0.34674938030E+01  0.37184915442E+02  0.51100000000E-03 0.  1.
         12    1    3    3    0    0 -0.19478347176E+02  0.38848948302E+02  0.78235047925E+01  0.44157151404E+02  0.00000000000E+00 0. -1.
</event>
<event>
 7    1  0.1971192E-015  0.9000784E+02  0.7816164E-02  0.1186339E+00
        -11   -1    0    0    0    0  0.00000000000E+00  0.00000000000E+00  0.45593999997E+02  0.45594000000E+02  0.51100000000E-03 0.  1.
         11   -1    0    0    0    0 -0.00000000000E+00 -0.00000000000E+00 -0.45593999997E+02  0.45594000000E+02  0.51100000000E-03 0. -1.
    9900012    2    1    2    0    0  0.35721471490E+00 -0.64108008539E+00  0.92422678989E+00  0.90007838491E+02  0.90000101159E+02 0.  0.
         12    1    1    2    0    0 -0.35721471490E+00  0.64108008539E+00 -0.92422678989E+00  0.11801615091E+01  0.00000000000E+00 0. -1.
         11    1    3    3    0    0 -0.25216006509E+02 -0.33309019577E+02 -0.11234991538E+02  0.43261562669E+02  0.51100000000E-03 0. -1.
        -11    1    3    3    0    0  0.52152767446E+01  0.21147637697E+01  0.80225604804E+01  0.97996333731E+01  0.51100000000E-03 0.  1.
        -12    1    3    3    0    0  0.20357944479E+02  0.30553175722E+02  0.41366578472E+01  0.36946642449E+02  0.00000000000E+00 0.  1.
</event>
<event>
 7    1  0.1971192E-015  0.9000776E+02  0.7816164E-02  0.1186339E+00
        -11   -1    0    0    0    0  0.00000000000E+00  0.00000000000E+00  0.45593999997E+02  0.45594000000E+02  0.51100000000E-03 0. -1.
         11   -1    0    0    0    0 -0.00000000000E+00 -0.00000000000E+00 -0.45593999997E+02  0.45594000000E+02  0.51100000000E-03 0.  1.
    9900012    2    1    2    0    0 -0.36235247640E+00 -0.52903389722E+00 -0.99085605279E+00  0.90007757695E+02  0.90000019296E+02 0.  0.
         12    1    1    2    0    0  0.36235247640E+00  0.52903389722E+00  0.99085605279E+00  0.11802423052E+01  0.00000000000E+00 0. -1.
         11    1    3    3    0    0 -0.94847850363E+01 -0.24561027322E+01  0.70652135187E+00  0.98230728643E+01  0.51100000000E-03 0. -1.
        -11    1    3    3    0    0 -0.34971622343E+02  0.71544990953E+01 -0.23969322025E+01  0.35776340099E+02  0.51100000000E-03 0.  1.
         12    1    3    3    0    0  0.44094054903E+02 -0.52274302603E+01  0.69955479786E+00  0.44408344732E+02  0.00000000000E+00 0. -1.
</event>
<event>
 7    1  0.1971192E-015  0.9000765E+02  0.7816164E-02  0.1186339E+00
        -11   -1    0    0    0    0  0.00000000000E+00  0.00000000000E+00  0.45593999997E+02  0.45594000000E+02  0.51100000000E-03 0.  1.
         11   -1    0    0    0    0 -0.00000000000E+00 -0.00000000000E+00 -0.45593999997E+02  0.45594000000E+02  0.51100000000E-03 0. -1.
    9900012    2    1    2    0    0 -0.47501035053E+00  0.96670918808E+00  0.48276891650E+00  0.90007649495E+02  0.89999909669E+02 0.  0.
         12    1    1    2    0    0  0.47501035053E+00 -0.96670918808E+00 -0.48276891650E+00  0.11803505048E+01  0.00000000000E+00 0. -1.
         11    1    3    3    0    0 -0.30342772896E+01 -0.37895194223E+01 -0.86903476928E+01  0.99543678556E+01  0.51100000000E-03 0. -1.
        -11    1    3    3    0    0 -0.35922005009E+01 -0.32660165198E+02  0.22542592218E+02  0.39846690695E+02  0.51100000000E-03 0.  1.
         12    1    3    3    0    0  0.61514674399E+01  0.37416393809E+02 -0.13369475609E+02  0.40206590944E+02  0.00000000000E+00 0. -1.
</event>
<event>
 7    1  0.1971192E-015  0.9000781E+02  0.7816164E-02  0.1186339E+00
        -11   -1    0    0    0    0  0.00000000000E+00  0.00000000000E+00  0.45593999997E+02  0.45594000000E+02  0.51100000000E-03 0.  1.
         11   -1    0    0    0    0 -0.00000000000E+00 -0.00000000000E+00 -0.45593999997E+02  0.45594000000E+02  0.51100000000E-03 0. -1.
    9900012    2    1    2    0    0  0.86969057419E+00 -0.13073220052E+00  0.78701725188E+00  0.90007809864E+02  0.90000072154E+02 0.  0.
         12    1    1    2    0    0 -0.86969057419E+00  0.13073220052E+00 -0.78701725188E+00  0.11801901363E+01  0.00000000000E+00 0. -1.
         11    1    3    3    0    0 -0.35075963568E+02  0.11460740975E+02 -0.17817538845E+02  0.40977268023E+02  0.51100000000E-03 0. -1.
        -11    1    3    3    0    0  0.51697965396E+01 -0.26099327636E+01 -0.62085697132E+01  0.84902817054E+01  0.51100000000E-03 0.  1.
        -12    1    3    3    0    0  0.30775857602E+02 -0.89815404115E+01  0.24813125810E+02  0.40540260135E+02  0.00000000000E+00 0.  1.
</event>
<event>
 7    1  0.1971192E-015  0.9000655E+02  0.7816164E-02  0.1186341E+00
        -11   -1    0    0    0    0  0.00000000000E+00  0.00000000000E+00  0.45593999997E+02  0.45594000000E+02  0.51100000000E-03 0. -1.
         11   -1    0    0    0    0 -0.00000000000E+00 -0.00000000000E+00 -0.45593999997E+02  0.45594000000E+02  0.51100000000E-03 0.  1.
    9900012    2    1    2    0    0 -0.42910280606E+00 -0.10974344107E+01 -0.85593107921E-01  0.90006552716E+02  0.89998798404E+02 0.  0.
         12    1    1    2    0    0  0.42910280606E+00  0.10974344107E+01  0.85593107921E-01  0.11814472837E+01  0.00000000000E+00 0. -1.
         11    1    3    3    0    0  0.56480719575E+01 -0.21264383937E+01  0.61113649416E+01  0.85890184998E+01  0.51100000000E-03 0. -1.
        -11    1    3    3    0    0 -0.11362866273E+02 -0.20926846469E+02  0.30276303291E+02  0.38518854789E+02  0.51100000000E-03 0.  1.
         12    1    3    3    0    0  0.52856915091E+01  0.21955850452E+02 -0.36473261340E+02  0.42898679427E+02  0.00000000000E+00 0. -1.
</event>
<event>
 7    1  0.1971192E-015  0.9000773E+02  0.7816164E-02  0.1186339E+00
        -11   -1    0    0    0    0  0.00000000000E+00  0.00000000000E+00  0.45593999997E+02  0.45594000000E+02  0.51100000000E-03 0.  1.
         11   -1    0    0    0    0 -0.00000000000E+00 -0.00000000000E+00 -0.45593999997E+02  0.45594000000E+02  0.51100000000E-03 0. -1.
    9900012    2    1    2    0    0 -0.40685072162E+00 -0.31133686496E+00  0.10632867616E+01  0.90007730162E+02  0.89999991400E+02 0.  0.
         12    1    1    2    0    0  0.40685072162E+00  0.31133686496E+00 -0.10632867616E+01  0.11802698381E+01  0.00000000000E+00 0. -1.
         11    1    3    3    0    0 -0.16139272551E+02  0.25000752478E+02 -0.26586862435E+02  0.39904573639E+02  0.51100000000E-03 0. -1.
        -11    1    3    3    0    0 -0.45832803029E+01 -0.60247123018E+01 -0.33874795208E+01  0.82932885166E+01  0.51100000000E-03 0.  1.
        -12    1    3    3    0    0  0.20315702132E+02 -0.19287377041E+02  0.31037628718E+02  0.41809868006E+02  0.00000000000E+00 0.  1.
</event>
<event>
 7    1  0.1971192E-015  0.9000785E+02  0.7816164E-02  0.1186339E+00
        -11   -1    0    0    0    0  0.00000000000E+00  0.00000000000E+00  0.45593999997E+02  0.45594000000E+02  0.51100000000E-03 0. -1.
         11   -1    0    0    0    0 -0.00000000000E+00 -0.00000000000E+00 -0.45593999997E+02  0.45594000000E+02  0.51100000000E-03 0.  1.
    9900012    2    1    2    0    0 -0.31985618694E+00  0.58977534689E+00 -0.97087957018E+00  0.90007851670E+02  0.90000114512E+02 0.  0.
         12    1    1    2    0    0  0.31985618694E+00 -0.58977534689E+00  0.97087957018E+00  0.11801483296E+01  0.00000000000E+00 0. -1.
         11    1    3    3    0    0 -0.40208961799E+02  0.11308660941E+02 -0.36476372656E+01  0.41927934353E+02  0.51100000000E-03 0. -1.
        -11    1    3    3    0    0  0.32653691065E+01 -0.70205501098E+01 -0.65381733542E+01  0.10134025376E+02  0.51100000000E-03 0.  1.
        -12    1    3    3    0    0  0.36623736505E+02 -0.36983354848E+01  0.92149310497E+01  0.37945891941E+02  0.00000000000E+00 0.  1.
</event>
<event>
 7    1  0.1971192E-015  0.9000792E+02  0.7816164E-02  0.1186339E+00
        -11   -1    0    0    0    0  0.00000000000E+00  0.00000000000E+00  0.45593999997E+02  0.45594000000E+02  0.51100000000E-03 0. -1.
         11   -1    0    0    0    0 -0.00000000000E+00 -0.00000000000E+00 -0.45593999997E+02  0.45594000000E+02  0.51100000000E-03 0.  1.
    9900012    2    1    2    0    0  0.10898470927E+01  0.35916506292E+00 -0.27534744251E+00  0.90007922697E+02  0.90000186476E+02 0.  0.
         12    1    1    2    0    0 -0.10898470927E+01 -0.35916506292E+00  0.27534744251E+00  0.11800773034E+01  0.00000000000E+00 0. -1.
         11    1    3    3    0    0  0.54063321547E+01  0.70326610608E+01  0.57016419537E+01  0.10544926277E+02  0.51100000000E-03 0. -1.
        -11    1    3    3    0    0  0.13845595994E+02  0.31514744288E+02  0.72066768685E+01  0.35168392453E+02  0.51100000000E-03 0.  1.
         12    1    3    3    0    0 -0.18162081056E+02 -0.38188240286E+02 -0.13183666265E+02  0.44294603967E+02  0.00000000000E+00 0. -1.
</event>
<event>
 7    1  0.1971192E-015  0.9000773E+02  0.7816164E-02  0.1186339E+00
        -11   -1    0    0    0    0  0.00000000000E+00  0.00000000000E+00  0.45593999997E+02  0.45594000000E+02  0.51100000000E-03 0. -1.
         11   -1    0    0    0    0 -0.00000000000E+00 -0.00000000000E+00 -0.45593999997E+02  0.45594000000E+02  0.51100000000E-03 0.  1.
    9900012    2    1    2    0    0 -0.59437723596E+00  0.10160965690E+01  0.85446009673E-01  0.90007729880E+02  0.89999991114E+02 0.  0.
         12    1    1    2    0    0  0.59437723596E+00 -0.10160965690E+01 -0.85446009673E-01  0.11802701202E+01  0.00000000000E+00 0. -1.
         11    1    3    3    0    0 -0.65384862864E+01 -0.44939698959E+01 -0.59762199530E+01  0.99329136476E+01  0.51100000000E-03 0. -1.
        -11    1    3    3    0    0  0.28514829593E+02 -0.27246436259E+02  0.80215362740E+01  0.40246848821E+02  0.51100000000E-03 0.  1.
         12    1    3    3    0    0 -0.22570720542E+02  0.32756502724E+02 -0.19598703114E+01  0.39827967412E+02  0.00000000000E+00 0. -1.
</event>
<event>
 7    1  0.1971192E-015  0.9000771E+02  0.7816164E-02  0.1186339E+00
        -11   -1    0    0    0    0  0.00000000000E+00  0.00000000000E+00  0.45593999997E+02  0.45594000000E+02  0.51100000000E-03 0. -1.
         11   -1    0    0    0    0 -0.00000000000E+00 -0.00000000000E+00 -0.45593999997E+02  0.45594000000E+02  0.51100000000E-03 0.  1.
    9900012    2    1    2    0    0  0.63198172809E+00 -0.86154889388E+00 -0.50142578265E+00  0.90007705453E+02  0.89999966365E+02 0.  0.
         12    1    1    2    0    0 -0.63198172809E+00  0.86154889388E+00  0.50142578265E+00  0.11802945466E+01  0.00000000000E+00 0. -1.
         11    1    3    3    0    0  0.80380946803E+01 -0.43332467924E+02 -0.66227667830E+01  0.44566520871E+02  0.51100000000E-03 0. -1.
        -11    1    3    3    0    0 -0.63985039194E+01  0.74041643824E+01  0.29302027695E+01  0.10215115816E+02  0.51100000000E-03 0.  1.
        -12    1    3    3    0    0 -0.10076090328E+01  0.35066754648E+02  0.31911382308E+01  0.35226068766E+02  0.00000000000E+00 0.  1.
</event>
<event>
 7    1  0.1971192E-015  0.9000764E+02  0.7816164E-02  0.1186339E+00
        -11   -1    0    0    0    0  0.00000000000E+00  0.00000000000E+00  0.45593999997E+02  0.45594000000E+02  0.51100000000E-03 0.  1.
         11   -1    0    0    0    0 -0.00000000000E+00 -0.00000000000E+00 -0.45593999997E+02  0.45594000000E+02  0.51100000000E-03 0. -1.
    9900012    2    1    2    0    0  0.23594651115E+00  0.63648948559E+00 -0.96564573029E+00  0.90007635100E+02  0.89999895083E+02 0.  0.
         12    1    1    2    0    0 -0.23594651115E+00 -0.63648948559E+00  0.96564573029E+00  0.11803649003E+01  0.00000000000E+00 0. -1.
         11    1    3    3    0    0 -0.76528003078E+01  0.25836162774E+01 -0.12177522261E+01  0.81684359803E+01  0.51100000000E-03 0. -1.
        -11    1    3    3    0    0 -0.12575133303E+02  0.24241083204E+02  0.27578954113E+02  0.38811889965E+02  0.51100000000E-03 0.  1.
         12    1    3    3    0    0  0.20463880122E+02 -0.26188209995E+02 -0.27326847617E+02  0.43027309154E+02  0.00000000000E+00 0. -1.
</event>
<event>
 7    1  0.1971192E-015  0.9000771E+02  0.7816164E-02  0.1186339E+00
        -11   -1    0    0    0    0  0.00000000000E+00  0.00000000000E+00  0.45593999997E+02  0.45594000000E+02  0.51100000000E-03 0.  1.
         11   -1    0    0    0    0 -0.00000000000E+00 -0.00000000000E+00 -0.45593999997E+02  0.45594000000E+02  0.51100000000E-03 0. -1.
    9900012    2    1    2    0    0  0.76574025632E+00  0.23685316344E+00  0.86639115357E+00  0.90007707158E+02  0.89999968093E+02 0.  0.
         12    1    1    2    0    0 -0.76574025632E+00 -0.23685316344E+00 -0.86639115357E+00  0.11802928417E+01  0.00000000000E+00 0. -1.
         11    1    3    3    0    0  0.67153094932E+01 -0.12373413776E+01  0.57908568771E+01  0.89532351084E+01  0.51100000000E-03 0. -1.
        -11    1    3    3    0    0 -0.75600219643E+00 -0.21368010036E+01  0.37798182845E+02  0.37866080923E+02  0.51100000000E-03 0.  1.
         12    1    3    3    0    0 -0.51935670404E+01  0.36109955445E+01 -0.42722648568E+02  0.43188391127E+02  0.00000000000E+00 0. -1.
</event>
<event>
 7    1  0.1971192E-015  0.9000751E+02  0.7816164E-02  0.1186339E+00
        -11   -1    0    0    0    0  0.00000000000E+00  0.00000000000E+00  0.45593999997E+02  0.45594000000E+02  0.51100000000E-03 0.  1.
         11   -1    0    0    0    0 -0.00000000000E+00 -0.00000000000E+00 -0.45593999997E+02  0.45594000000E+02  0.51100000000E-03 0. -1.
    9900012    2    1    2    0    0 -0.37510435636E+00  0.11178754886E+01 -0.56597290250E-01  0.90007511906E+02  0.89999770263E+02 0.  0.
         12    1    1    2    0    0  0.37510435636E+00 -0.11178754886E+01  0.56597290250E-01  0.11804880937E+01  0.00000000000E+00 0. -1.
         11    1    3    3    0    0 -0.23891537673E+02  0.27224920003E+02  0.11286591873E+02  0.37939280409E+02  0.51100000000E-03 0. -1.
        -11    1    3    3    0    0  0.40547364124E+01  0.55980109375E+01  0.76401949424E+01  0.10302970098E+02  0.51100000000E-03 0.  1.
        -12    1    3    3    0    0  0.19461696904E+02 -0.31705055452E+02 -0.18983384106E+02  0.41765261399E+02  0.00000000000E+00 0.  1.
</event>
<event>
 7    1  0.1971192E-015  0.9000773E+02  0.7816164E-02  0.1186339E+00
        -11   -1    0    0    0    0  0.00000000000E+00  0.00000000000E+00  0.45593999997E+02  0.45594000000E+02  0.51100000000E-03 0.  1.
         11   -1    0    0    0    0 -0.00000000000E+00 -0.00000000000E+00 -0.45593999997E+02  0.45594000000E+02  0.51100000000E-03 0. -1.
    9900012    2    1    2    0    0 -0.51480537115E+00 -0.10524368417E+01 -0.14283053947E+00  0.90007725270E+02  0.89999986443E+02 0.  0.
         12    1    1    2    0    0  0.51480537115E+00  0.10524368417E+01  0.14283053947E+00  0.11802747303E+01  0.00000000000E+00 0. -1.
         11    1    3    3    0    0 -0.75215096275E+01 -0.17287167764E+02 -0.37237687126E+02  0.41738047620E+02  0.51100000000E-03 0. -1.
        -11    1    3    3    0    0  0.11591012673E+02  0.38152875643E+01  0.43584669463E+01  0.12957786399E+02  0.51100000000E-03 0.  1.
        -12    1    3    3    0    0 -0.45843084166E+01  0.12419443358E+02  0.32736389641E+02  0.35311891250E+02  0.00000000000E+00 0.  1.
</event>
<event>
 7    1  0.1971192E-015  0.9000764E+02  0.7816164E-02  0.1186339E+00
        -11   -1    0    0    0    0  0.00000000000E+00  0.00000000000E+00  0.45593999997E+02  0.45594000000E+02  0.51100000000E-03 0.  1.
         11   -1    0    0    0    0 -0.00000000000E+00 -0.00000000000E+00 -0.45593999997E+02  0.45594000000E+02  0.51100000000E-03 0. -1.
    9900012    2    1    2    0    0 -0.10098795332E+01 -0.61101584551E+00 -0.79397732335E-02  0.90007635618E+02  0.89999895608E+02 0.  0.
         12    1    1    2    0    0  0.10098795332E+01  0.61101584551E+00  0.79397732335E-02  0.11803643823E+01  0.00000000000E+00 0. -1.
         11    1    3    3    0    0 -0.87088970187E+01  0.38607893352E+02 -0.44197056275E+01  0.39823964073E+02  0.51100000000E-03 0. -1.
        -11    1    3    3    0    0 -0.95693982260E+01 -0.33165494052E+01  0.14959626771E+01  0.10237713952E+02  0.51100000000E-03 0.  1.
        -12    1    3    3    0    0  0.17268415712E+02 -0.35902359793E+02  0.29158031771E+01  0.39945957593E+02  0.00000000000E+00 0.  1.
</event>
<event>
 7    1  0.1971192E-015  0.9000761E+02  0.7816164E-02  0.1186339E+00
        -11   -1    0    0    0    0  0.00000000000E+00  0.00000000000E+00  0.45593999997E+02  0.45594000000E+02  0.51100000000E-03 0. -1.
         11   -1    0    0    0    0 -0.00000000000E+00 -0.00000000000E+00 -0.45593999997E+02  0.45594000000E+02  0.51100000000E-03 0.  1.
    9900012    2    1    2    0    0  0.64075787673E+00  0.16838115759E+00 -0.97693565733E+00  0.90007607629E+02  0.89999867250E+02 0.  0.
         12    1    1    2    0    0 -0.64075787673E+00 -0.16838115759E+00  0.97693565733E+00  0.11803923709E+01  0.00000000000E+00 0. -1.
         11    1    3    3    0    0 -0.84466226448E+01 -0.33896139712E+02 -0.80158253896E+01  0.35840580052E+02  0.51100000000E-03 0. -1.
        -11    1    3    3    0    0 -0.33342108138E+01 -0.76960780270E+01 -0.38943956026E+01  0.92473183205E+01  0.51100000000E-03 0.  1.
        -12    1    3    3    0    0  0.12421591335E+02  0.41760598897E+02  0.10933285335E+02  0.44919709257E+02  0.00000000000E+00 0.  1.
</event>
<event>
 7    1  0.1971192E-015  0.9000773E+02  0.7816164E-02  0.1186339E+00
        -11   -1    0    0    0    0  0.00000000000E+00  0.00000000000E+00  0.45593999997E+02  0.45594000000E+02  0.51100000000E-03 0. -1.
         11   -1    0    0    0    0 -0.00000000000E+00 -0.00000000000E+00 -0.45593999997E+02  0.45594000000E+02  0.51100000000E-03 0.  1.
    9900012    2    1    2    0    0 -0.79747223408E+00  0.21733296553E+00 -0.84252417046E+00  0.90007727760E+02  0.89999988967E+02 0.  0.
         12    1    1    2    0    0  0.79747223408E+00 -0.21733296553E+00  0.84252417046E+00  0.11802722397E+01  0.00000000000E+00 0. -1.
         11    1    3    3    0    0 -0.52631042658E+01  0.14673589067E+02  0.19390502549E+02  0.24879832635E+02  0.51100000000E-03 0. -1.
        -11    1    3    3    0    0 -0.19117029286E+02  0.85930067911E+01  0.72736735227E+01  0.22185736436E+02  0.51100000000E-03 0.  1.
        -12    1    3    3    0    0  0.23582661317E+02 -0.23049262892E+02 -0.27506700242E+02  0.42942158689E+02  0.00000000000E+00 0.  1.
</event>
<event>
 7    1  0.1971192E-015  0.9000835E+02  0.7816164E-02  0.1186338E+00
        -11   -1    0    0    0    0  0.00000000000E+00  0.00000000000E+00  0.45593999997E+02  0.45594000000E+02  0.51100000000E-03 0.  1.
         11   -1    0    0    0    0 -0.00000000000E+00 -0.00000000000E+00 -0.45593999997E+02  0.45594000000E+02  0.51100000000E-03 0. -1.
    9900012    2    1    2    0    0  0.43662775667E-02  0.11036677551E+00  0.11744696853E+01  0.90008347962E+02  0.90000617353E+02 0.  0.
         12    1    1    2    0    0 -0.43662775667E-02 -0.11036677551E+00 -0.11744696853E+01  0.11796520382E+01  0.00000000000E+00 0. -1.
         11    1    3    3    0    0  0.20770773998E+01 -0.37758346966E+02  0.53501351008E+01  0.38192027467E+02  0.51100000000E-03 0. -1.
        -11    1    3    3    0    0 -0.21905973844E+01 -0.57067215931E+01  0.42350325909E+01  0.74364567872E+01  0.51100000000E-03 0.  1.
        -12    1    3    3    0    0  0.11788626213E+00  0.43575435335E+02 -0.84106980064E+01  0.44379863708E+02  0.00000000000E+00 0.  1.
</event>
<event>
 7    1  0.1971192E-015  0.9000771E+02  0.7816164E-02  0.1186339E+00
        -11   -1    0    0    0    0  0.00000000000E+00  0.00000000000E+00  0.45593999997E+02  0.45594000000E+02  0.51100000000E-03 0.  1.
         11   -1    0    0    0    0 -0.00000000000E+00 -0.00000000000E+00 -0.45593999997E+02  0.45594000000E+02  0.51100000000E-03 0. -1.
    9900012    2    1    2    0    0  0.14524329254E+00  0.93120335182E+00 -0.71052557459E+00  0.90007711100E+02  0.89999972086E+02 0.  0.
         12    1    1    2    0    0 -0.14524329254E+00 -0.93120335182E+00  0.71052557459E+00  0.11802889005E+01  0.00000000000E+00 0. -1.
         11    1    3    3    0    0  0.31842199960E+02 -0.23285388790E+02  0.12354049853E+02  0.41337121059E+02  0.51100000000E-03 0. -1.
        -11    1    3    3    0    0 -0.31378801572E+01  0.10664327379E+02  0.50796931229E+01  0.12222006906E+02  0.51100000000E-03 0.  1.
        -12    1    3    3    0    0 -0.28559076510E+02  0.13552264763E+02 -0.18144268550E+02  0.36448583135E+02  0.00000000000E+00 0.  1.
</event>
<event>
 7    1  0.1971192E-015  0.9000767E+02  0.7816164E-02  0.1186339E+00
        -11   -1    0    0    0    0  0.00000000000E+00  0.00000000000E+00  0.45593999997E+02  0.45594000000E+02  0.51100000000E-03 0. -1.
         11   -1    0    0    0    0 -0.00000000000E+00 -0.00000000000E+00 -0.45593999997E+02  0.45594000000E+02  0.51100000000E-03 0.  1.
    9900012    2    1    2    0    0 -0.60298482966E+00 -0.57890190321E+00 -0.83334665613E+00  0.90007667518E+02  0.89999927929E+02 0.  0.
         12    1    1    2    0    0  0.60298482966E+00  0.57890190321E+00  0.83334665613E+00  0.11803324818E+01  0.00000000000E+00 0. -1.
         11    1    3    3    0    0 -0.25483924489E+01 -0.51336852680E+01 -0.84041409642E+01  0.10172443861E+02  0.51100000000E-03 0. -1.
        -11    1    3    3    0    0 -0.22001904034E+02  0.30526898223E+02 -0.11939730747E+02  0.39478253087E+02  0.51100000000E-03 0.  1.
         12    1    3    3    0    0  0.23947311654E+02 -0.25972114858E+02  0.19510525055E+02  0.40356970570E+02  0.00000000000E+00 0. -1.
</event>
<event>
 7    1  0.1971192E-015  0.9000743E+02  0.7816164E-02  0.1186340E+00
        -11   -1    0    0    0    0  0.00000000000E+00  0.00000000000E+00  0.45593999997E+02  0.45594000000E+02  0.51100000000E-03 0.  1.
         11   -1    0    0    0    0 -0.00000000000E+00 -0.00000000000E+00 -0.45593999997E+02  0.45594000000E+02  0.51100000000E-03 0. -1.
    9900012    2    1    2    0    0 -0.22845432292E+00  0.79103557877E+00  0.84606440362E+00  0.90007426563E+02  0.89999683793E+02 0.  0.
         12    1    1    2    0    0  0.22845432292E+00 -0.79103557877E+00 -0.84606440362E+00  0.11805734368E+01  0.00000000000E+00 0. -1.
         11    1    3    3    0    0 -0.50076354168E+01  0.31158015407E+02 -0.12742094666E+02  0.34033208978E+02  0.51100000000E-03 0. -1.
        -11    1    3    3    0    0 -0.55460779566E+01  0.78574230391E+01 -0.64677116618E+01  0.11590054871E+02  0.51100000000E-03 0.  1.
        -12    1    3    3    0    0  0.10325259050E+02 -0.38224402868E+02  0.20055870731E+02  0.44384162714E+02  0.00000000000E+00 0.  1.
</event>
<event>
 7    1  0.1971192E-015  0.9000777E+02  0.7816164E-02  0.1186339E+00
        -11   -1    0    0    0    0  0.00000000000E+00  0.00000000000E+00  0.45593999997E+02  0.45594000000E+02  0.51100000000E-03 0. -1.
         11   -1    0    0    0    0 -0.00000000000E+00 -0.00000000000E+00 -0.45593999997E+02  0.45594000000E+02  0.51100000000E-03 0.  1.
    9900012    2    1    2    0    0  0.97110586935E+00 -0.61928736740E+00  0.25762481766E+00  0.90007773751E+02  0.90000035564E+02 0.  0.
         12    1    1    2    0    0 -0.97110586935E+00  0.61928736740E+00 -0.25762481766E+00  0.11802262493E+01  0.00000000000E+00 0. -1.
         11    1    3    3    0    0  0.22601031362E+02  0.24541867803E+02  0.17583365697E+02  0.37713189249E+02  0.51100000000E-03 0. -1.
        -11    1    3    3    0    0  0.14882867033E+01  0.45619298130E+01  0.62411416511E+01  0.78726139433E+01  0.51100000000E-03 0.  1.
        -12    1    3    3    0    0 -0.23118212196E+02 -0.29723084983E+02 -0.23566882530E+02  0.44421970558E+02  0.00000000000E+00 0.  1.
</event>
<event>
 7    1  0.1971192E-015  0.9000780E+02  0.7816164E-02  0.1186339E+00
        -11   -1    0    0    0    0  0.00000000000E+00  0.00000000000E+00  0.45593999997E+02  0.45594000000E+02  0.51100000000E-03 0.  1.
         11   -1    0    0    0    0 -0.00000000000E+00 -0.00000000000E+00 -0.45593999997E+02  0.45594000000E+02  0.51100000000E-03 0. -1.
    9900012    2    1    2    0    0  0.23217906059E+00  0.77483979566E+00 -0.85941776371E+00  0.90007795476E+02  0.90000057577E+02 0.  0.
         12    1    1    2    0    0 -0.23217906059E+00 -0.77483979566E+00  0.85941776371E+00  0.11802045237E+01  0.00000000000E+00 0. -1.
         11    1    3    3    0    0  0.37499595392E+01  0.58524029917E+01  0.69181773011E+01  0.98068340841E+01  0.51100000000E-03 0. -1.
        -11    1    3    3    0    0  0.15937897571E+02  0.26901675995E+02  0.16726562118E+02  0.35461170749E+02  0.51100000000E-03 0.  1.
         12    1    3    3    0    0 -0.19455678049E+02 -0.31979239191E+02 -0.24504157183E+02  0.44739790644E+02  0.00000000000E+00 0. -1.
</event>
<event>
 7    1  0.1971192E-015  0.9000772E+02  0.7816164E-02  0.1186339E+00
        -11   -1    0    0    0    0  0.00000000000E+00  0.00000000000E+00  0.45593999997E+02  0.45594000000E+02  0.51100000000E-03 0.  1.
         11   -1    0    0    0    0 -0.00000000000E+00 -0.00000000000E+00 -0.45593999997E+02  0.45594000000E+02  0.51100000000E-03 0. -1.
    9900012    2    1    2    0    0 -0.20686250200E+00  0.11264747494E+01 -0.28519194193E+00  0.90007715331E+02  0.89999976374E+02 0.  0.
         12    1    1    2    0    0  0.20686250200E+00 -0.11264747494E+01  0.28519194193E+00  0.11802846688E+01  0.00000000000E+00 0. -1.
         11    1    3    3    0    0 -0.17368420986E+02 -0.75584391198E+01 -0.31841255513E+02  0.37049394089E+02  0.51100000000E-03 0. -1.
        -11    1    3    3    0    0 -0.87766912955E+01 -0.28725722448E+01 -0.15262173593E+01  0.93600919379E+01  0.51100000000E-03 0.  1.
        -12    1    3    3    0    0  0.25938249780E+02  0.11557486114E+02  0.33082280930E+02  0.43598229304E+02  0.00000000000E+00 0.  1.
</event>
<event>
 7    1  0.1971192E-015  0.9000769E+02  0.7816164E-02  0.1186339E+00
        -11   -1    0    0    0    0  0.00000000000E+00  0.00000000000E+00  0.45593999997E+02  0.45594000000E+02  0.51100000000E-03 0. -1.
         11   -1    0    0    0    0 -0.00000000000E+00 -0.00000000000E+00 -0.45593999997E+02  0.45594000000E+02  0.51100000000E-03 0.  1.
    9900012    2    1    2    0    0 -0.69158857260E-01 -0.11674312284E+01  0.15955105032E+00  0.90007688533E+02  0.89999949222E+02 0.  0.
         12    1    1    2    0    0  0.69158857260E-01  0.11674312284E+01 -0.15955105032E+00  0.11803114666E+01  0.00000000000E+00 0. -1.
         11    1    3    3    0    0 -0.25243706638E+02 -0.35126077623E+02  0.54221681546E+01  0.43594563442E+02  0.51100000000E-03 0. -1.
        -11    1    3    3    0    0 -0.18522960603E+01  0.65526302422E+01  0.22982208095E+01  0.71867783420E+01  0.51100000000E-03 0.  1.
        -12    1    3    3    0    0  0.27026843841E+02  0.27406016152E+02 -0.75608379138E+01  0.39226346749E+02  0.00000000000E+00 0.  1.
</event>
<event>
 7    1  0.1971192E-015  0.9000772E+02  0.7816164E-02  0.1186339E+00
        -11   -1    0    0    0    0  0.00000000000E+00  0.00000000000E+00  0.45593999997E+02  0.45594000000E+02  0.51100000000E-03 0.  1.
         11   -1    0    0    0    0 -0.00000000000E+00 -0.00000000000E+00 -0.45593999997E+02  0.45594000000E+02  0.51100000000E-03 0. -1.
    9900012    2    1    2    0    0 -0.91142633176E+00 -0.54146668985E+00  0.51881755370E+00  0.90007722156E+02  0.89999983289E+02 0.  0.
         12    1    1    2    0    0  0.91142633176E+00  0.54146668985E+00 -0.51881755370E+00  0.11802778438E+01  0.00000000000E+00 0. -1.
         11    1    3    3    0    0  0.26420979993E+02  0.17567891405E+02 -0.18904206006E+02  0.36933291177E+02  0.51100000000E-03 0. -1.
        -11    1    3    3    0    0  0.42372633995E+01  0.48905744887E+01 -0.39254828948E+01  0.75684566567E+01  0.51100000000E-03 0.  1.
        -12    1    3    3    0    0 -0.31569669724E+02 -0.22999932584E+02  0.23348506455E+02  0.45505974322E+02  0.00000000000E+00 0.  1.
</event>
<event>
 7    1  0.2294567E-015  0.9000773E+02  0.7816164E-02  0.1186339E+00
        -11   -1    0    0    0    0  0.00000000000E+00  0.00000000000E+00  0.45593999997E+02  0.45594000000E+02  0.51100000000E-03 0. -1.
         11   -1    0    0    0    0 -0.00000000000E+00 -0.00000000000E+00 -0.45593999997E+02  0.45594000000E+02  0.51100000000E-03 0.  1.
    9900012    2    1    2    0    0 -0.34267623585E+00 -0.64129978558E+00 -0.92970756050E+00  0.90007725216E+02  0.89999986389E+02 0.  0.
         12    1    1    2    0    0  0.34267623585E+00  0.64129978558E+00  0.92970756050E+00  0.11802747840E+01  0.00000000000E+00 0. -1.
         11    1    3    3    0    0  0.31663030704E+02 -0.16968429638E+01  0.28249847263E+02  0.42467407033E+02  0.51100000000E-03 0. -1.
        -11    1    3    3    0    0 -0.60111734466E+00 -0.42340188756E+01 -0.86511900228E+01  0.96504583815E+01  0.51100000000E-03 0.  1.
        -12    1    3    3    0    0 -0.31404589595E+02  0.52895620538E+01 -0.20528364801E+02  0.37889859802E+02  0.00000000000E+00 0.  1.
</event>
<event>
 7    1  0.1971192E-015  0.9000754E+02  0.7816164E-02  0.1186339E+00
        -11   -1    0    0    0    0  0.00000000000E+00  0.00000000000E+00  0.45593999997E+02  0.45594000000E+02  0.51100000000E-03 0. -1.
         11   -1    0    0    0    0 -0.00000000000E+00 -0.00000000000E+00 -0.45593999997E+02  0.45594000000E+02  0.51100000000E-03 0.  1.
    9900012    2    1    2    0    0 -0.66903851925E+00  0.92178490146E+00  0.31013172168E+00  0.90007541771E+02  0.89999800523E+02 0.  0.
         12    1    1    2    0    0  0.66903851925E+00 -0.92178490146E+00 -0.31013172168E+00  0.11804582287E+01  0.00000000000E+00 0. -1.
         11    1    3    3    0    0  0.32072067325E+01 -0.38512760361E+02  0.11454661055E+02  0.40307916664E+02  0.51100000000E-03 0. -1.
        -11    1    3    3    0    0 -0.75067038837E+01  0.17874686013E+01  0.43141558081E+01  0.88406780167E+01  0.51100000000E-03 0.  1.
        -12    1    3    3    0    0  0.36304586319E+01  0.37647076661E+02 -0.15458685142E+02  0.40858947090E+02  0.00000000000E+00 0.  1.
</event>
<event>
 7    1  0.1971192E-015  0.9000766E+02  0.7816164E-02  0.1186339E+00
        -11   -1    0    0    0    0  0.00000000000E+00  0.00000000000E+00  0.45593999997E+02  0.45594000000E+02  0.51100000000E-03 0. -1.
         11   -1    0    0    0    0 -0.00000000000E+00 -0.00000000000E+00 -0.45593999997E+02  0.45594000000E+02  0.51100000000E-03 0.  1.
    9900012    2    1    2    0    0 -0.10293631356E+01  0.49764395608E+00 -0.29318663199E+00  0.90007662602E+02  0.89999922948E+02 0.  0.
         12    1    1    2    0    0  0.10293631356E+01 -0.49764395608E+00  0.29318663199E+00  0.11803373980E+01  0.00000000000E+00 0. -1.
         11    1    3    3    0    0 -0.73468880224E+01 -0.20528814976E+02 -0.26351609311E+02  0.34202577702E+02  0.51100000000E-03 0.  1.
        -11    1    3    3    0    0  0.23923242047E+02  0.41248775723E+01  0.84277849156E+01  0.25697542370E+02  0.51100000000E-03 0. -1.
        -12    1    3    3    0    0 -0.17605717160E+02  0.16901581360E+02  0.17630637764E+02  0.30107542529E+02  0.00000000000E+00 0.  1.
</event>
<event>
 7    1  0.1971192E-015  0.9000772E+02  0.7816164E-02  0.1186339E+00
        -11   -1    0    0    0    0  0.00000000000E+00  0.00000000000E+00  0.45593999997E+02  0.45594000000E+02  0.51100000000E-03 0. -1.
         11   -1    0    0    0    0 -0.00000000000E+00 -0.00000000000E+00 -0.45593999997E+02  0.45594000000E+02  0.51100000000E-03 0.  1.
    9900012    2    1    2    0    0 -0.89485800409E+00  0.30811481954E+00 -0.70522963681E+00  0.90007722732E+02  0.89999983872E+02 0.  0.
         12    1    1    2    0    0  0.89485800409E+00 -0.30811481954E+00  0.70522963681E+00  0.11802772683E+01  0.00000000000E+00 0. -1.
         11    1    3    3    0    0  0.17895587209E+02 -0.69605979604E+01 -0.63846743411E+01  0.20235267041E+02  0.51100000000E-03 0. -1.
        -11    1    3    3    0    0  0.76366760502E+01 -0.18269706345E+02 -0.17413123879E+02  0.26368880798E+02  0.51100000000E-03 0.  1.
         12    1    3    3    0    0 -0.26427121263E+02  0.25538419125E+02  0.23092568583E+02  0.43403574893E+02  0.00000000000E+00 0. -1.
</event>
<event>
 7    1  0.1971192E-015  0.9000808E+02  0.7816164E-02  0.1186338E+00
        -11   -1    0    0    0    0  0.00000000000E+00  0.00000000000E+00  0.45593999997E+02  0.45594000000E+02  0.51100000000E-03 0.  1.
         11   -1    0    0    0    0 -0.00000000000E+00 -0.00000000000E+00 -0.45593999997E+02  0.45594000000E+02  0.51100000000E-03 0. -1.
    9900012    2    1    2    0    0 -0.50344034433E+00  0.36720809204E+00 -0.10019518052E+01  0.90008084163E+02  0.90000350073E+02 0.  0.
         12    1    1    2    0    0  0.50344034433E+00 -0.36720809204E+00  0.10019518052E+01  0.11799158373E+01  0.00000000000E+00 0. -1.
         11    1    3    3    0    0 -0.91842977403E+01  0.42509698905E+01  0.16738021097E+01  0.10257859609E+02  0.51100000000E-03 0. -1.
        -11    1    3    3    0    0 -0.23111933489E+02 -0.39787244204E+00  0.27399375718E+02  0.35847532162E+02  0.51100000000E-03 0.  1.
         12    1    3    3    0    0  0.31792790885E+02 -0.34858893564E+01 -0.30075129633E+02  0.43902692392E+02  0.00000000000E+00 0. -1.
</event>
<event>
 7    1  0.1971192E-015  0.9000780E+02  0.7816164E-02  0.1186339E+00
        -11   -1    0    0    0    0  0.00000000000E+00  0.00000000000E+00  0.45593999997E+02  0.45594000000E+02  0.51100000000E-03 0.  1.
         11   -1    0    0    0    0 -0.00000000000E+00 -0.00000000000E+00 -0.45593999997E+02  0.45594000000E+02  0.51100000000E-03 0. -1.
    9900012    2    1    2    0    0 -0.11461584178E+01  0.19359049886E+00 -0.20425940653E+00  0.90007797346E+02  0.90000059471E+02 0.  0.
         12    1    1    2    0    0  0.11461584178E+01 -0.19359049886E+00  0.20425940653E+00  0.11802026543E+01  0.00000000000E+00 0. -1.
         11    1    3    3    0    0  0.93996015716E+00 -0.97323267496E+01 -0.32757975818E+00  0.97830985795E+01  0.51100000000E-03 0. -1.
        -11    1    3    3    0    0 -0.20999252285E+02 -0.29314898080E+02  0.49458479381E+01  0.36397709517E+02  0.51100000000E-03 0.  1.
         12    1    3    3    0    0  0.18913133710E+02  0.39240815329E+02 -0.48225275864E+01  0.43826989250E+02  0.00000000000E+00 0. -1.
</event>
<event>
 7    1  0.1971192E-015  0.9000745E+02  0.7816164E-02  0.1186340E+00
        -11   -1    0    0    0    0  0.00000000000E+00  0.00000000000E+00  0.45593999997E+02  0.45594000000E+02  0.51100000000E-03 0. -1.
         11   -1    0    0    0    0 -0.00000000000E+00 -0.00000000000E+00 -0.45593999997E+02  0.45594000000E+02  0.51100000000E-03 0.  1.
    9900012    2    1    2    0    0  0.43969882007E+00 -0.87010610850E+00  0.66579436889E+00  0.90007448504E+02  0.89999706024E+02 0.  0.
         12    1    1    2    0    0 -0.43969882007E+00  0.87010610850E+00 -0.66579436889E+00  0.11805514957E+01  0.00000000000E+00 0. -1.
         11    1    3    3    0    0  0.28257251127E+02 -0.29339333968E+02 -0.11184195532E+01  0.40749473880E+02  0.51100000000E-03 0. -1.
        -11    1    3    3    0    0 -0.54865205396E+01 -0.54052845567E-01  0.10635370024E+02  0.11967285622E+02  0.51100000000E-03 0.  1.
        -12    1    3    3    0    0 -0.22331031767E+02  0.28523280705E+02 -0.88511561020E+01  0.37290689003E+02  0.00000000000E+00 0.  1.
</event>
<event>
 7    1  0.1971192E-015  0.9000773E+02  0.7816164E-02  0.1186339E+00
        -11   -1    0    0    0    0  0.00000000000E+00  0.00000000000E+00  0.45593999997E+02  0.45594000000E+02  0.51100000000E-03 0. -1.
         11   -1    0    0    0    0 -0.00000000000E+00 -0.00000000000E+00 -0.45593999997E+02  0.45594000000E+02  0.51100000000E-03 0.  1.
    9900012    2    1    2    0    0 -0.69557665887E+00 -0.90366589566E+00  0.30428546303E+00  0.90007733682E+02  0.89999994966E+02 0.  0.
         12    1    1    2    0    0  0.69557665887E+00  0.90366589566E+00 -0.30428546303E+00  0.11802663184E+01  0.00000000000E+00 0. -1.
         11    1    3    3    0    0 -0.38419158367E+01  0.83687381375E+01  0.73734400310E+01  0.11796767077E+02  0.51100000000E-03 0. -1.
        -11    1    3    3    0    0  0.12659593408E+02 -0.11106886331E+02 -0.40257046526E+02  0.43637804991E+02  0.51100000000E-03 0.  1.
         12    1    3    3    0    0 -0.95132542305E+01  0.18344822977E+01  0.33187891958E+02  0.34573161614E+02  0.00000000000E+00 0. -1.
</event>
<event>
 7    1  0.1971192E-015  0.9000745E+02  0.7816164E-02  0.1186340E+00
        -11   -1    0    0    0    0  0.00000000000E+00  0.00000000000E+00  0.45593999997E+02  0.45594000000E+02  0.51100000000E-03 0.  1.
         11   -1    0    0    0    0 -0.00000000000E+00 -0.00000000000E+00 -0.45593999997E+02  0.45594000000E+02  0.51100000000E-03 0. -1.
    9900012    2    1    2    0    0 -0.54730013729E+00  0.51434678056E+00  0.91083210073E+00  0.90007447093E+02  0.89999704594E+02 0.  0.
         12    1    1    2    0    0  0.54730013729E+00 -0.51434678056E+00 -0.91083210073E+00  0.11805529072E+01  0.00000000000E+00 0. -1.
         11    1    3    3    0    0 -0.25946624203E+02  0.16658491350E+00 -0.31879507851E+02  0.41104234321E+02  0.51100000000E-03 0. -1.
        -11    1    3    3    0    0  0.72169779928E+01 -0.91889064085E-01 -0.37153655343E+01  0.81177063425E+01  0.51100000000E-03 0.  1.
        -12    1    3    3    0    0  0.18182346073E+02  0.43965093115E+00  0.36505705486E+02  0.40785506429E+02  0.00000000000E+00 0.  1.
</event>
<event>
 7    1  0.1971192E-015  0.9000769E+02  0.7816164E-02  0.1186339E+00
        -11   -1    0    0    0    0  0.00000000000E+00  0.00000000000E+00  0.45593999997E+02  0.45594000000E+02  0.51100000000E-03 0.  1.
         11   -1    0    0    0    0 -0.00000000000E+00 -0.00000000000E+00 -0.45593999997E+02  0.45594000000E+02  0.51100000000E-03 0. -1.
    9900012    2    1    2    0    0  0.54157205051E+00  0.10463380462E+01  0.70736728156E-01  0.90007691872E+02  0.89999952605E+02 0.  0.
         12    1    1    2    0    0 -0.54157205051E+00 -0.10463380462E+01 -0.70736728156E-01  0.11803081282E+01  0.00000000000E+00 0. -1.
         11    1    3    3    0    0  0.45324520642E+00  0.79099561401E+01 -0.36888440340E+01  0.87395885443E+01  0.51100000000E-03 0. -1.
        -11    1    3    3    0    0 -0.26161651841E+01  0.82092363534E+01  0.40530342262E+02  0.41436029322E+02  0.51100000000E-03 0.  1.
         12    1    3    3    0    0  0.27044920282E+01 -0.15072854447E+02 -0.36770761500E+02  0.39832074006E+02  0.00000000000E+00 0. -1.
</event>
<event>
 7    1  0.1971192E-015  0.9000771E+02  0.7816164E-02  0.1186339E+00
        -11   -1    0    0    0    0  0.00000000000E+00  0.00000000000E+00  0.45593999997E+02  0.45594000000E+02  0.51100000000E-03 0. -1.
         11   -1    0    0    0    0 -0.00000000000E+00 -0.00000000000E+00 -0.45593999997E+02  0.45594000000E+02  0.51100000000E-03 0.  1.
    9900012    2    1    2    0    0 -0.17308233178E+00 -0.34507267022E+00 -0.11153664652E+01  0.90007714021E+02  0.89999975046E+02 0.  0.
         12    1    1    2    0    0  0.17308233178E+00  0.34507267022E+00  0.11153664652E+01  0.11802859793E+01  0.00000000000E+00 0. -1.
         11    1    3    3    0    0  0.61230790936E+01  0.32280740442E+01 -0.64079573401E+01  0.94326283270E+01  0.51100000000E-03 0. -1.
        -11    1    3    3    0    0  0.15701025131E+02  0.54667267292E+01 -0.32163711964E+02  0.36206514039E+02  0.51100000000E-03 0.  1.
         12    1    3    3    0    0 -0.21997186556E+02 -0.90398734436E+01  0.37456302839E+02  0.44368571654E+02  0.00000000000E+00 0. -1.
</event>
<event>
 7    1  0.1971192E-015  0.9000722E+02  0.7816164E-02  0.1186340E+00
        -11   -1    0    0    0    0  0.00000000000E+00  0.00000000000E+00  0.45593999997E+02  0.45594000000E+02  0.51100000000E-03 0. -1.
         11   -1    0    0    0    0 -0.00000000000E+00 -0.00000000000E+00 -0.45593999997E+02  0.45594000000E+02  0.51100000000E-03 0.  1.
    9900012    2    1    2    0    0 -0.57190078543E+00 -0.91323326071E+00 -0.48288590884E+00  0.90007218776E+02  0.89999473263E+02 0.  0.
         12    1    1    2    0    0  0.57190078543E+00  0.91323326071E+00  0.48288590884E+00  0.11807812235E+01  0.00000000000E+00 0. -1.
         11    1    3    3    0    0  0.18048287376E+02 -0.17514856945E+02  0.19003858287E+00  0.25150487191E+02  0.51100000000E-03 0. -1.
        -11    1    3    3    0    0  0.14487212271E+02 -0.86130418407E+01 -0.13187057679E+02  0.21400053729E+02  0.51100000000E-03 0.  1.
        -12    1    3    3    0    0 -0.33107400432E+02  0.25214665525E+02  0.12514133187E+02  0.43456677857E+02  0.00000000000E+00 0.  1.
</event>
<event>
 7    1  0.1971192E-015  0.9000772E+02  0.7816164E-02  0.1186339E+00
        -11   -1    0    0    0    0  0.00000000000E+00  0.00000000000E+00  0.45593999997E+02  0.45594000000E+02  0.51100000000E-03 0. -1.
         11   -1    0    0    0    0 -0.00000000000E+00 -0.00000000000E+00 -0.45593999997E+02  0.45594000000E+02  0.51100000000E-03 0.  1.
    9900012    2    1    2    0    0  0.20984514829E+00 -0.11331601848E+01 -0.25487938391E+00  0.90007724400E+02  0.89999985563E+02 0.  0.
         12    1    1    2    0    0 -0.20984514829E+00  0.11331601848E+01  0.25487938391E+00  0.11802755996E+01  0.00000000000E+00 0. -1.
         11    1    3    3    0    0  0.31541666437E+01 -0.93121468791E+01  0.32599500808E+01  0.10358191034E+02  0.51100000000E-03 0. -1.
        -11    1    3    3    0    0 -0.10408235514E+02  0.30440044060E+01 -0.40316326080E+02  0.41749293146E+02  0.51100000000E-03 0.  1.
         12    1    3    3    0    0  0.74639140187E+01  0.51349822883E+01  0.36801496616E+02  0.37900240220E+02  0.00000000000E+00 0. -1.
</event>
<event>
 7    1  0.1971192E-015  0.9000777E+02  0.7816164E-02  0.1186339E+00
        -11   -1    0    0    0    0  0.00000000000E+00  0.00000000000E+00  0.45593999997E+02  0.45594000000E+02  0.51100000000E-03 0. -1.
         11   -1    0    0    0    0 -0.00000000000E+00 -0.00000000000E+00 -0.45593999997E+02  0.45594000000E+02  0.51100000000E-03 0.  1.
    9900012    2    1    2    0    0 -0.62417746326E+00  0.68298184572E+00 -0.73272792654E+00  0.90007766158E+02  0.90000027871E+02 0.  0.
         12    1    1    2    0    0  0.62417746326E+00 -0.68298184572E+00  0.73272792654E+00  0.11802338419E+01  0.00000000000E+00 0. -1.
         11    1    3    3    0    0  0.73851387549E+01  0.63529487276E+01  0.92045009626E+00  0.97850631375E+01  0.51100000000E-03 0. -1.
        -11    1    3    3    0    0  0.58598764999E+01  0.49051420998E+00 -0.39245051075E+02  0.39683155002E+02  0.51100000000E-03 0.  1.
         12    1    3    3    0    0 -0.13869192718E+02 -0.61604810919E+01  0.37591873052E+02  0.40539548018E+02  0.00000000000E+00 0. -1.
</event>
<event>
 7    1  0.1971192E-015  0.9000825E+02  0.7816164E-02  0.1186338E+00
        -11   -1    0    0    0    0  0.00000000000E+00  0.00000000000E+00  0.45593999997E+02  0.45594000000E+02  0.51100000000E-03 0.  1.
         11   -1    0    0    0    0 -0.00000000000E+00 -0.00000000000E+00 -0.45593999997E+02  0.45594000000E+02  0.51100000000E-03 0. -1.
    9900012    2    1    2    0    0  0.12199279751E-01 -0.24538068642E+00  0.11538798212E+01  0.90008254627E+02  0.90000522786E+02 0.  0.
         12    1    1    2    0    0 -0.12199279751E-01  0.24538068642E+00 -0.11538798212E+01  0.11797453732E+01  0.00000000000E+00 0. -1.
         11    1    3    3    0    0  0.31199074489E+02  0.11607024065E+02  0.18525667549E+02  0.38096005237E+02  0.51100000000E-03 0. -1.
        -11    1    3    3    0    0  0.50547512549E+01 -0.66169656929E+01  0.42901003760E+01  0.93669475673E+01  0.51100000000E-03 0.  1.
        -12    1    3    3    0    0 -0.36241626464E+02 -0.52354390587E+01 -0.21661888104E+02  0.42545301822E+02  0.00000000000E+00 0.  1.
</event>
<event>
 7    1  0.1971192E-015  0.9000772E+02  0.7816164E-02  0.1186339E+00
        -11   -1    0    0    0    0  0.00000000000E+00  0.00000000000E+00  0.45593999997E+02  0.45594000000E+02  0.51100000000E-03 0.  1.
         11   -1    0    0    0    0 -0.00000000000E+00 -0.00000000000E+00 -0.45593999997E+02  0.45594000000E+02  0.51100000000E-03 0. -1.
    9900012    2    1    2    0    0 -0.97570983885E+00  0.14441578208E+00  0.64822930894E+00  0.90007717473E+02  0.89999978543E+02 0.  0.
         12    1    1    2    0    0  0.97570983885E+00 -0.14441578208E+00 -0.64822930894E+00  0.11802825275E+01  0.00000000000E+00 0. -1.
         11    1    3    3    0    0  0.60209539833E+01 -0.32991371290E+02 -0.18742702456E+02  0.38418372715E+02  0.51100000000E-03 0. -1.
        -11    1    3    3    0    0  0.77006216658E+01  0.21521493879E+01 -0.50689871553E+01  0.94670983975E+01  0.51100000000E-03 0.  1.
        -12    1    3    3    0    0 -0.14697285488E+02  0.30983637684E+02  0.24459918920E+02  0.42122246360E+02  0.00000000000E+00 0.  1.
</event>
<event>
 7    1  0.1971192E-015  0.9000772E+02  0.7816164E-02  0.1186339E+00
        -11   -1    0    0    0    0  0.00000000000E+00  0.00000000000E+00  0.45593999997E+02  0.45594000000E+02  0.51100000000E-03 0.  1.
         11   -1    0    0    0    0 -0.00000000000E+00 -0.00000000000E+00 -0.45593999997E+02  0.45594000000E+02  0.51100000000E-03 0. -1.
    9900012    2    1    2    0    0 -0.17515183304E+00  0.79352263780E+00  0.85598359946E+00  0.90007718566E+02  0.89999979651E+02 0.  0.
         12    1    1    2    0    0  0.17515183304E+00 -0.79352263780E+00 -0.85598359946E+00  0.11802814342E+01  0.00000000000E+00 0. -1.
         11    1    3    3    0    0  0.18692947067E+01  0.53914311035E+01  0.76980658030E+01  0.95823801538E+01  0.51100000000E-03 0. -1.
        -11    1    3    3    0    0  0.35196691645E+02 -0.30722043976E+01  0.13668369197E+02  0.37882315919E+02  0.51100000000E-03 0.  1.
         12    1    3    3    0    0 -0.37241138185E+02 -0.15257040680E+01 -0.20510451401E+02  0.42543022493E+02  0.00000000000E+00 0. -1.
</event>
<event>
 7    1  0.1971192E-015  0.9000746E+02  0.7816164E-02  0.1186340E+00
        -11   -1    0    0    0    0  0.00000000000E+00  0.00000000000E+00  0.45593999997E+02  0.45594000000E+02  0.51100000000E-03 0.  1.
         11   -1    0    0    0    0 -0.00000000000E+00 -0.00000000000E+00 -0.45593999997E+02  0.45594000000E+02  0.51100000000E-03 0. -1.
    9900012    2    1    2    0    0 -0.10892447728E+01 -0.41424446209E+00  0.18874341288E+00  0.90007459139E+02  0.89999716799E+02 0.  0.
         12    1    1    2    0    0  0.10892447728E+01  0.41424446209E+00 -0.18874341288E+00  0.11805408613E+01  0.00000000000E+00 0. -1.
         11    1    3    3    0    0 -0.11321570045E+01 -0.88518473824E+01  0.14384541371E+01  0.90391444358E+01  0.51100000000E-03 0. -1.
        -11    1    3    3    0    0  0.19843214748E+02  0.35728376951E+02  0.15006587583E+02  0.43536970063E+02  0.51100000000E-03 0.  1.
         12    1    3    3    0    0 -0.19800302516E+02 -0.27290774031E+02 -0.16256298307E+02  0.37431344640E+02  0.00000000000E+00 0. -1.
</event>
<event>
 8    1  0.1971192E-015  0.9000795E+02  0.7816164E-02  0.1186339E+00
        -11   -1    0    0    0    0  0.00000000000E+00  0.00000000000E+00  0.45593999997E+02  0.45594000000E+02  0.51100000000E-03 0.  1.
         11   -1    0    0    0    0 -0.00000000000E+00 -0.00000000000E+00 -0.45593999997E+02  0.45594000000E+02  0.51100000000E-03 0. -1.
    9900012    2    1    2    0    0  0.28256435019E-01 -0.61705258838E+00  0.10054681028E+01  0.90007949819E+02  0.90000213957E+02 0.  0.
         23    2    3    3    0    0 -0.19650276184E+02  0.71394422948E+01  0.17228835856E+02  0.63350764669E+02  0.57265885209E+02 0.  0.
         12    1    1    2    0    0 -0.28256435019E-01  0.61705258838E+00 -0.10054681028E+01  0.11800501806E+01  0.00000000000E+00 0. -1.
         11    1    4    4    0    0 -0.30830498898E+02 -0.80860339574E+01  0.27280032256E+02  0.41953590641E+02  0.51100000000E-03 0.  1.
        -11    1    4    4    0    0  0.11180222714E+02  0.15225476252E+02 -0.10051196401E+02  0.21397174028E+02  0.51100000000E-03 0. -1.
        -12    1    3    3    0    0  0.19678532619E+02 -0.77564948832E+01 -0.16223367753E+02  0.26657185150E+02  0.00000000000E+00 0.  1.
</event>
<event>
 7    1  0.1971192E-015  0.9000773E+02  0.7816164E-02  0.1186339E+00
        -11   -1    0    0    0    0  0.00000000000E+00  0.00000000000E+00  0.45593999997E+02  0.45594000000E+02  0.51100000000E-03 0.  1.
         11   -1    0    0    0    0 -0.00000000000E+00 -0.00000000000E+00 -0.45593999997E+02  0.45594000000E+02  0.51100000000E-03 0. -1.
    9900012    2    1    2    0    0 -0.60507025262E+00 -0.97478801012E+00  0.27698464653E+00  0.90007727926E+02  0.89999989134E+02 0.  0.
         12    1    1    2    0    0  0.60507025262E+00  0.97478801012E+00 -0.27698464653E+00  0.11802720744E+01  0.00000000000E+00 0. -1.
         11    1    3    3    0    0 -0.40389139011E+01 -0.77851896000E+01 -0.68416314823E+01  0.11123395354E+02  0.51100000000E-03 0. -1.
        -11    1    3    3    0    0  0.26514783216E+02 -0.26832347513E+02  0.21527850777E+01  0.37784164487E+02  0.51100000000E-03 0.  1.
         12    1    3    3    0    0 -0.23080939568E+02  0.33642749103E+02  0.49658310512E+01  0.41100168085E+02  0.00000000000E+00 0. -1.
</event>
<event>
 7    1  0.1971192E-015  0.9000835E+02  0.7816164E-02  0.1186338E+00
        -11   -1    0    0    0    0  0.00000000000E+00  0.00000000000E+00  0.45593999997E+02  0.45594000000E+02  0.51100000000E-03 0. -1.
         11   -1    0    0    0    0 -0.00000000000E+00 -0.00000000000E+00 -0.45593999997E+02  0.45594000000E+02  0.51100000000E-03 0.  1.
    9900012    2    1    2    0    0 -0.11728239732E+01 -0.10136635853E+00 -0.76046804088E-01  0.90008349913E+02  0.90000619330E+02 0.  0.
         12    1    1    2    0    0  0.11728239732E+01  0.10136635853E+00  0.76046804088E-01  0.11796500867E+01  0.00000000000E+00 0. -1.
         11    1    3    3    0    0 -0.83969922192E+01 -0.36144857151E+01 -0.49498346872E+01  0.10395905396E+02  0.51100000000E-03 0. -1.
        -11    1    3    3    0    0  0.33270612593E+02  0.26340345888E+02 -0.69817122698E+01  0.43005718112E+02  0.51100000000E-03 0.  1.
         12    1    3    3    0    0 -0.26046444347E+02 -0.22827226531E+02  0.11855500153E+02  0.36606726405E+02  0.00000000000E+00 0. -1.
</event>
<event>
 7    1  0.1971192E-015  0.9000775E+02  0.7816164E-02  0.1186339E+00
        -11   -1    0    0    0    0  0.00000000000E+00  0.00000000000E+00  0.45593999997E+02  0.45594000000E+02  0.51100000000E-03 0.  1.
         11   -1    0    0    0    0 -0.00000000000E+00 -0.00000000000E+00 -0.45593999997E+02  0.45594000000E+02  0.51100000000E-03 0. -1.
    9900012    2    1    2    0    0 -0.22043765493E+00 -0.65981201357E+00  0.95344443514E+00  0.90007745390E+02  0.90000006829E+02 0.  0.
         12    1    1    2    0    0  0.22043765493E+00  0.65981201357E+00 -0.95344443514E+00  0.11802546098E+01  0.00000000000E+00 0. -1.
         11    1    3    3    0    0  0.20009540837E+02 -0.19648463991E+02 -0.29674620596E+02  0.40829241598E+02  0.51100000000E-03 0. -1.
        -11    1    3    3    0    0 -0.22011583175E+01  0.79364975175E+01 -0.35650475143E+01  0.89745559681E+01  0.51100000000E-03 0.  1.
        -12    1    3    3    0    0 -0.18028820174E+02  0.11052154460E+02  0.34193112546E+02  0.40203947824E+02  0.00000000000E+00 0.  1.
</event>
<event>
 7    1  0.1971192E-015  0.9000772E+02  0.7816164E-02  0.1186339E+00
        -11   -1    0    0    0    0  0.00000000000E+00  0.00000000000E+00  0.45593999997E+02  0.45594000000E+02  0.51100000000E-03 0.  1.
         11   -1    0    0    0    0 -0.00000000000E+00 -0.00000000000E+00 -0.45593999997E+02  0.45594000000E+02  0.51100000000E-03 0. -1.
    9900012    2    1    2    0    0 -0.70355897008E+00 -0.90146600206E+00  0.29226985174E+00  0.90007721286E+02  0.89999982407E+02 0.  0.
         12    1    1    2    0    0  0.70355897008E+00  0.90146600206E+00 -0.29226985174E+00  0.11802787143E+01  0.00000000000E+00 0. -1.
         11    1    3    3    0    0 -0.56372162908E+01 -0.84438335978E+01  0.60547263618E+01  0.11821008625E+02  0.51100000000E-03 0. -1.
        -11    1    3    3    0    0  0.12540008173E+02 -0.56177970611E+01 -0.39155686141E+02  0.41496737296E+02  0.51100000000E-03 0.  1.
         12    1    3    3    0    0 -0.76063508524E+01  0.13160164657E+02  0.33393229631E+02  0.36689975365E+02  0.00000000000E+00 0. -1.
</event>
<event>
 7    1  0.1971192E-015  0.9000777E+02  0.7816164E-02  0.1186339E+00
        -11   -1    0    0    0    0  0.00000000000E+00  0.00000000000E+00  0.45593999997E+02  0.45594000000E+02  0.51100000000E-03 0.  1.
         11   -1    0    0    0    0 -0.00000000000E+00 -0.00000000000E+00 -0.45593999997E+02  0.45594000000E+02  0.51100000000E-03 0. -1.
    9900012    2    1    2    0    0  0.11212733480E+01  0.10471408296E+00  0.35317335984E+00  0.90007766810E+02  0.90000028532E+02 0.  0.
         12    1    1    2    0    0 -0.11212733480E+01 -0.10471408296E+00 -0.35317335984E+00  0.11802331898E+01  0.00000000000E+00 0. -1.
         11    1    3    3    0    0 -0.33519468677E+01  0.70790417981E+01  0.45031398807E+00  0.78454549602E+01  0.51100000000E-03 0. -1.
        -11    1    3    3    0    0 -0.52476681506E+01  0.35983462475E+02 -0.84508888977E+01  0.37333163757E+02  0.51100000000E-03 0.  1.
         12    1    3    3    0    0  0.97208883663E+01 -0.42957790190E+02  0.83537482694E+01  0.44829148093E+02  0.00000000000E+00 0. -1.
</event>
<event>
 7    1  0.1971192E-015  0.9000774E+02  0.7816164E-02  0.1186339E+00
        -11   -1    0    0    0    0  0.00000000000E+00  0.00000000000E+00  0.45593999997E+02  0.45594000000E+02  0.51100000000E-03 0. -1.
         11   -1    0    0    0    0 -0.00000000000E+00 -0.00000000000E+00 -0.45593999997E+02  0.45594000000E+02  0.51100000000E-03 0.  1.
    9900012    2    1    2    0    0 -0.43685240314E+00 -0.10020295845E+01 -0.44510461114E+00  0.90007736714E+02  0.89999998038E+02 0.  0.
         12    1    1    2    0    0  0.43685240314E+00  0.10020295845E+01  0.44510461114E+00  0.11802632864E+01  0.00000000000E+00 0. -1.
         11    1    3    3    0    0  0.82615912840E+01  0.71317908416E+00 -0.33484663769E+01  0.89428598495E+01  0.51100000000E-03 0. -1.
        -11    1    3    3    0    0  0.29166623769E+02  0.65027885517E+01 -0.20091203399E+02  0.36008813578E+02  0.51100000000E-03 0.  1.
         12    1    3    3    0    0 -0.37865067456E+02 -0.82179972204E+01  0.22994565164E+02  0.45056063286E+02  0.00000000000E+00 0. -1.
</event>
<event>
 7    1  0.1971192E-015  0.9000772E+02  0.7816164E-02  0.1186339E+00
        -11   -1    0    0    0    0  0.00000000000E+00  0.00000000000E+00  0.45593999997E+02  0.45594000000E+02  0.51100000000E-03 0.  1.
         11   -1    0    0    0    0 -0.00000000000E+00 -0.00000000000E+00 -0.45593999997E+02  0.45594000000E+02  0.51100000000E-03 0. -1.
    9900012    2    1    2    0    0 -0.49339964854E+00 -0.59182377461E+00  0.89407064483E+00  0.90007719986E+02  0.89999981090E+02 0.  0.
         12    1    1    2    0    0  0.49339964854E+00  0.59182377461E+00 -0.89407064483E+00  0.11802800139E+01  0.00000000000E+00 0. -1.
         11    1    3    3    0    0 -0.16299859646E+02  0.32481196482E+02 -0.16845883069E+02  0.40056177126E+02  0.51100000000E-03 0. -1.
        -11    1    3    3    0    0 -0.80017958997E+01 -0.41835051750E+01  0.54661273450E+01  0.10555046262E+02  0.51100000000E-03 0.  1.
        -12    1    3    3    0    0  0.23808255897E+02 -0.28889515081E+02  0.12273826369E+02  0.39396496598E+02  0.00000000000E+00 0.  1.
</event>
<event>
 7    1  0.1971192E-015  0.9000786E+02  0.7816164E-02  0.1186339E+00
        -11   -1    0    0    0    0  0.00000000000E+00  0.00000000000E+00  0.45593999997E+02  0.45594000000E+02  0.51100000000E-03 0.  1.
         11   -1    0    0    0    0 -0.00000000000E+00 -0.00000000000E+00 -0.45593999997E+02  0.45594000000E+02  0.51100000000E-03 0. -1.
    9900012    2    1    2    0    0 -0.20797238036E+00 -0.69037521275E+00  0.93427011814E+00  0.90007859712E+02  0.90000122660E+02 0.  0.
         12    1    1    2    0    0  0.20797238036E+00  0.69037521275E+00 -0.93427011814E+00  0.11801402879E+01  0.00000000000E+00 0. -1.
         11    1    3    3    0    0 -0.73671345810E+01  0.18154594134E+00  0.18084802016E+01  0.75880321405E+01  0.51100000000E-03 0. -1.
        -11    1    3    3    0    0  0.22864416185E+01  0.84844185640E+01  0.39615559286E+02  0.40578389710E+02  0.51100000000E-03 0.  1.
         12    1    3    3    0    0  0.48727205821E+01 -0.93563397181E+01 -0.40489769369E+02  0.41841437862E+02  0.00000000000E+00 0. -1.
</event>
<event>
 7    1  0.1971192E-015  0.9000793E+02  0.7816164E-02  0.1186339E+00
        -11   -1    0    0    0    0  0.00000000000E+00  0.00000000000E+00  0.45593999997E+02  0.45594000000E+02  0.51100000000E-03 0.  1.
         11   -1    0    0    0    0 -0.00000000000E+00 -0.00000000000E+00 -0.45593999997E+02  0.45594000000E+02  0.51100000000E-03 0. -1.
    9900012    2    1    2    0    0  0.10665568253E+01 -0.36444940485E+00  0.34956374088E+00  0.90007931511E+02  0.90000195407E+02 0.  0.
         12    1    1    2    0    0 -0.10665568253E+01  0.36444940485E+00 -0.34956374088E+00  0.11800684892E+01  0.00000000000E+00 0. -1.
         11    1    3    3    0    0  0.33374609813E+02  0.30289978063E+01 -0.18124411202E+02  0.38098998537E+02  0.51100000000E-03 0. -1.
        -11    1    3    3    0    0  0.55509515752E+01 -0.79301474165E+01  0.33817216497E+00  0.96857969270E+01  0.51100000000E-03 0.  1.
        -12    1    3    3    0    0 -0.37859004563E+02  0.45367002053E+01  0.18135802778E+02  0.42223136047E+02  0.00000000000E+00 0.  1.
</event>
<event>
 7    1  0.1971192E-015  0.9000773E+02  0.7816164E-02  0.1186339E+00
        -11   -1    0    0    0    0  0.00000000000E+00  0.00000000000E+00  0.45593999997E+02  0.45594000000E+02  0.51100000000E-03 0.  1.
         11   -1    0    0    0    0 -0.00000000000E+00 -0.00000000000E+00 -0.45593999997E+02  0.45594000000E+02  0.51100000000E-03 0. -1.
    9900012    2    1    2    0    0  0.53277355852E-01 -0.58900384686E+00  0.10214123315E+01  0.90007725812E+02  0.89999986993E+02 0.  0.
         12    1    1    2    0    0 -0.53277355852E-01  0.58900384686E+00 -0.10214123315E+01  0.11802741882E+01  0.00000000000E+00 0. -1.
         11    1    3    3    0    0  0.33801905032E+02 -0.14390871405E+02 -0.10589824455E+02  0.38233628469E+02  0.51100000000E-03 0. -1.
        -11    1    3    3    0    0  0.38606317087E+01  0.85735221818E+01  0.10062132769E+02  0.13771574925E+02  0.51100000000E-03 0.  1.
        -12    1    3    3    0    0 -0.37609259385E+02  0.52283453765E+01  0.15491040176E+01  0.38002522418E+02  0.00000000000E+00 0.  1.
</event>
<event>
 7    1  0.1971192E-015  0.9000772E+02  0.7816164E-02  0.1186339E+00
        -11   -1    0    0    0    0  0.00000000000E+00  0.00000000000E+00  0.45593999997E+02  0.45594000000E+02  0.51100000000E-03 0. -1.
         11   -1    0    0    0    0 -0.00000000000E+00 -0.00000000000E+00 -0.45593999997E+02  0.45594000000E+02  0.51100000000E-03 0.  1.
    9900012    2    1    2    0    0  0.11749543893E+01  0.79559703905E-01 -0.78861044170E-01  0.90007717564E+02  0.89999978636E+02 0.  0.
         12    1    1    2    0    0 -0.11749543893E+01 -0.79559703905E-01  0.78861044170E-01  0.11802824356E+01  0.00000000000E+00 0. -1.
         11    1    3    3    0    0 -0.12351640874E+02 -0.39163466972E+02  0.11631318140E+02  0.42680531153E+02  0.51100000000E-03 0. -1.
        -11    1    3    3    0    0  0.16145534425E+01  0.42611807135E+01 -0.92253137232E+01  0.10289356513E+02  0.51100000000E-03 0.  1.
        -12    1    3    3    0    0  0.11912041821E+02  0.34981845962E+02 -0.24848654608E+01  0.37037829899E+02  0.00000000000E+00 0.  1.
</event>
<event>
 7    1  0.1971192E-015  0.9000774E+02  0.7816164E-02  0.1186339E+00
        -11   -1    0    0    0    0  0.00000000000E+00  0.00000000000E+00  0.45593999997E+02  0.45594000000E+02  0.51100000000E-03 0. -1.
         11   -1    0    0    0    0 -0.00000000000E+00 -0.00000000000E+00 -0.45593999997E+02  0.45594000000E+02  0.51100000000E-03 0.  1.
    9900012    2    1    2    0    0  0.92188588239E+00 -0.34122389126E+00  0.65321868575E+00  0.90007744953E+02  0.90000006387E+02 0.  0.
         12    1    1    2    0    0 -0.92188588239E+00  0.34122389126E+00 -0.65321868575E+00  0.11802550468E+01  0.00000000000E+00 0. -1.
         11    1    3    3    0    0 -0.31417393108E+02 -0.42832497962E+01  0.11243930280E+02  0.33642603748E+02  0.51100000000E-03 0. -1.
        -11    1    3    3    0    0 -0.61876575365E+01 -0.97199009111E+01 -0.10347944531E+02  0.15486882701E+02  0.51100000000E-03 0.  1.
        -12    1    3    3    0    0  0.38526936527E+02  0.13661926816E+02 -0.24276706286E+00  0.40878258504E+02  0.00000000000E+00 0.  1.
</event>
<event>
 7    1  0.2755850E-015  0.9000742E+02  0.7816164E-02  0.1186340E+00
        -11   -1    0    0    0    0  0.00000000000E+00  0.00000000000E+00  0.45593999997E+02  0.45594000000E+02  0.51100000000E-03 0.  1.
         11   -1    0    0    0    0 -0.00000000000E+00 -0.00000000000E+00 -0.45593999997E+02  0.45594000000E+02  0.51100000000E-03 0. -1.
    9900012    2    1    2    0    0 -0.70869358624E+00 -0.78919461383E+00  0.51836431261E+00  0.90007416967E+02  0.89999674070E+02 0.  0.
         12    1    1    2    0    0  0.70869358624E+00  0.78919461383E+00 -0.51836431261E+00  0.11805830332E+01  0.00000000000E+00 0. -1.
         11    1    3    3    0    0 -0.85584647423E+01  0.17952077989E+01 -0.36089118165E+02  0.37133469269E+02  0.51100000000E-03 0. -1.
        -11    1    3    3    0    0  0.62979530923E+01  0.30559877580E+01 -0.63913106284E+01  0.94790361399E+01  0.51100000000E-03 0.  1.
        -12    1    3    3    0    0  0.15518180637E+01 -0.56403901707E+01  0.42998793106E+02  0.43394911558E+02  0.00000000000E+00 0.  1.
</event>
<event>
 7    1  0.1971192E-015  0.9000686E+02  0.7816164E-02  0.1186341E+00
        -11   -1    0    0    0    0  0.00000000000E+00  0.00000000000E+00  0.45593999997E+02  0.45594000000E+02  0.51100000000E-03 0.  1.
         11   -1    0    0    0    0 -0.00000000000E+00 -0.00000000000E+00 -0.45593999997E+02  0.45594000000E+02  0.51100000000E-03 0. -1.
    9900012    2    1    2    0    0 -0.10472791755E+01 -0.18385526994E+00  0.51428296203E+00  0.90006863515E+02  0.89999113309E+02 0.  0.
         12    1    1    2    0    0  0.10472791755E+01  0.18385526994E+00 -0.51428296203E+00  0.11811364852E+01  0.00000000000E+00 0. -1.
         11    1    3    3    0    0 -0.97908046555E+01 -0.62029284562E+01  0.14244160874E+02  0.18363885659E+02  0.51100000000E-03 0. -1.
        -11    1    3    3    0    0  0.23382572253E+01  0.12968955814E+02  0.26886005104E+02  0.29941919318E+02  0.51100000000E-03 0.  1.
         12    1    3    3    0    0  0.64052682547E+01 -0.69498826280E+01 -0.40615883016E+02  0.41701058537E+02  0.00000000000E+00 0. -1.
</event>
<event>
 7    1  0.1971192E-015  0.9000788E+02  0.7816164E-02  0.1186339E+00
        -11   -1    0    0    0    0  0.00000000000E+00  0.00000000000E+00  0.45593999997E+02  0.45594000000E+02  0.51100000000E-03 0. -1.
         11   -1    0    0    0    0 -0.00000000000E+00 -0.00000000000E+00 -0.45593999997E+02  0.45594000000E+02  0.51100000000E-03 0.  1.
    9900012    2    1    2    0    0  0.84393316452E+00 -0.69710808104E+00 -0.44101801251E+00  0.90007881468E+02  0.90000144703E+02 0.  0.
         12    1    1    2    0    0 -0.84393316452E+00  0.69710808104E+00  0.44101801251E+00  0.11801185323E+01  0.00000000000E+00 0. -1.
         11    1    3    3    0    0  0.16831452567E+02  0.34789032535E+02 -0.10552317333E+02  0.40061527450E+02  0.51100000000E-03 0. -1.
        -11    1    3    3    0    0  0.67084445399E+01 -0.44708218989E+01 -0.40070706897E+01  0.90026714018E+01  0.51100000000E-03 0.  1.
        -12    1    3    3    0    0 -0.22695963943E+02 -0.31015318717E+02  0.14118370010E+02  0.40943682616E+02  0.00000000000E+00 0.  1.
</event>
<event>
 7    1  0.1971192E-015  0.9000776E+02  0.7816164E-02  0.1186339E+00
        -11   -1    0    0    0    0  0.00000000000E+00  0.00000000000E+00  0.45593999997E+02  0.45594000000E+02  0.51100000000E-03 0. -1.
         11   -1    0    0    0    0 -0.00000000000E+00 -0.00000000000E+00 -0.45593999997E+02  0.45594000000E+02  0.51100000000E-03 0.  1.
    9900012    2    1    2    0    0 -0.69569426586E-01  0.96844581652E+00 -0.67100328161E+00  0.90007757394E+02  0.90000018992E+02 0.  0.
         12    1    1    2    0    0  0.69569426586E-01 -0.96844581652E+00  0.67100328161E+00  0.11802426058E+01  0.00000000000E+00 0. -1.
         11    1    3    3    0    0  0.16440732821E+01  0.36023786697E+01 -0.88578582038E+01  0.97026677392E+01  0.51100000000E-03 0. -1.
        -11    1    3    3    0    0 -0.30493031714E+02 -0.12068426398E+02 -0.20430003143E+02  0.38637506746E+02  0.51100000000E-03 0.  1.
         12    1    3    3    0    0  0.28779389005E+02  0.94344935453E+01  0.28616858065E+02  0.41667582909E+02  0.00000000000E+00 0. -1.
</event>
<event>
 7    1  0.1971192E-015  0.9000773E+02  0.7816164E-02  0.1186339E+00
        -11   -1    0    0    0    0  0.00000000000E+00  0.00000000000E+00  0.45593999997E+02  0.45594000000E+02  0.51100000000E-03 0.  1.
         11   -1    0    0    0    0 -0.00000000000E+00 -0.00000000000E+00 -0.45593999997E+02  0.45594000000E+02  0.51100000000E-03 0. -1.
    9900012    2    1    2    0    0  0.23809444395E+00  0.39647069783E+00  0.10858962336E+01  0.90007725198E+02  0.89999986370E+02 0.  0.
         12    1    1    2    0    0 -0.23809444395E+00 -0.39647069783E+00 -0.10858962336E+01  0.11802748022E+01  0.00000000000E+00 0. -1.
         11    1    3    3    0    0  0.24271193799E+02  0.14444258924E+02 -0.25993665753E+02  0.38384868423E+02  0.51100000000E-03 0. -1.
        -11    1    3    3    0    0  0.79152334229E+01  0.18011639941E+01  0.68488419681E+01  0.10620816750E+02  0.51100000000E-03 0.  1.
        -12    1    3    3    0    0 -0.31948332778E+02 -0.15848952220E+02  0.20230720019E+02  0.41002040025E+02  0.00000000000E+00 0.  1.
</event>
<event>
 7    1  0.1971192E-015  0.9000774E+02  0.7816164E-02  0.1186339E+00
        -11   -1    0    0    0    0  0.00000000000E+00  0.00000000000E+00  0.45593999997E+02  0.45594000000E+02  0.51100000000E-03 0.  1.
         11   -1    0    0    0    0 -0.00000000000E+00 -0.00000000000E+00 -0.45593999997E+02  0.45594000000E+02  0.51100000000E-03 0. -1.
    9900012    2    1    2    0    0  0.84363121714E+00  0.67031066606E+00  0.48164400848E+00  0.90007741143E+02  0.90000002526E+02 0.  0.
         12    1    1    2    0    0 -0.84363121714E+00 -0.67031066606E+00 -0.48164400848E+00  0.11802588574E+01  0.00000000000E+00 0. -1.
         11    1    3    3    0    0  0.34283833868E+01  0.33924870333E+01 -0.59941947501E+00  0.48602556400E+01  0.51100000000E-03 0. -1.
        -11    1    3    3    0    0  0.40609437414E+02  0.60173332062E+01  0.14043800316E+01  0.41076842497E+02  0.51100000000E-03 0.  1.
         12    1    3    3    0    0 -0.43194189583E+02 -0.87395095735E+01 -0.32331654813E+00  0.44070643006E+02  0.00000000000E+00 0. -1.
</event>
<event>
 7    1  0.1971192E-015  0.9000768E+02  0.7816164E-02  0.1186339E+00
        -11   -1    0    0    0    0  0.00000000000E+00  0.00000000000E+00  0.45593999997E+02  0.45594000000E+02  0.51100000000E-03 0. -1.
         11   -1    0    0    0    0 -0.00000000000E+00 -0.00000000000E+00 -0.45593999997E+02  0.45594000000E+02  0.51100000000E-03 0.  1.
    9900012    2    1    2    0    0 -0.55689361904E+00  0.78592151700E+00 -0.68216966803E+00  0.90007678607E+02  0.89999939165E+02 0.  0.
         12    1    1    2    0    0  0.55689361904E+00 -0.78592151700E+00  0.68216966803E+00  0.11803213926E+01  0.00000000000E+00 0. -1.
         11    1    3    3    0    0 -0.11372238314E+02  0.58797173969E+00  0.85806635061E+00  0.11419710730E+02  0.51100000000E-03 0. -1.
        -11    1    3    3    0    0 -0.13503996127E+01 -0.37873487763E+02  0.45087946268E+01  0.38164825215E+02  0.51100000000E-03 0.  1.
         12    1    3    3    0    0  0.12165744308E+02  0.38071437540E+02 -0.60490306454E+01  0.40423142662E+02  0.00000000000E+00 0. -1.
</event>
<event>
 7    1  0.1971192E-015  0.9000780E+02  0.7816164E-02  0.1186339E+00
        -11   -1    0    0    0    0  0.00000000000E+00  0.00000000000E+00  0.45593999997E+02  0.45594000000E+02  0.51100000000E-03 0. -1.
         11   -1    0    0    0    0 -0.00000000000E+00 -0.00000000000E+00 -0.45593999997E+02  0.45594000000E+02  0.51100000000E-03 0.  1.
    9900012    2    1    2    0    0  0.11463625575E+01 -0.71843198471E-01 -0.27123237836E+00  0.90007798508E+02  0.90000060648E+02 0.  0.
         12    1    1    2    0    0 -0.11463625575E+01  0.71843198471E-01  0.27123237836E+00  0.11802014919E+01  0.00000000000E+00 0. -1.
         11    1    3    3    0    0 -0.16480919452E+02  0.35568111698E+02 -0.24944058333E+01  0.39280190128E+02  0.51100000000E-03 0. -1.
        -11    1    3    3    0    0  0.51095199608E+01 -0.41735802156E+00  0.11170672280E+02  0.12290862517E+02  0.51100000000E-03 0.  1.
        -12    1    3    3    0    0  0.12517762049E+02 -0.35222596875E+02 -0.89474988253E+01  0.38436745864E+02  0.00000000000E+00 0.  1.
</event>
<event>
 7    1  0.1971192E-015  0.9000769E+02  0.7816164E-02  0.1186339E+00
        -11   -1    0    0    0    0  0.00000000000E+00  0.00000000000E+00  0.45593999997E+02  0.45594000000E+02  0.51100000000E-03 0. -1.
         11   -1    0    0    0    0 -0.00000000000E+00 -0.00000000000E+00 -0.45593999997E+02  0.45594000000E+02  0.51100000000E-03 0.  1.
    9900012    2    1    2    0    0  0.15189195901E+00 -0.78804023657E+00 -0.86548208520E+00  0.90007687405E+02  0.89999948079E+02 0.  0.
         12    1    1    2    0    0 -0.15189195901E+00  0.78804023657E+00  0.86548208520E+00  0.11803125948E+01  0.00000000000E+00 0. -1.
         11    1    3    3    0    0 -0.17533836444E+01 -0.79754544551E+01 -0.59200644434E+01  0.10086098911E+02  0.51100000000E-03 0. -1.
        -11    1    3    3    0    0  0.85013542902E+01 -0.33499087113E+02  0.14753244828E+02  0.37578186430E+02  0.51100000000E-03 0.  1.
         12    1    3    3    0    0 -0.65960786867E+01  0.40686501332E+02 -0.96986624696E+01  0.42343402064E+02  0.00000000000E+00 0. -1.
</event>
<event>
 7    1  0.1971192E-015  0.9000772E+02  0.7816164E-02  0.1186339E+00
        -11   -1    0    0    0    0  0.00000000000E+00  0.00000000000E+00  0.45593999997E+02  0.45594000000E+02  0.51100000000E-03 0. -1.
         11   -1    0    0    0    0 -0.00000000000E+00 -0.00000000000E+00 -0.45593999997E+02  0.45594000000E+02  0.51100000000E-03 0.  1.
    9900012    2    1    2    0    0 -0.70385243490E+00  0.92173489226E+00 -0.21920259744E+00  0.90007723236E+02  0.89999984382E+02 0.  0.
         12    1    1    2    0    0  0.70385243490E+00 -0.92173489226E+00  0.21920259744E+00  0.11802767643E+01  0.00000000000E+00 0. -1.
         11    1    3    3    0    0  0.62628682249E+01  0.69548916098E+01  0.15691996045E+02  0.18271091261E+02  0.51100000000E-03 0.  1.
        -11    1    3    3    0    0 -0.80447480251E+01  0.43832894950E+01  0.26506662844E+02  0.28045220144E+02  0.51100000000E-03 0. -1.
        -12    1    3    3    0    0  0.10780273654E+01 -0.10416446213E+02 -0.42417861486E+02  0.43691411831E+02  0.00000000000E+00 0.  1.
</event>
<event>
 7    1  0.1971192E-015  0.9000781E+02  0.7816164E-02  0.1186339E+00
        -11   -1    0    0    0    0  0.00000000000E+00  0.00000000000E+00  0.45593999997E+02  0.45594000000E+02  0.51100000000E-03 0.  1.
         11   -1    0    0    0    0 -0.00000000000E+00 -0.00000000000E+00 -0.45593999997E+02  0.45594000000E+02  0.51100000000E-03 0. -1.
    9900012    2    1    2    0    0 -0.18275622209E+00  0.10541146428E+01  0.49828974011E+00  0.90007809260E+02  0.90000071543E+02 0.  0.
         12    1    1    2    0    0  0.18275622209E+00 -0.10541146428E+01 -0.49828974011E+00  0.11801907396E+01  0.00000000000E+00 0. -1.
         11    1    3    3    0    0 -0.29921247369E+01  0.11917193676E+01  0.26500510320E+01  0.41708244060E+01  0.51100000000E-03 0. -1.
        -11    1    3    3    0    0 -0.28947625745E+02 -0.14441728458E+02  0.25639427302E+02  0.41278430079E+02  0.51100000000E-03 0.  1.
         12    1    3    3    0    0  0.31756994260E+02  0.14304123734E+02 -0.27791188594E+02  0.44558554775E+02  0.00000000000E+00 0. -1.
</event>
<event>
 7    1  0.1971192E-015  0.9000773E+02  0.7816164E-02  0.1186339E+00
        -11   -1    0    0    0    0  0.00000000000E+00  0.00000000000E+00  0.45593999997E+02  0.45594000000E+02  0.51100000000E-03 0.  1.
         11   -1    0    0    0    0 -0.00000000000E+00 -0.00000000000E+00 -0.45593999997E+02  0.45594000000E+02  0.51100000000E-03 0. -1.
    9900012    2    1    2    0    0 -0.19156658692E+00 -0.80544547280E+00  0.84118500470E+00  0.90007732073E+02  0.89999993337E+02 0.  0.
         12    1    1    2    0    0  0.19156658692E+00  0.80544547280E+00 -0.84118500470E+00  0.11802679268E+01  0.00000000000E+00 0. -1.
         11    1    3    3    0    0 -0.83582579707E+01  0.20516843071E+02 -0.29725248680E+02  0.37072789688E+02  0.51100000000E-03 0. -1.
        -11    1    3    3    0    0 -0.62049998387E+01  0.77348129278E+01  0.29396006394E+01  0.10342659533E+02  0.51100000000E-03 0.  1.
        -12    1    3    3    0    0  0.14371691223E+02 -0.29057101471E+02  0.27626833045E+02  0.42592282853E+02  0.00000000000E+00 0.  1.
</event>
<event>
 7    1  0.1971192E-015  0.9000786E+02  0.7816164E-02  0.1186339E+00
        -11   -1    0    0    0    0  0.00000000000E+00  0.00000000000E+00  0.45593999997E+02  0.45594000000E+02  0.51100000000E-03 0.  1.
         11   -1    0    0    0    0 -0.00000000000E+00 -0.00000000000E+00 -0.45593999997E+02  0.45594000000E+02  0.51100000000E-03 0. -1.
    9900012    2    1    2    0    0  0.10232977805E+01 -0.36362802355E+00 -0.46191507649E+00  0.90007860506E+02  0.90000123465E+02 0.  0.
         12    1    1    2    0    0 -0.10232977805E+01  0.36362802355E+00  0.46191507649E+00  0.11801394939E+01  0.00000000000E+00 0. -1.
         11    1    3    3    0    0  0.26651005274E+02  0.14558027130E+02 -0.30707444842E+02  0.43187491303E+02  0.51100000000E-03 0. -1.
        -11    1    3    3    0    0 -0.18287547726E+01  0.44735978048E+01  0.59716293794E+01  0.76823029778E+01  0.51100000000E-03 0.  1.
        -12    1    3    3    0    0 -0.23798952721E+02 -0.19395252958E+02  0.24273900386E+02  0.39138066226E+02  0.00000000000E+00 0.  1.
</event>
<event>
 7    1  0.1971192E-015  0.9000780E+02  0.7816164E-02  0.1186339E+00
        -11   -1    0    0    0    0  0.00000000000E+00  0.00000000000E+00  0.45593999997E+02  0.45594000000E+02  0.51100000000E-03 0.  1.
         11   -1    0    0    0    0 -0.00000000000E+00 -0.00000000000E+00 -0.45593999997E+02  0.45594000000E+02  0.51100000000E-03 0. -1.
    9900012    2    1    2    0    0  0.96010885157E+00 -0.18005184383E+00  0.66230891713E+00  0.90007796299E+02  0.90000058410E+02 0.  0.
         12    1    1    2    0    0 -0.96010885157E+00  0.18005184383E+00 -0.66230891713E+00  0.11802037007E+01  0.00000000000E+00 0. -1.
         11    1    3    3    0    0  0.34230014870E+01 -0.28291652137E+02 -0.18352813102E+02  0.33896316449E+02  0.51100000000E-03 0. -1.
        -11    1    3    3    0    0  0.63260953055E+01 -0.90667243143E+01 -0.37086594584E+01  0.11661008826E+02  0.51100000000E-03 0.  1.
        -12    1    3    3    0    0 -0.87889879409E+01  0.37178324607E+02  0.22723781477E+02  0.44450471024E+02  0.00000000000E+00 0.  1.
</event>
<event>
 7    1  0.1971192E-015  0.9000759E+02  0.7816164E-02  0.1186339E+00
        -11   -1    0    0    0    0  0.00000000000E+00  0.00000000000E+00  0.45593999997E+02  0.45594000000E+02  0.51100000000E-03 0. -1.
         11   -1    0    0    0    0 -0.00000000000E+00 -0.00000000000E+00 -0.45593999997E+02  0.45594000000E+02  0.51100000000E-03 0.  1.
    9900012    2    1    2    0    0  0.78883972119E+00  0.72811550196E-01 -0.87510414823E+00  0.90007586133E+02  0.89999845470E+02 0.  0.
         12    1    1    2    0    0 -0.78883972119E+00 -0.72811550196E-01  0.87510414823E+00  0.11804138672E+01  0.00000000000E+00 0. -1.
         11    1    3    3    0    0  0.36947397392E+01  0.85869843379E+01  0.10634699879E+01  0.94084201881E+01  0.51100000000E-03 0. -1.
        -11    1    3    3    0    0  0.32860285293E+02  0.15828510498E+02 -0.66644042077E+01  0.37077680319E+02  0.51100000000E-03 0.  1.
         12    1    3    3    0    0 -0.35766185311E+02 -0.24342683285E+02  0.47258300716E+01  0.43521485626E+02  0.00000000000E+00 0. -1.
</event>
<event>
 7    1  0.1971192E-015  0.9000759E+02  0.7816164E-02  0.1186339E+00
        -11   -1    0    0    0    0  0.00000000000E+00  0.00000000000E+00  0.45593999997E+02  0.45594000000E+02  0.51100000000E-03 0.  1.
         11   -1    0    0    0    0 -0.00000000000E+00 -0.00000000000E+00 -0.45593999997E+02  0.45594000000E+02  0.51100000000E-03 0. -1.
    9900012    2    1    2    0    0  0.74932611209E+00 -0.18805638925E+00  0.89247685515E+00  0.90007589154E+02  0.89999848531E+02 0.  0.
         12    1    1    2    0    0 -0.74932611209E+00  0.18805638925E+00 -0.89247685515E+00  0.11804108458E+01  0.00000000000E+00 0. -1.
         11    1    3    3    0    0  0.19393490230E+02 -0.35893435586E+02  0.47066464483E+01  0.41068220104E+02  0.51100000000E-03 0. -1.
        -11    1    3    3    0    0 -0.86324512322E+01 -0.22186866761E+01  0.23912422881E+01  0.92282081026E+01  0.51100000000E-03 0.  1.
        -12    1    3    3    0    0 -0.10011712886E+02  0.37924065873E+02 -0.62054118812E+01  0.39711160948E+02  0.00000000000E+00 0.  1.
</event>
<event>
 7    1  0.1971192E-015  0.9000783E+02  0.7816164E-02  0.1186339E+00
        -11   -1    0    0    0    0  0.00000000000E+00  0.00000000000E+00  0.45593999997E+02  0.45594000000E+02  0.51100000000E-03 0.  1.
         11   -1    0    0    0    0 -0.00000000000E+00 -0.00000000000E+00 -0.45593999997E+02  0.45594000000E+02  0.51100000000E-03 0. -1.
    9900012    2    1    2    0    0  0.38910368019E+00 -0.10205752719E+01  0.44701976022E+00  0.90007829578E+02  0.90000092128E+02 0.  0.
         12    1    1    2    0    0 -0.38910368019E+00  0.10205752719E+01 -0.44701976022E+00  0.11801704223E+01  0.00000000000E+00 0. -1.
         11    1    3    3    0    0  0.28967898329E+02  0.19580439611E+02  0.16157420165E+02  0.38517463255E+02  0.51100000000E-03 0. -1.
        -11    1    3    3    0    0  0.79585712485E+01 -0.36770332088E+01 -0.29653929402E+01  0.92548897934E+01  0.51100000000E-03 0.  1.
        -12    1    3    3    0    0 -0.36537365897E+02 -0.16923981674E+02 -0.12745007464E+02  0.42235476530E+02  0.00000000000E+00 0.  1.
</event>
<event>
 7    1  0.1971192E-015  0.9000771E+02  0.7816164E-02  0.1186339E+00
        -11   -1    0    0    0    0  0.00000000000E+00  0.00000000000E+00  0.45593999997E+02  0.45594000000E+02  0.51100000000E-03 0. -1.
         11   -1    0    0    0    0 -0.00000000000E+00 -0.00000000000E+00 -0.45593999997E+02  0.45594000000E+02  0.51100000000E-03 0.  1.
    9900012    2    1    2    0    0  0.63613045405E+00 -0.15889911525E+00 -0.98141980721E+00  0.90007705240E+02  0.89999966149E+02 0.  0.
         12    1    1    2    0    0 -0.63613045405E+00  0.15889911525E+00  0.98141980721E+00  0.11802947604E+01  0.00000000000E+00 0. -1.
         11    1    3    3    0    0  0.30751937870E+02  0.24379273103E+02 -0.71700468899E+01  0.39892859166E+02  0.51100000000E-03 0. -1.
        -11    1    3    3    0    0  0.30480137955E+01 -0.37987483282E+01 -0.72689523577E+01  0.87497740313E+01  0.51100000000E-03 0.  1.
        -12    1    3    3    0    0 -0.33163821212E+02 -0.20739423890E+02  0.13457579440E+02  0.41365072042E+02  0.00000000000E+00 0.  1.
</event>
<event>
 7    1  0.1971192E-015  0.9000766E+02  0.7816164E-02  0.1186339E+00
        -11   -1    0    0    0    0  0.00000000000E+00  0.00000000000E+00  0.45593999997E+02  0.45594000000E+02  0.51100000000E-03 0.  1.
         11   -1    0    0    0    0 -0.00000000000E+00 -0.00000000000E+00 -0.45593999997E+02  0.45594000000E+02  0.51100000000E-03 0. -1.
    9900012    2    1    2    0    0  0.10674157309E+01  0.23016015722E+00  0.44816286198E+00  0.90007661069E+02  0.89999921395E+02 0.  0.
         12    1    1    2    0    0 -0.10674157309E+01 -0.23016015722E+00 -0.44816286198E+00  0.11803389307E+01  0.00000000000E+00 0. -1.
         11    1    3    3    0    0 -0.17352045564E+02 -0.32905852616E+02  0.14893976970E+02  0.40071425878E+02  0.51100000000E-03 0. -1.
        -11    1    3    3    0    0 -0.26202487008E+01  0.55633586954E+01  0.68748822608E+01  0.92239183425E+01  0.51100000000E-03 0.  1.
        -12    1    3    3    0    0  0.21039709996E+02  0.27572654077E+02 -0.21320696369E+02  0.40712316849E+02  0.00000000000E+00 0.  1.
</event>
<event>
 7    1  0.1971192E-015  0.9000785E+02  0.7816164E-02  0.1186339E+00
        -11   -1    0    0    0    0  0.00000000000E+00  0.00000000000E+00  0.45593999997E+02  0.45594000000E+02  0.51100000000E-03 0. -1.
         11   -1    0    0    0    0 -0.00000000000E+00 -0.00000000000E+00 -0.45593999997E+02  0.45594000000E+02  0.51100000000E-03 0.  1.
    9900012    2    1    2    0    0  0.35429735131E+00  0.93502412897E+00 -0.62685627502E+00  0.90007853600E+02  0.90000116468E+02 0.  0.
         12    1    1    2    0    0 -0.35429735131E+00 -0.93502412897E+00  0.62685627502E+00  0.11801463996E+01  0.00000000000E+00 0. -1.
         11    1    3    3    0    0  0.28312248196E+01  0.91760534396E+01  0.33008112081E+02  0.34376609113E+02  0.51100000000E-03 0. -1.
        -11    1    3    3    0    0 -0.84326499047E+00 -0.54948475058E+01  0.10233803963E+02  0.11646252134E+02  0.51100000000E-03 0.  1.
        -12    1    3    3    0    0 -0.16336624778E+01 -0.27461818048E+01 -0.43868772319E+02  0.43984992354E+02  0.00000000000E+00 0.  1.
</event>
<event>
 7    1  0.1971192E-015  0.9000779E+02  0.7816164E-02  0.1186339E+00
        -11   -1    0    0    0    0  0.00000000000E+00  0.00000000000E+00  0.45593999997E+02  0.45594000000E+02  0.51100000000E-03 0. -1.
         11   -1    0    0    0    0 -0.00000000000E+00 -0.00000000000E+00 -0.45593999997E+02  0.45594000000E+02  0.51100000000E-03 0.  1.
    9900012    2    1    2    0    0  0.56436333676E+00 -0.78690924337E+00 -0.67466559675E+00  0.90007785697E+02  0.90000047668E+02 0.  0.
         12    1    1    2    0    0 -0.56436333676E+00  0.78690924337E+00  0.67466559675E+00  0.11802143028E+01  0.00000000000E+00 0. -1.
         11    1    3    3    0    0 -0.38589862112E+01 -0.35812803963E+02 -0.22410176512E+01  0.36089761189E+02  0.51100000000E-03 0. -1.
        -11    1    3    3    0    0 -0.19669710117E+01 -0.65835109889E+01 -0.82045726394E+01  0.10701710347E+02  0.51100000000E-03 0.  1.
        -12    1    3    3    0    0  0.63903205597E+01  0.41609405709E+02  0.97709246939E+01  0.43216314161E+02  0.00000000000E+00 0.  1.
</event>
<event>
 7    1  0.1971192E-015  0.9000760E+02  0.7816164E-02  0.1186339E+00
        -11   -1    0    0    0    0  0.00000000000E+00  0.00000000000E+00  0.45593999997E+02  0.45594000000E+02  0.51100000000E-03 0. -1.
         11   -1    0    0    0    0 -0.00000000000E+00 -0.00000000000E+00 -0.45593999997E+02  0.45594000000E+02  0.51100000000E-03 0.  1.
    9900012    2    1    2    0    0  0.77997271121E+00 -0.60988026311E+00 -0.64267399129E+00  0.90007601243E+02  0.89999860780E+02 0.  0.
         12    1    1    2    0    0 -0.77997271121E+00  0.60988026311E+00  0.64267399129E+00  0.11803987566E+01  0.00000000000E+00 0. -1.
         11    1    3    3    0    0 -0.11547818974E+02 -0.32119881684E+02  0.11734701093E+02  0.36093519259E+02  0.51100000000E-03 0. -1.
        -11    1    3    3    0    0 -0.64730258316E+01 -0.67393507416E+01  0.59495583475E+00  0.93633799742E+01  0.51100000000E-03 0.  1.
        -12    1    3    3    0    0  0.18800817517E+02  0.38249352162E+02 -0.12972330919E+02  0.44550702011E+02  0.00000000000E+00 0.  1.
</event>
<event>
 7    1  0.1971192E-015  0.9000767E+02  0.7816164E-02  0.1186339E+00
        -11   -1    0    0    0    0  0.00000000000E+00  0.00000000000E+00  0.45593999997E+02  0.45594000000E+02  0.51100000000E-03 0. -1.
         11   -1    0    0    0    0 -0.00000000000E+00 -0.00000000000E+00 -0.45593999997E+02  0.45594000000E+02  0.51100000000E-03 0.  1.
    9900012    2    1    2    0    0  0.10965852461E+01 -0.19333590008E+00  0.39155168835E+00  0.90007665007E+02  0.89999925385E+02 0.  0.
         12    1    1    2    0    0 -0.10965852461E+01  0.19333590008E+00 -0.39155168835E+00  0.11803349935E+01  0.00000000000E+00 0. -1.
         11    1    3    3    0    0 -0.28835367165E+01  0.34452148238E+01  0.74349742775E+01  0.86869518214E+01  0.51100000000E-03 0. -1.
        -11    1    3    3    0    0  0.55702468624E+01  0.37864936224E+02 -0.10373827131E+02  0.39653465611E+02  0.51100000000E-03 0.  1.
         12    1    3    3    0    0 -0.15901248998E+01 -0.41503486948E+02  0.33304045421E+01  0.41667247574E+02  0.00000000000E+00 0. -1.
</event>
<event>
 7    1  0.1971192E-015  0.9000775E+02  0.7816164E-02  0.1186339E+00
        -11   -1    0    0    0    0  0.00000000000E+00  0.00000000000E+00  0.45593999997E+02  0.45594000000E+02  0.51100000000E-03 0.  1.
         11   -1    0    0    0    0 -0.00000000000E+00 -0.00000000000E+00 -0.45593999997E+02  0.45594000000E+02  0.51100000000E-03 0. -1.
    9900012    2    1    2    0    0  0.31182156748E+00  0.83575286666E+00  0.77283437271E+00  0.90007750657E+02  0.90000012166E+02 0.  0.
         12    1    1    2    0    0 -0.31182156748E+00 -0.83575286666E+00 -0.77283437271E+00  0.11802493430E+01  0.00000000000E+00 0. -1.
         11    1    3    3    0    0  0.27338965368E+02 -0.23254719544E+02 -0.12530788998E+02  0.38016071360E+02  0.51100000000E-03 0. -1.
        -11    1    3    3    0    0 -0.25027674208E+01 -0.77062693417E+01  0.81746273055E+01  0.11509776878E+02  0.51100000000E-03 0.  1.
        -12    1    3    3    0    0 -0.24524376379E+02  0.31796741753E+02  0.51289960649E+01  0.40481902420E+02  0.00000000000E+00 0.  1.
</event>
<event>
 7    1  0.1971192E-015  0.9000767E+02  0.7816164E-02  0.1186339E+00
        -11   -1    0    0    0    0  0.00000000000E+00  0.00000000000E+00  0.45593999997E+02  0.45594000000E+02  0.51100000000E-03 0.  1.
         11   -1    0    0    0    0 -0.00000000000E+00 -0.00000000000E+00 -0.45593999997E+02  0.45594000000E+02  0.51100000000E-03 0. -1.
    9900012    2    1    2    0    0  0.39207127811E+00 -0.75819593536E+00 -0.81522721481E+00  0.90007671073E+02  0.89999931531E+02 0.  0.
         12    1    1    2    0    0 -0.39207127811E+00  0.75819593536E+00  0.81522721481E+00  0.11803289267E+01  0.00000000000E+00 0. -1.
         11    1    3    3    0    0  0.34619180174E+02 -0.15321114162E+02 -0.16112350544E+00  0.37858290190E+02  0.51100000000E-03 0. -1.
        -11    1    3    3    0    0 -0.46911204226E+01 -0.10665985443E+02  0.53890611851E+01  0.12837906255E+02  0.51100000000E-03 0.  1.
        -12    1    3    3    0    0 -0.29535988473E+02  0.25228903670E+02 -0.60431648945E+01  0.39311474628E+02  0.00000000000E+00 0.  1.
</event>
<event>
 7    1  0.1971192E-015  0.9000785E+02  0.7816164E-02  0.1186339E+00
        -11   -1    0    0    0    0  0.00000000000E+00  0.00000000000E+00  0.45593999997E+02  0.45594000000E+02  0.51100000000E-03 0. -1.
         11   -1    0    0    0    0 -0.00000000000E+00 -0.00000000000E+00 -0.45593999997E+02  0.45594000000E+02  0.51100000000E-03 0.  1.
    9900012    2    1    2    0    0 -0.89857065328E+00  0.17506080329E+00  0.74477317337E+00  0.90007846373E+02  0.90000109145E+02 0.  0.
         12    1    1    2    0    0  0.89857065328E+00 -0.17506080329E+00 -0.74477317337E+00  0.11801536271E+01  0.00000000000E+00 0. -1.
         11    1    3    3    0    0 -0.24071687202E+02 -0.27688599922E+02 -0.16597143612E+02  0.40268720699E+02  0.51100000000E-03 0. -1.
        -11    1    3    3    0    0  0.44272593140E+01 -0.44021799887E+01 -0.33340346685E+01  0.70778246035E+01  0.51100000000E-03 0.  1.
        -12    1    3    3    0    0  0.18745857235E+02  0.32265840714E+02  0.20675951454E+02  0.42661301070E+02  0.00000000000E+00 0.  1.
</event>
<event>
 7    1  0.1971192E-015  0.9000772E+02  0.7816164E-02  0.1186339E+00
        -11   -1    0    0    0    0  0.00000000000E+00  0.00000000000E+00  0.45593999997E+02  0.45594000000E+02  0.51100000000E-03 0. -1.
         11   -1    0    0    0    0 -0.00000000000E+00 -0.00000000000E+00 -0.45593999997E+02  0.45594000000E+02  0.51100000000E-03 0.  1.
    9900012    2    1    2    0    0  0.11326657391E+01  0.29087710079E+00  0.15974906728E+00  0.90007719979E+02  0.89999981082E+02 0.  0.
         12    1    1    2    0    0 -0.11326657391E+01 -0.29087710079E+00 -0.15974906728E+00  0.11802800214E+01  0.00000000000E+00 0. -1.
         11    1    3    3    0    0 -0.39060720814E+01 -0.21143343134E+02  0.36807865928E+02  0.42627659476E+02  0.51100000000E-03 0. -1.
        -11    1    3    3    0    0  0.80010719567E+01  0.30093456653E+01 -0.32953065334E+01  0.91614605385E+01  0.51100000000E-03 0.  1.
        -12    1    3    3    0    0 -0.29623341361E+01  0.18424874570E+02 -0.33352810328E+02  0.38218599964E+02  0.00000000000E+00 0.  1.
</event>
<event>
 7    1  0.1971192E-015  0.9000772E+02  0.7816164E-02  0.1186339E+00
        -11   -1    0    0    0    0  0.00000000000E+00  0.00000000000E+00  0.45593999997E+02  0.45594000000E+02  0.51100000000E-03 0.  1.
         11   -1    0    0    0    0 -0.00000000000E+00 -0.00000000000E+00 -0.45593999997E+02  0.45594000000E+02  0.51100000000E-03 0. -1.
    9900012    2    1    2    0    0  0.38342525176E+00 -0.64867441679E+00  0.90843951678E+00  0.90007722161E+02  0.89999983293E+02 0.  0.
         12    1    1    2    0    0 -0.38342525176E+00  0.64867441679E+00 -0.90843951678E+00  0.11802778395E+01  0.00000000000E+00 0. -1.
         11    1    3    3    0    0 -0.32147756921E+02 -0.91944257792E+01 -0.21227961716E+02  0.39606086645E+02  0.51100000000E-03 0. -1.
        -11    1    3    3    0    0 -0.34365626286E+01  0.85618948602E+01  0.32860664491E+01  0.97935815341E+01  0.51100000000E-03 0.  1.
        -12    1    3    3    0    0  0.35967744801E+02 -0.16143497716E-01  0.18850334784E+02  0.40608053981E+02  0.00000000000E+00 0.  1.
</event>
<event>
 7    1  0.1971192E-015  0.9000768E+02  0.7816164E-02  0.1186339E+00
        -11   -1    0    0    0    0  0.00000000000E+00  0.00000000000E+00  0.45593999997E+02  0.45594000000E+02  0.51100000000E-03 0.  1.
         11   -1    0    0    0    0 -0.00000000000E+00 -0.00000000000E+00 -0.45593999997E+02  0.45594000000E+02  0.51100000000E-03 0. -1.
    9900012    2    1    2    0    0 -0.72354349766E+00 -0.33424395469E+00  0.87058465526E+00  0.90007681460E+02  0.89999942055E+02 0.  0.
         12    1    1    2    0    0  0.72354349766E+00  0.33424395469E+00 -0.87058465526E+00  0.11803185402E+01  0.00000000000E+00 0. -1.
         11    1    3    3    0    0  0.78515440459E+01 -0.65147325679E+01 -0.90478022001E+01  0.13636392824E+02  0.51100000000E-03 0. -1.
        -11    1    3    3    0    0 -0.28405294870E+02 -0.24080885466E+02  0.14376261311E+02  0.39917749323E+02  0.51100000000E-03 0.  1.
         12    1    3    3    0    0  0.19830207327E+02  0.30261374079E+02 -0.44578744552E+01  0.36453539313E+02  0.00000000000E+00 0. -1.
</event>
<event>
 7    1  0.1971192E-015  0.9000773E+02  0.7816164E-02  0.1186339E+00
        -11   -1    0    0    0    0  0.00000000000E+00  0.00000000000E+00  0.45593999997E+02  0.45594000000E+02  0.51100000000E-03 0.  1.
         11   -1    0    0    0    0 -0.00000000000E+00 -0.00000000000E+00 -0.45593999997E+02  0.45594000000E+02  0.51100000000E-03 0. -1.
    9900012    2    1    2    0    0 -0.18171669127E+00  0.20715896630E+00  0.11476531898E+01  0.90007727304E+02  0.89999988504E+02 0.  0.
         12    1    1    2    0    0  0.18171669127E+00 -0.20715896630E+00 -0.11476531898E+01  0.11802726962E+01  0.00000000000E+00 0. -1.
         11    1    3    3    0    0 -0.14075017736E+01 -0.63739790206E+01  0.68751374672E+01  0.94803051245E+01  0.51100000000E-03 0. -1.
        -11    1    3    3    0    0 -0.36012017045E+02  0.15948797399E+02  0.71463723501E+01  0.40028741526E+02  0.51100000000E-03 0.  1.
         12    1    3    3    0    0  0.37237802128E+02 -0.93676594120E+01 -0.12873856627E+02  0.40498680653E+02  0.00000000000E+00 0. -1.
</event>
<event>
 7    1  0.1971192E-015  0.9000773E+02  0.7816164E-02  0.1186339E+00
        -11   -1    0    0    0    0  0.00000000000E+00  0.00000000000E+00  0.45593999997E+02  0.45594000000E+02  0.51100000000E-03 0. -1.
         11   -1    0    0    0    0 -0.00000000000E+00 -0.00000000000E+00 -0.45593999997E+02  0.45594000000E+02  0.51100000000E-03 0.  1.
    9900012    2    1    2    0    0  0.10109408675E+01 -0.44418709326E+00 -0.41682175888E+00  0.90007727154E+02  0.89999988353E+02 0.  0.
         12    1    1    2    0    0 -0.10109408675E+01  0.44418709326E+00  0.41682175888E+00  0.11802728456E+01  0.00000000000E+00 0. -1.
         11    1    3    3    0    0 -0.12785270415E+01 -0.26842919704E+01 -0.93645914415E+01  0.98252545975E+01  0.51100000000E-03 0. -1.
        -11    1    3    3    0    0 -0.28079704306E+02 -0.95057681174E+01 -0.20690984462E+02  0.36151711711E+02  0.51100000000E-03 0.  1.
         12    1    3    3    0    0  0.30369172214E+02  0.11745872995E+02  0.29638754145E+02  0.44030760846E+02  0.00000000000E+00 0. -1.
</event>
<event>
 7    1  0.1971192E-015  0.9000779E+02  0.7816164E-02  0.1186339E+00
        -11   -1    0    0    0    0  0.00000000000E+00  0.00000000000E+00  0.45593999997E+02  0.45594000000E+02  0.51100000000E-03 0.  1.
         11   -1    0    0    0    0 -0.00000000000E+00 -0.00000000000E+00 -0.45593999997E+02  0.45594000000E+02  0.51100000000E-03 0. -1.
    9900012    2    1    2    0    0  0.11479154968E+00 -0.27411907452E+00  0.11421853471E+01  0.90007785725E+02  0.90000047697E+02 0.  0.
         12    1    1    2    0    0 -0.11479154968E+00  0.27411907452E+00 -0.11421853471E+01  0.11802142746E+01  0.00000000000E+00 0. -1.
         11    1    3    3    0    0 -0.70076540000E+00  0.43581243933E+01  0.69409439404E+01  0.82256320984E+01  0.51100000000E-03 0. -1.
        -11    1    3    3    0    0 -0.17860115340E+02  0.30521992875E+02 -0.18613907383E+02  0.39963149492E+02  0.51100000000E-03 0.  1.
         12    1    3    3    0    0  0.18675672290E+02 -0.35154236343E+02  0.12815148790E+02  0.41819004135E+02  0.00000000000E+00 0. -1.
</event>
<event>
 7    1  0.1971192E-015  0.9000758E+02  0.7816164E-02  0.1186339E+00
        -11   -1    0    0    0    0  0.00000000000E+00  0.00000000000E+00  0.45593999997E+02  0.45594000000E+02  0.51100000000E-03 0.  1.
         11   -1    0    0    0    0 -0.00000000000E+00 -0.00000000000E+00 -0.45593999997E+02  0.45594000000E+02  0.51100000000E-03 0. -1.
    9900012    2    1    2    0    0  0.36550615984E+00 -0.82874431848E+00 -0.75695341735E+00  0.90007580424E+02  0.89999839686E+02 0.  0.
         12    1    1    2    0    0 -0.36550615984E+00  0.82874431848E+00  0.75695341735E+00  0.11804195755E+01  0.00000000000E+00 0. -1.
         11    1    3    3    0    0 -0.34243301181E+02 -0.27206631876E+02 -0.93392567114E+01  0.44721652585E+02  0.51100000000E-03 0. -1.
        -11    1    3    3    0    0  0.45520032328E+01  0.77856798333E+01  0.30051713240E+01  0.95062399952E+01  0.51100000000E-03 0.  1.
        -12    1    3    3    0    0  0.30056804108E+02  0.18592207724E+02  0.55771319701E+01  0.35779687844E+02  0.00000000000E+00 0.  1.
</event>
<event>
 7    1  0.2369124E-015  0.9000768E+02  0.7816164E-02  0.1186339E+00
        -11   -1    0    0    0    0  0.00000000000E+00  0.00000000000E+00  0.45593999997E+02  0.45594000000E+02  0.51100000000E-03 0.  1.
         11   -1    0    0    0    0 -0.00000000000E+00 -0.00000000000E+00 -0.45593999997E+02  0.45594000000E+02  0.51100000000E-03 0. -1.
    9900012    2    1    2    0    0 -0.39766994205E+00 -0.50177968797E+00  0.99157829083E+00  0.90007681507E+02  0.89999942103E+02 0.  0.
         12    1    1    2    0    0  0.39766994205E+00  0.50177968797E+00 -0.99157829083E+00  0.11803184930E+01  0.00000000000E+00 0. -1.
         11    1    3    3    0    0 -0.20614736103E+02  0.11915792618E+02 -0.33360456349E+02  0.40986259971E+02  0.51100000000E-03 0. -1.
        -11    1    3    3    0    0  0.60120103961E+00  0.71723543928E+01  0.60309659957E+01  0.93902428791E+01  0.51100000000E-03 0.  1.
        -12    1    3    3    0    0  0.19615865122E+02 -0.19589926699E+02  0.28321068644E+02  0.39631178657E+02  0.00000000000E+00 0.  1.
</event>
<event>
 7    1  0.1971192E-015  0.9000769E+02  0.7816164E-02  0.1186339E+00
        -11   -1    0    0    0    0  0.00000000000E+00  0.00000000000E+00  0.45593999997E+02  0.45594000000E+02  0.51100000000E-03 0. -1.
         11   -1    0    0    0    0 -0.00000000000E+00 -0.00000000000E+00 -0.45593999997E+02  0.45594000000E+02  0.51100000000E-03 0.  1.
    9900012    2    1    2    0    0  0.77408995191E+00  0.74306009306E+00 -0.49170562059E+00  0.90007691577E+02  0.89999952306E+02 0.  0.
         12    1    1    2    0    0 -0.77408995191E+00 -0.74306009306E+00  0.49170562059E+00  0.11803084228E+01  0.00000000000E+00 0. -1.
         11    1    3    3    0    0 -0.30745934166E+02  0.31126349131E+02  0.47640009063E+01  0.44009746453E+02  0.51100000000E-03 0. -1.
        -11    1    3    3    0    0  0.28432323513E+01 -0.10285516383E+02 -0.88307277738E+00  0.10707737168E+02  0.51100000000E-03 0.  1.
        -12    1    3    3    0    0  0.28676791766E+02 -0.20097772654E+02 -0.43726337495E+01  0.35290207956E+02  0.00000000000E+00 0.  1.
</event>
<event>
 7    1  0.1971192E-015  0.9000775E+02  0.7816164E-02  0.1186339E+00
        -11   -1    0    0    0    0  0.00000000000E+00  0.00000000000E+00  0.45593999997E+02  0.45594000000E+02  0.51100000000E-03 0.  1.
         11   -1    0    0    0    0 -0.00000000000E+00 -0.00000000000E+00 -0.45593999997E+02  0.45594000000E+02  0.51100000000E-03 0. -1.
    9900012    2    1    2    0    0  0.11328834085E+01  0.19065701343E+00  0.27059437669E+00  0.90007747387E+02  0.90000008852E+02 0.  0.
         12    1    1    2    0    0 -0.11328834085E+01 -0.19065701343E+00 -0.27059437669E+00  0.11802526131E+01  0.00000000000E+00 0. -1.
         11    1    3    3    0    0  0.34347917061E+01  0.78989211242E+01 -0.84438139247E+00  0.86546940551E+01  0.51100000000E-03 0. -1.
        -11    1    3    3    0    0 -0.40299069554E+01 -0.11367133315E+02  0.40245580789E+02  0.42013791107E+02  0.51100000000E-03 0.  1.
         12    1    3    3    0    0  0.17279986578E+01  0.36588692046E+01 -0.39130605020E+02  0.39339262225E+02  0.00000000000E+00 0. -1.
</event>
<event>
 7    1  0.1971192E-015  0.9000772E+02  0.7816164E-02  0.1186339E+00
        -11   -1    0    0    0    0  0.00000000000E+00  0.00000000000E+00  0.45593999997E+02  0.45594000000E+02  0.51100000000E-03 0. -1.
         11   -1    0    0    0    0 -0.00000000000E+00 -0.00000000000E+00 -0.45593999997E+02  0.45594000000E+02  0.51100000000E-03 0.  1.
    9900012    2    1    2    0    0  0.98744275754E+00  0.46327792342E+00 -0.45100101592E+00  0.90007715479E+02  0.89999976523E+02 0.  0.
         12    1    1    2    0    0 -0.98744275754E+00 -0.46327792342E+00  0.45100101592E+00  0.11802845208E+01  0.00000000000E+00 0. -1.
         11    1    3    3    0    0  0.64131352360E+01  0.34109260209E+01  0.62377151735E+00  0.72905288589E+01  0.51100000000E-03 0. -1.
        -11    1    3    3    0    0  0.11091650693E+02 -0.31474728488E+01 -0.39363460701E+02  0.41017232220E+02  0.51100000000E-03 0.  1.
         12    1    3    3    0    0 -0.16517343172E+02  0.19982475134E+00  0.38288688167E+02  0.41699954400E+02  0.00000000000E+00 0. -1.
</event>
<event>
 7    1  0.1971192E-015  0.9000774E+02  0.7816164E-02  0.1186339E+00
        -11   -1    0    0    0    0  0.00000000000E+00  0.00000000000E+00  0.45593999997E+02  0.45594000000E+02  0.51100000000E-03 0. -1.
         11   -1    0    0    0    0 -0.00000000000E+00 -0.00000000000E+00 -0.45593999997E+02  0.45594000000E+02  0.51100000000E-03 0.  1.
    9900012    2    1    2    0    0 -0.48286695304E+00  0.54572911289E-02 -0.10769559786E+01  0.90007735430E+02  0.89999996737E+02 0.  0.
         12    1    1    2    0    0  0.48286695304E+00 -0.54572911289E-02  0.10769559786E+01  0.11802645704E+01  0.00000000000E+00 0. -1.
         11    1    3    3    0    0  0.47336139806E+01  0.50098786318E+01 -0.53905886962E+01  0.87501103979E+01  0.51100000000E-03 0. -1.
        -11    1    3    3    0    0  0.32846465489E+02 -0.43387280175E+01  0.21492464483E+02  0.39492288940E+02  0.51100000000E-03 0.  1.
         12    1    3    3    0    0 -0.38062946423E+02 -0.66569332311E+00 -0.17178831765E+02  0.41765336091E+02  0.00000000000E+00 0. -1.
</event>
<event>
 7    1  0.1971192E-015  0.9000764E+02  0.7816164E-02  0.1186339E+00
        -11   -1    0    0    0    0  0.00000000000E+00  0.00000000000E+00  0.45593999997E+02  0.45594000000E+02  0.51100000000E-03 0.  1.
         11   -1    0    0    0    0 -0.00000000000E+00 -0.00000000000E+00 -0.45593999997E+02  0.45594000000E+02  0.51100000000E-03 0. -1.
    9900012    2    1    2    0    0 -0.35885698984E+00  0.33171269049E+00  0.10744477130E+01  0.90007640082E+02  0.89999900131E+02 0.  0.
         12    1    1    2    0    0  0.35885698984E+00 -0.33171269049E+00 -0.10744477130E+01  0.11803599181E+01  0.00000000000E+00 0. -1.
         11    1    3    3    0    0  0.74938984814E+01  0.59818414189E+01 -0.33106442518E+02  0.34467049159E+02  0.51100000000E-03 0. -1.
        -11    1    3    3    0    0  0.69423158258E+00  0.10820862041E+02 -0.51859275640E+01  0.12019436665E+02  0.51100000000E-03 0.  1.
        -12    1    3    3    0    0 -0.85469870538E+01 -0.16470990769E+02  0.39366817795E+02  0.43521154258E+02  0.00000000000E+00 0.  1.
</event>
<event>
 7    1  0.1971192E-015  0.9000771E+02  0.7816164E-02  0.1186339E+00
        -11   -1    0    0    0    0  0.00000000000E+00  0.00000000000E+00  0.45593999997E+02  0.45594000000E+02  0.51100000000E-03 0.  1.
         11   -1    0    0    0    0 -0.00000000000E+00 -0.00000000000E+00 -0.45593999997E+02  0.45594000000E+02  0.51100000000E-03 0. -1.
    9900012    2    1    2    0    0 -0.10979485586E+01 -0.36376920540E+00 -0.23510643277E+00  0.90007705924E+02  0.89999966842E+02 0.  0.
         12    1    1    2    0    0  0.10979485586E+01  0.36376920540E+00  0.23510643277E+00  0.11802940765E+01  0.00000000000E+00 0. -1.
         11    1    3    3    0    0  0.16233295280E+01  0.78830717952E+01  0.43922654279E+01  0.91689702549E+01  0.51100000000E-03 0. -1.
        -11    1    3    3    0    0 -0.22430307995E+02  0.27465967753E+02  0.11044575289E+02  0.37141361646E+02  0.51100000000E-03 0.  1.
         12    1    3    3    0    0  0.19709029908E+02 -0.35712808754E+02 -0.15671947149E+02  0.43697374022E+02  0.00000000000E+00 0. -1.
</event>
<event>
 7    1  0.1971192E-015  0.9000779E+02  0.7816164E-02  0.1186339E+00
        -11   -1    0    0    0    0  0.00000000000E+00  0.00000000000E+00  0.45593999997E+02  0.45594000000E+02  0.51100000000E-03 0. -1.
         11   -1    0    0    0    0 -0.00000000000E+00 -0.00000000000E+00 -0.45593999997E+02  0.45594000000E+02  0.51100000000E-03 0.  1.
    9900012    2    1    2    0    0 -0.76458670875E+00 -0.54861882633E+00  0.71226772281E+00  0.90007787832E+02  0.90000049832E+02 0.  0.
         12    1    1    2    0    0  0.76458670875E+00  0.54861882633E+00 -0.71226772281E+00  0.11802121677E+01  0.00000000000E+00 0. -1.
         11    1    3    3    0    0 -0.11974617354E+01 -0.14891908788E+02 -0.36604071860E+02  0.39535565494E+02  0.51100000000E-03 0. -1.
        -11    1    3    3    0    0  0.75602292119E+01 -0.41548370352E+01  0.47947219979E+00  0.86400017579E+01  0.51100000000E-03 0.  1.
        -12    1    3    3    0    0 -0.71273541852E+01  0.18498126997E+02  0.36836867383E+02  0.41832220580E+02  0.00000000000E+00 0.  1.
</event>
<event>
 7    1  0.1971192E-015  0.9000786E+02  0.7816164E-02  0.1186339E+00
        -11   -1    0    0    0    0  0.00000000000E+00  0.00000000000E+00  0.45593999997E+02  0.45594000000E+02  0.51100000000E-03 0.  1.
         11   -1    0    0    0    0 -0.00000000000E+00 -0.00000000000E+00 -0.45593999997E+02  0.45594000000E+02  0.51100000000E-03 0. -1.
    9900012    2    1    2    0    0  0.33319034082E+00  0.10214989248E+01 -0.48812304865E+00  0.90007855955E+02  0.90000118853E+02 0.  0.
         12    1    1    2    0    0 -0.33319034082E+00 -0.10214989248E+01  0.48812304865E+00  0.11801440451E+01  0.00000000000E+00 0. -1.
         11    1    3    3    0    0 -0.20109716236E+02 -0.19845462320E+02 -0.14984664546E+02  0.31980982374E+02  0.51100000000E-03 0. -1.
        -11    1    3    3    0    0 -0.91382609817E+01 -0.99227738325E+01  0.34386783066E+01  0.13920982834E+02  0.51100000000E-03 0.  1.
        -12    1    3    3    0    0  0.29581167558E+02  0.30789735077E+02  0.11057863191E+02  0.44105890747E+02  0.00000000000E+00 0.  1.
</event>
<event>
 7    1  0.1971192E-015  0.9000771E+02  0.7816164E-02  0.1186339E+00
        -11   -1    0    0    0    0  0.00000000000E+00  0.00000000000E+00  0.45593999997E+02  0.45594000000E+02  0.51100000000E-03 0.  1.
         11   -1    0    0    0    0 -0.00000000000E+00 -0.00000000000E+00 -0.45593999997E+02  0.45594000000E+02  0.51100000000E-03 0. -1.
    9900012    2    1    2    0    0 -0.10045145988E+01 -0.50331643609E+00 -0.36153894109E+00  0.90007708756E+02  0.89999969712E+02 0.  0.
         12    1    1    2    0    0  0.10045145988E+01  0.50331643609E+00  0.36153894109E+00  0.11802912437E+01  0.00000000000E+00 0. -1.
         11    1    3    3    0    0  0.52319955385E+01 -0.63992038240E+01 -0.29829734523E+01  0.87875888487E+01  0.51100000000E-03 0. -1.
        -11    1    3    3    0    0 -0.67321447300E+01 -0.12123534196E+02  0.38579802302E+02  0.40996377888E+02  0.51100000000E-03 0.  1.
         12    1    3    3    0    0  0.49563459272E+00  0.18019421584E+02 -0.35958367790E+02  0.40223742019E+02  0.00000000000E+00 0. -1.
</event>
<event>
 7    1  0.1971192E-015  0.9000771E+02  0.7816164E-02  0.1186339E+00
        -11   -1    0    0    0    0  0.00000000000E+00  0.00000000000E+00  0.45593999997E+02  0.45594000000E+02  0.51100000000E-03 0. -1.
         11   -1    0    0    0    0 -0.00000000000E+00 -0.00000000000E+00 -0.45593999997E+02  0.45594000000E+02  0.51100000000E-03 0.  1.
    9900012    2    1    2    0    0 -0.63019262332E+00  0.76503634191E+00 -0.64082152213E+00  0.90007713776E+02  0.89999974798E+02 0.  0.
         12    1    1    2    0    0  0.63019262332E+00 -0.76503634191E+00  0.64082152213E+00  0.11802862238E+01  0.00000000000E+00 0. -1.
         11    1    3    3    0    0 -0.80460626173E+01 -0.67687163569E+01  0.13745876848E+01  0.10603967952E+02  0.51100000000E-03 0. -1.
        -11    1    3    3    0    0 -0.33626415841E+02  0.11380683784E+02  0.92200045835E+01  0.36677844682E+02  0.51100000000E-03 0.  1.
         12    1    3    3    0    0  0.41042285835E+02 -0.38469310855E+01 -0.11235413790E+02  0.42725901142E+02  0.00000000000E+00 0. -1.
</event>
<event>
 7    1  0.1971192E-015  0.9000773E+02  0.7816164E-02  0.1186339E+00
        -11   -1    0    0    0    0  0.00000000000E+00  0.00000000000E+00  0.45593999997E+02  0.45594000000E+02  0.51100000000E-03 0.  1.
         11   -1    0    0    0    0 -0.00000000000E+00 -0.00000000000E+00 -0.45593999997E+02  0.45594000000E+02  0.51100000000E-03 0. -1.
    9900012    2    1    2    0    0  0.80063546886E+00 -0.20118327029E+00  0.84352648463E+00  0.90007733593E+02  0.89999994876E+02 0.  0.
         12    1    1    2    0    0 -0.80063546886E+00  0.20118327029E+00 -0.84352648463E+00  0.11802664074E+01  0.00000000000E+00 0. -1.
         11    1    3    3    0    0 -0.13220375716E+01 -0.41911259374E+01  0.87329325631E+01  0.97763710740E+01  0.51100000000E-03 0. -1.
        -11    1    3    3    0    0  0.64965629280E+01  0.13107009627E+02  0.34066235752E+02  0.37074350295E+02  0.51100000000E-03 0.  1.
         12    1    3    3    0    0 -0.43738898875E+01 -0.91170669599E+01 -0.41955641830E+02  0.43157012224E+02  0.00000000000E+00 0. -1.
</event>
<event>
 7    1  0.1971192E-015  0.9000775E+02  0.7816164E-02  0.1186339E+00
        -11   -1    0    0    0    0  0.00000000000E+00  0.00000000000E+00  0.45593999997E+02  0.45594000000E+02  0.51100000000E-03 0. -1.
         11   -1    0    0    0    0 -0.00000000000E+00 -0.00000000000E+00 -0.45593999997E+02  0.45594000000E+02  0.51100000000E-03 0.  1.
    9900012    2    1    2    0    0 -0.15963814150E-02 -0.10381771540E+01  0.56141372803E+00  0.90007745906E+02  0.90000007352E+02 0.  0.
         12    1    1    2    0    0  0.15963814150E-02  0.10381771540E+01 -0.56141372803E+00  0.11802540936E+01  0.00000000000E+00 0. -1.
         11    1    3    3    0    0 -0.17208073072E+02  0.12439419824E+02  0.29054905894E+02  0.35986726736E+02  0.51100000000E-03 0. -1.
        -11    1    3    3    0    0  0.10681550802E+00  0.58279777343E+01  0.76514226953E+01  0.96187838913E+01  0.51100000000E-03 0.  1.
        -12    1    3    3    0    0  0.17099661182E+02 -0.19305574712E+02 -0.36144914861E+02  0.44402235279E+02  0.00000000000E+00 0.  1.
</event>
<event>
 7    1  0.1971192E-015  0.9000782E+02  0.7816164E-02  0.1186339E+00
        -11   -1    0    0    0    0  0.00000000000E+00  0.00000000000E+00  0.45593999997E+02  0.45594000000E+02  0.51100000000E-03 0. -1.
         11   -1    0    0    0    0 -0.00000000000E+00 -0.00000000000E+00 -0.45593999997E+02  0.45594000000E+02  0.51100000000E-03 0.  1.
    9900012    2    1    2    0    0  0.11577521408E+01 -0.17710616488E-01 -0.22829515376E+00  0.90007821046E+02  0.90000083484E+02 0.  0.
         12    1    1    2    0    0 -0.11577521408E+01  0.17710616488E-01  0.22829515376E+00  0.11801789537E+01  0.00000000000E+00 0. -1.
         11    1    3    3    0    0 -0.45485884204E+01 -0.59597449166E+00  0.61204535524E+01  0.76488426681E+01  0.51100000000E-03 0. -1.
        -11    1    3    3    0    0 -0.55957435598E+01 -0.25295976331E+02 -0.34062545485E+02  0.42795511093E+02  0.51100000000E-03 0.  1.
         12    1    3    3    0    0  0.11302084121E+02  0.25874240206E+02  0.27713796779E+02  0.39563467285E+02  0.00000000000E+00 0. -1.
</event>
<event>
 7    1  0.1971192E-015  0.9000776E+02  0.7816164E-02  0.1186339E+00
        -11   -1    0    0    0    0  0.00000000000E+00  0.00000000000E+00  0.45593999997E+02  0.45594000000E+02  0.51100000000E-03 0. -1.
         11   -1    0    0    0    0 -0.00000000000E+00 -0.00000000000E+00 -0.45593999997E+02  0.45594000000E+02  0.51100000000E-03 0.  1.
    9900012    2    1    2    0    0  0.14677968846E+00 -0.99879748762E+00  0.61140960544E+00  0.90007761717E+02  0.90000023372E+02 0.  0.
         12    1    1    2    0    0 -0.14677968846E+00  0.99879748762E+00 -0.61140960544E+00  0.11802382827E+01  0.00000000000E+00 0. -1.
         11    1    3    3    0    0  0.84577510159E+01 -0.19588256222E+01  0.48394110135E+01  0.99393384732E+01  0.51100000000E-03 0. -1.
        -11    1    3    3    0    0  0.25177161260E+02 -0.23125620209E+02  0.11280846387E+02  0.35999184083E+02  0.51100000000E-03 0.  1.
         12    1    3    3    0    0 -0.33488132588E+02  0.24085648343E+02 -0.15508847795E+02  0.44069239161E+02  0.00000000000E+00 0. -1.
</event>
<event>
 7    1  0.1971192E-015  0.9000787E+02  0.7816164E-02  0.1186339E+00
        -11   -1    0    0    0    0  0.00000000000E+00  0.00000000000E+00  0.45593999997E+02  0.45594000000E+02  0.51100000000E-03 0.  1.
         11   -1    0    0    0    0 -0.00000000000E+00 -0.00000000000E+00 -0.45593999997E+02  0.45594000000E+02  0.51100000000E-03 0. -1.
    9900012    2    1    2    0    0  0.94421409569E+00  0.28622014470E+00  0.64749257006E+00  0.90007869135E+02  0.90000132208E+02 0.  0.
         12    1    1    2    0    0 -0.94421409569E+00 -0.28622014470E+00 -0.64749257006E+00  0.11801308648E+01  0.00000000000E+00 0. -1.
         11    1    3    3    0    0  0.19285218981E+01  0.86195375102E+01 -0.27325749545E+01  0.92456795177E+01  0.51100000000E-03 0. -1.
        -11    1    3    3    0    0  0.12619559704E+01  0.30436884703E+02  0.22115084970E+02  0.37644036271E+02  0.51100000000E-03 0.  1.
         12    1    3    3    0    0 -0.22462637728E+01 -0.38770202068E+02 -0.18735017445E+02  0.43118153347E+02  0.00000000000E+00 0. -1.
</event>
<event>
 7    1  0.1971192E-015  0.9000785E+02  0.7816164E-02  0.1186339E+00
        -11   -1    0    0    0    0  0.00000000000E+00  0.00000000000E+00  0.45593999997E+02  0.45594000000E+02  0.51100000000E-03 0.  1.
         11   -1    0    0    0    0 -0.00000000000E+00 -0.00000000000E+00 -0.45593999997E+02  0.45594000000E+02  0.51100000000E-03 0. -1.
    9900012    2    1    2    0    0  0.61729504630E+00  0.10051287532E+01  0.37600495791E-01  0.90007851373E+02  0.90000114211E+02 0.  0.
         12    1    1    2    0    0 -0.61729504630E+00 -0.10051287532E+01 -0.37600495791E-01  0.11801486271E+01  0.00000000000E+00 0. -1.
         11    1    3    3    0    0 -0.27681760388E-01 -0.83599090024E+01  0.70273163486E+01  0.10921173020E+02  0.51100000000E-03 0. -1.
        -11    1    3    3    0    0 -0.28081420975E+02  0.91193476950E+01  0.23098254174E+02  0.37486771701E+02  0.51100000000E-03 0.  1.
         12    1    3    3    0    0  0.28726397782E+02  0.24569006071E+00 -0.30087970027E+02  0.41599906652E+02  0.00000000000E+00 0. -1.
</event>
<event>
 7    1  0.1971192E-015  0.9000767E+02  0.7816164E-02  0.1186339E+00
        -11   -1    0    0    0    0  0.00000000000E+00  0.00000000000E+00  0.45593999997E+02  0.45594000000E+02  0.51100000000E-03 0.  1.
         11   -1    0    0    0    0 -0.00000000000E+00 -0.00000000000E+00 -0.45593999997E+02  0.45594000000E+02  0.51100000000E-03 0. -1.
    9900012    2    1    2    0    0 -0.63174382245E+00 -0.47830047413E+00  0.87481331154E+00  0.90007673803E+02  0.89999934297E+02 0.  0.
         12    1    1    2    0    0  0.63174382245E+00  0.47830047413E+00 -0.87481331154E+00  0.11803261968E+01  0.00000000000E+00 0. -1.
         11    1    3    3    0    0 -0.12980592282E+02  0.12489578905E+02 -0.26185938085E+02  0.31783465998E+02  0.51100000000E-03 0. -1.
        -11    1    3    3    0    0 -0.11386970233E+02  0.94793088285E+00 -0.77842040170E+01  0.13825899482E+02  0.51100000000E-03 0.  1.
        -12    1    3    3    0    0  0.23735818692E+02 -0.13915810262E+02  0.34844955413E+02  0.44398308323E+02  0.00000000000E+00 0.  1.
</event>
<event>
 7    1  0.1971192E-015  0.9000768E+02  0.7816164E-02  0.1186339E+00
        -11   -1    0    0    0    0  0.00000000000E+00  0.00000000000E+00  0.45593999997E+02  0.45594000000E+02  0.51100000000E-03 0.  1.
         11   -1    0    0    0    0 -0.00000000000E+00 -0.00000000000E+00 -0.45593999997E+02  0.45594000000E+02  0.51100000000E-03 0. -1.
    9900012    2    1    2    0    0  0.99610607627E+00 -0.48924687652E+00 -0.40196645724E+00  0.90007675107E+02  0.89999935618E+02 0.  0.
         12    1    1    2    0    0 -0.99610607627E+00  0.48924687652E+00  0.40196645724E+00  0.11803248935E+01  0.00000000000E+00 0. -1.
         11    1    3    3    0    0  0.22586932372E+02 -0.26743904674E+02 -0.65747175248E+01  0.35617872788E+02  0.51100000000E-03 0. -1.
        -11    1    3    3    0    0  0.17222613398E+01 -0.87361519876E+01  0.84590779997E+01  0.12281796959E+02  0.51100000000E-03 0.  1.
        -12    1    3    3    0    0 -0.23313087636E+02  0.34990809785E+02 -0.22863269322E+01  0.42108005359E+02  0.00000000000E+00 0.  1.
</event>
<event>
 7    1  0.1971192E-015  0.9000768E+02  0.7816164E-02  0.1186339E+00
        -11   -1    0    0    0    0  0.00000000000E+00  0.00000000000E+00  0.45593999997E+02  0.45594000000E+02  0.51100000000E-03 0.  1.
         11   -1    0    0    0    0 -0.00000000000E+00 -0.00000000000E+00 -0.45593999997E+02  0.45594000000E+02  0.51100000000E-03 0. -1.
    9900012    2    1    2    0    0 -0.86149695176E+00 -0.54686095679E+00  0.59323156517E+00  0.90007679029E+02  0.89999939592E+02 0.  0.
         12    1    1    2    0    0  0.86149695176E+00  0.54686095679E+00 -0.59323156517E+00  0.11803209707E+01  0.00000000000E+00 0. -1.
         11    1    3    3    0    0  0.26439350359E+02 -0.13756219477E+02 -0.18546794473E+02  0.35103509899E+02  0.51100000000E-03 0. -1.
        -11    1    3    3    0    0  0.92644940256E+01 -0.29927178410E+01 -0.15770255704E+01  0.98627693645E+01  0.51100000000E-03 0.  1.
        -12    1    3    3    0    0 -0.36565341337E+02  0.16202076361E+02  0.20717051609E+02  0.45041399766E+02  0.00000000000E+00 0.  1.
</event>
<event>
 7    1  0.1971192E-015  0.9000792E+02  0.7816164E-02  0.1186339E+00
        -11   -1    0    0    0    0  0.00000000000E+00  0.00000000000E+00  0.45593999997E+02  0.45594000000E+02  0.51100000000E-03 0.  1.
         11   -1    0    0    0    0 -0.00000000000E+00 -0.00000000000E+00 -0.45593999997E+02  0.45594000000E+02  0.51100000000E-03 0. -1.
    9900012    2    1    2    0    0 -0.88133504991E+00 -0.71731192753E+00  0.31827622251E+00  0.90007920500E+02  0.90000184251E+02 0.  0.
         12    1    1    2    0    0  0.88133504991E+00  0.71731192753E+00 -0.31827622251E+00  0.11800794996E+01  0.00000000000E+00 0. -1.
         11    1    3    3    0    0 -0.71555638628E+01  0.26651966366E+02 -0.20388920665E+02  0.34310894647E+02  0.51100000000E-03 0. -1.
        -11    1    3    3    0    0 -0.26183808082E+01  0.39001293191E+01 -0.99557965051E+01  0.11008397298E+02  0.51100000000E-03 0.  1.
        -12    1    3    3    0    0  0.88926096211E+01 -0.31269407612E+02  0.30662993393E+02  0.44688628555E+02  0.00000000000E+00 0.  1.
</event>
<event>
 7    1  0.1971192E-015  0.9000768E+02  0.7816164E-02  0.1186339E+00
        -11   -1    0    0    0    0  0.00000000000E+00  0.00000000000E+00  0.45593999997E+02  0.45594000000E+02  0.51100000000E-03 0.  1.
         11   -1    0    0    0    0 -0.00000000000E+00 -0.00000000000E+00 -0.45593999997E+02  0.45594000000E+02  0.51100000000E-03 0. -1.
    9900012    2    1    2    0    0  0.80911481009E-01 -0.29816432944E+00  0.11391649401E+01  0.90007684197E+02  0.89999944828E+02 0.  0.
         12    1    1    2    0    0 -0.80911481009E-01  0.29816432944E+00 -0.11391649401E+01  0.11803158034E+01  0.00000000000E+00 0. -1.
         11    1    3    3    0    0  0.27798203817E+02 -0.20407227619E+02 -0.65160449830E+01  0.35094927226E+02  0.51100000000E-03 0. -1.
        -11    1    3    3    0    0  0.92780566421E+01 -0.28440120056E+01 -0.28730436046E+01  0.10120529589E+02  0.51100000000E-03 0.  1.
        -12    1    3    3    0    0 -0.36995348978E+02  0.22953075295E+02  0.10528253528E+02  0.44792227382E+02  0.00000000000E+00 0.  1.
</event>
<event>
 7    1  0.1971192E-015  0.9000768E+02  0.7816164E-02  0.1186339E+00
        -11   -1    0    0    0    0  0.00000000000E+00  0.00000000000E+00  0.45593999997E+02  0.45594000000E+02  0.51100000000E-03 0.  1.
         11   -1    0    0    0    0 -0.00000000000E+00 -0.00000000000E+00 -0.45593999997E+02  0.45594000000E+02  0.51100000000E-03 0. -1.
    9900012    2    1    2    0    0  0.91623870873E-01 -0.94133318770E+00  0.70614801068E+00  0.90007683044E+02  0.89999943660E+02 0.  0.
         12    1    1    2    0    0 -0.91623870873E-01  0.94133318770E+00 -0.70614801068E+00  0.11803169561E+01  0.00000000000E+00 0. -1.
         11    1    3    3    0    0  0.31580499557E+00  0.11763718775E+01  0.91808172105E+01  0.92612627921E+01  0.51100000000E-03 0. -1.
        -11    1    3    3    0    0  0.34512152450E+02 -0.41378898686E+00  0.16176895722E+02  0.38117605428E+02  0.51100000000E-03 0.  1.
         12    1    3    3    0    0 -0.34736333575E+02 -0.17039160784E+01 -0.24651564922E+02  0.42628814824E+02  0.00000000000E+00 0. -1.
</event>
<event>
 7    1  0.1971192E-015  0.9000771E+02  0.7816164E-02  0.1186339E+00
        -11   -1    0    0    0    0  0.00000000000E+00  0.00000000000E+00  0.45593999997E+02  0.45594000000E+02  0.51100000000E-03 0. -1.
         11   -1    0    0    0    0 -0.00000000000E+00 -0.00000000000E+00 -0.45593999997E+02  0.45594000000E+02  0.51100000000E-03 0.  1.
    9900012    2    1    2    0    0 -0.11478795741E+01  0.23439543878E-01 -0.27368993834E+00  0.90007710582E+02  0.89999971561E+02 0.  0.
         12    1    1    2    0    0  0.11478795741E+01 -0.23439543878E-01  0.27368993834E+00  0.11802894184E+01  0.00000000000E+00 0. -1.
         11    1    3    3    0    0  0.43023687311E+01  0.29670556228E+02  0.19846359628E+02  0.35954558464E+02  0.51100000000E-03 0. -1.
        -11    1    3    3    0    0 -0.61010638712E+01  0.92363282721E+01 -0.65638315197E+01  0.12869212283E+02  0.51100000000E-03 0.  1.
        -12    1    3    3    0    0  0.65081556599E+00 -0.38883444956E+02 -0.13556218047E+02  0.41183939835E+02  0.00000000000E+00 0.  1.
</event>
<event>
 7    1  0.1971192E-015  0.9000715E+02  0.7816164E-02  0.1186340E+00
        -11   -1    0    0    0    0  0.00000000000E+00  0.00000000000E+00  0.45593999997E+02  0.45594000000E+02  0.51100000000E-03 0. -1.
         11   -1    0    0    0    0 -0.00000000000E+00 -0.00000000000E+00 -0.45593999997E+02  0.45594000000E+02  0.51100000000E-03 0.  1.
    9900012    2    1    2    0    0 -0.62029929369E+00 -0.75177467805E-01 -0.10019842021E+01  0.90007154876E+02  0.89999408518E+02 0.  0.
         12    1    1    2    0    0  0.62029929369E+00  0.75177467805E-01  0.10019842021E+01  0.11808451240E+01  0.00000000000E+00 0. -1.
         11    1    3    3    0    0 -0.26175422174E+01 -0.81711836231E+01 -0.31504931326E+01  0.91403159848E+01  0.51100000000E-03 0. -1.
        -11    1    3    3    0    0  0.26986875580E+01  0.18527288729E+01 -0.39052565089E+02  0.39189518486E+02  0.51100000000E-03 0.  1.
         12    1    3    3    0    0 -0.70144463428E+00  0.62432772824E+01  0.41201074020E+02  0.41677320406E+02  0.00000000000E+00 0. -1.
</event>
<event>
 7    1  0.1971192E-015  0.9000768E+02  0.7816164E-02  0.1186339E+00
        -11   -1    0    0    0    0  0.00000000000E+00  0.00000000000E+00  0.45593999997E+02  0.45594000000E+02  0.51100000000E-03 0.  1.
         11   -1    0    0    0    0 -0.00000000000E+00 -0.00000000000E+00 -0.45593999997E+02  0.45594000000E+02  0.51100000000E-03 0. -1.
    9900012    2    1    2    0    0  0.60418112482E+00  0.97026503709E+00  0.29445958567E+00  0.90007679907E+02  0.89999940482E+02 0.  0.
         12    1    1    2    0    0 -0.60418112482E+00 -0.97026503709E+00 -0.29445958567E+00  0.11803200928E+01  0.00000000000E+00 0. -1.
         11    1    3    3    0    0  0.64645909782E-01  0.91475443397E+01 -0.41726477571E+01  0.10054488356E+02  0.51100000000E-03 0. -1.
        -11    1    3    3    0    0  0.92180603736E+01  0.34791361611E+02  0.20985871916E+01  0.36052954779E+02  0.51100000000E-03 0.  1.
         12    1    3    3    0    0 -0.86785251585E+01 -0.42968640914E+02  0.23685201512E+01  0.43900236772E+02  0.00000000000E+00 0. -1.
</event>
<event>
 7    1  0.1971192E-015  0.9000776E+02  0.7816164E-02  0.1186339E+00
        -11   -1    0    0    0    0  0.00000000000E+00  0.00000000000E+00  0.45593999997E+02  0.45594000000E+02  0.51100000000E-03 0.  1.
         11   -1    0    0    0    0 -0.00000000000E+00 -0.00000000000E+00 -0.45593999997E+02  0.45594000000E+02  0.51100000000E-03 0. -1.
    9900012    2    1    2    0    0  0.89990504624E+00  0.23655596078E+00  0.72606414682E+00  0.90007764024E+02  0.90000025709E+02 0.  0.
         12    1    1    2    0    0 -0.89990504624E+00 -0.23655596078E+00 -0.72606414682E+00  0.11802359765E+01  0.00000000000E+00 0. -1.
         11    1    3    3    0    0  0.47229573168E+01 -0.99078526878E+01 -0.45592497241E+01  0.11885227344E+02  0.51100000000E-03 0. -1.
        -11    1    3    3    0    0 -0.87073136009E+01  0.12722161007E+01  0.40518279039E+02  0.41462836137E+02  0.51100000000E-03 0.  1.
         12    1    3    3    0    0  0.48842613304E+01  0.88721925480E+01 -0.35232965168E+02  0.36659700543E+02  0.00000000000E+00 0. -1.
</event>
<event>
 7    1  0.1971192E-015  0.9000771E+02  0.7816164E-02  0.1186339E+00
        -11   -1    0    0    0    0  0.00000000000E+00  0.00000000000E+00  0.45593999997E+02  0.45594000000E+02  0.51100000000E-03 0.  1.
         11   -1    0    0    0    0 -0.00000000000E+00 -0.00000000000E+00 -0.45593999997E+02  0.45594000000E+02  0.51100000000E-03 0. -1.
    9900012    2    1    2    0    0 -0.27814371211E+00  0.67138852850E+00  0.93003474567E+00  0.90007707194E+02  0.89999968129E+02 0.  0.
         12    1    1    2    0    0  0.27814371211E+00 -0.67138852850E+00 -0.93003474567E+00  0.11802928064E+01  0.00000000000E+00 0. -1.
         11    1    3    3    0    0 -0.26578702532E+01  0.79155617656E+01 -0.46155572385E+01  0.95406373598E+01  0.51100000000E-03 0. -1.
        -11    1    3    3    0    0  0.21152415121E+02  0.29483126222E+02  0.13014446711E+02  0.38549386775E+02  0.51100000000E-03 0.  1.
         12    1    3    3    0    0 -0.18772688580E+02 -0.36727299459E+02 -0.74688547271E+01  0.41917683059E+02  0.00000000000E+00 0. -1.
</event>
<event>
 7    1  0.1971192E-015  0.9000777E+02  0.7816164E-02  0.1186339E+00
        -11   -1    0    0    0    0  0.00000000000E+00  0.00000000000E+00  0.45593999997E+02  0.45594000000E+02  0.51100000000E-03 0. -1.
         11   -1    0    0    0    0 -0.00000000000E+00 -0.00000000000E+00 -0.45593999997E+02  0.45594000000E+02  0.51100000000E-03 0.  1.
    9900012    2    1    2    0    0 -0.92333489483E+00 -0.73343838694E+00 -0.49665946332E-01  0.90007768708E+02  0.90000030455E+02 0.  0.
         12    1    1    2    0    0  0.92333489483E+00  0.73343838694E+00  0.49665946332E-01  0.11802312916E+01  0.00000000000E+00 0. -1.
         11    1    3    3    0    0 -0.28891214861E+02 -0.11265034724E+02  0.28532461977E+02  0.42139111170E+02  0.51100000000E-03 0. -1.
        -11    1    3    3    0    0  0.80692255373E+01 -0.44668766091E-01  0.33904447037E+01  0.87526859661E+01  0.51100000000E-03 0.  1.
        -12    1    3    3    0    0  0.19898654429E+02  0.10576265103E+02 -0.31972572628E+02  0.39115971572E+02  0.00000000000E+00 0.  1.
</event>
<event>
 7    1  0.1971192E-015  0.9000780E+02  0.7816164E-02  0.1186339E+00
        -11   -1    0    0    0    0  0.00000000000E+00  0.00000000000E+00  0.45593999997E+02  0.45594000000E+02  0.51100000000E-03 0.  1.
         11   -1    0    0    0    0 -0.00000000000E+00 -0.00000000000E+00 -0.45593999997E+02  0.45594000000E+02  0.51100000000E-03 0. -1.
    9900012    2    1    2    0    0  0.42209906185E+00 -0.50956832009E+00  0.97725982450E+00  0.90007803298E+02  0.90000065501E+02 0.  0.
         12    1    1    2    0    0 -0.42209906185E+00  0.50956832009E+00 -0.97725982450E+00  0.11801967020E+01  0.00000000000E+00 0. -1.
         11    1    3    3    0    0  0.69690610160E+01 -0.30386747476E+01 -0.63680096409E+01  0.99173031977E+01  0.51100000000E-03 0. -1.
        -11    1    3    3    0    0  0.36411244626E+02  0.47893711346E+01  0.40292911031E+01  0.36945256775E+02  0.51100000000E-03 0.  1.
         12    1    3    3    0    0 -0.42958206580E+02 -0.22602647070E+01  0.33159783623E+01  0.43145243326E+02  0.00000000000E+00 0. -1.
</event>
<event>
 7    1  0.1971192E-015  0.9000770E+02  0.7816164E-02  0.1186339E+00
        -11   -1    0    0    0    0  0.00000000000E+00  0.00000000000E+00  0.45593999997E+02  0.45594000000E+02  0.51100000000E-03 0. -1.
         11   -1    0    0    0    0 -0.00000000000E+00 -0.00000000000E+00 -0.45593999997E+02  0.45594000000E+02  0.51100000000E-03 0.  1.
    9900012    2    1    2    0    0 -0.37707336290E+00 -0.10038612893E+01  0.49313043387E+00  0.90007703667E+02  0.89999964555E+02 0.  0.
         12    1    1    2    0    0  0.37707336290E+00  0.10038612893E+01 -0.49313043387E+00  0.11802963331E+01  0.00000000000E+00 0. -1.
         11    1    3    3    0    0 -0.52451503228E+01  0.19466618163E+02  0.36460907267E+02  0.41663636226E+02  0.51100000000E-03 0. -1.
        -11    1    3    3    0    0  0.84871723346E+01 -0.87821326399E+01 -0.21761582056E+01  0.12405386441E+02  0.51100000000E-03 0.  1.
        -12    1    3    3    0    0 -0.36190953747E+01 -0.11688346812E+02 -0.33791618628E+02  0.35938681000E+02  0.00000000000E+00 0.  1.
</event>
<event>
 7    1  0.2607809E-015  0.9000774E+02  0.7816164E-02  0.1186339E+00
        -11   -1    0    0    0    0  0.00000000000E+00  0.00000000000E+00  0.45593999997E+02  0.45594000000E+02  0.51100000000E-03 0.  1.
         11   -1    0    0    0    0 -0.00000000000E+00 -0.00000000000E+00 -0.45593999997E+02  0.45594000000E+02  0.51100000000E-03 0. -1.
    9900012    2    1    2    0    0  0.10672845598E+01  0.17265342236E+00  0.47340178567E+00  0.90007739526E+02  0.90000000888E+02 0.  0.
         12    1    1    2    0    0 -0.10672845598E+01 -0.17265342236E+00 -0.47340178567E+00  0.11802604740E+01  0.00000000000E+00 0. -1.
         11    1    3    3    0    0 -0.33865474088E+02 -0.11592229874E+02 -0.16485788009E+02  0.39408518561E+02  0.51100000000E-03 0. -1.
        -11    1    3    3    0    0 -0.39495792950E+01  0.54060347474E+00  0.83079768880E+01  0.92148743322E+01  0.51100000000E-03 0.  1.
        -12    1    3    3    0    0  0.38882337943E+02  0.11224279822E+02  0.86512129062E+01  0.41384346632E+02  0.00000000000E+00 0.  1.
</event>
<event>
 7    1  0.1971192E-015  0.9000772E+02  0.7816164E-02  0.1186339E+00
        -11   -1    0    0    0    0  0.00000000000E+00  0.00000000000E+00  0.45593999997E+02  0.45594000000E+02  0.51100000000E-03 0. -1.
         11   -1    0    0    0    0 -0.00000000000E+00 -0.00000000000E+00 -0.45593999997E+02  0.45594000000E+02  0.51100000000E-03 0.  1.
    9900012    2    1    2    0    0  0.82992878978E-01  0.25661401015E-01 -0.11770815138E+01  0.90007717315E+02  0.89999978384E+02 0.  0.
         12    1    1    2    0    0 -0.82992878978E-01 -0.25661401015E-01  0.11770815138E+01  0.11802826846E+01  0.00000000000E+00 0. -1.
         11    1    3    3    0    0  0.25936311175E+02 -0.18892084844E+02  0.15606967078E+02  0.35681655353E+02  0.51100000000E-03 0. -1.
        -11    1    3    3    0    0  0.65023833939E+01 -0.17487222646E+01  0.65540731240E+01  0.93965362840E+01  0.51100000000E-03 0.  1.
        -12    1    3    3    0    0 -0.32355701690E+02  0.20666468510E+02 -0.23338121715E+02  0.44929525678E+02  0.00000000000E+00 0.  1.
</event>
<event>
 7    1  0.1971192E-015  0.9000761E+02  0.7816164E-02  0.1186339E+00
        -11   -1    0    0    0    0  0.00000000000E+00  0.00000000000E+00  0.45593999997E+02  0.45594000000E+02  0.51100000000E-03 0. -1.
         11   -1    0    0    0    0 -0.00000000000E+00 -0.00000000000E+00 -0.45593999997E+02  0.45594000000E+02  0.51100000000E-03 0.  1.
    9900012    2    1    2    0    0 -0.63734700620E+00  0.99325924734E+00  0.23596554570E-01  0.90007605178E+02  0.89999864766E+02 0.  0.
         12    1    1    2    0    0  0.63734700620E+00 -0.99325924734E+00 -0.23596554570E-01  0.11803948221E+01  0.00000000000E+00 0. -1.
         11    1    3    3    0    0  0.24949828306E+02 -0.24642465184E+02 -0.12505121682E+02  0.37230674065E+02  0.51100000000E-03 0. -1.
        -11    1    3    3    0    0 -0.18325498501E+01 -0.90214187749E+01  0.14005906555E+01  0.93115997611E+01  0.51100000000E-03 0.  1.
        -12    1    3    3    0    0 -0.23754625462E+02  0.34657143206E+02  0.11128127581E+02  0.43465331352E+02  0.00000000000E+00 0.  1.
</event>
<event>
 7    1  0.1971192E-015  0.9000775E+02  0.7816164E-02  0.1186339E+00
        -11   -1    0    0    0    0  0.00000000000E+00  0.00000000000E+00  0.45593999997E+02  0.45594000000E+02  0.51100000000E-03 0.  1.
         11   -1    0    0    0    0 -0.00000000000E+00 -0.00000000000E+00 -0.45593999997E+02  0.45594000000E+02  0.51100000000E-03 0. -1.
    9900012    2    1    2    0    0  0.93242427603E+00  0.70371796940E+00 -0.16839193256E+00  0.90007750088E+02  0.90000011590E+02 0.  0.
         12    1    1    2    0    0 -0.93242427603E+00 -0.70371796940E+00  0.16839193256E+00  0.11802499116E+01  0.00000000000E+00 0. -1.
         11    1    3    3    0    0  0.94676580887E+01  0.43502528351E+01 -0.17285334271E+01  0.10561679672E+02  0.51100000000E-03 0. -1.
        -11    1    3    3    0    0  0.11496467708E+02 -0.52488792048E+01  0.36783137289E+02  0.38893684471E+02  0.51100000000E-03 0.  1.
         12    1    3    3    0    0 -0.20031701521E+02  0.16023443391E+01 -0.35222995794E+02  0.40552385946E+02  0.00000000000E+00 0. -1.
</event>
<event>
 7    1  0.1971192E-015  0.9000809E+02  0.7816164E-02  0.1186338E+00
        -11   -1    0    0    0    0  0.00000000000E+00  0.00000000000E+00  0.45593999997E+02  0.45594000000E+02  0.51100000000E-03 0. -1.
         11   -1    0    0    0    0 -0.00000000000E+00 -0.00000000000E+00 -0.45593999997E+02  0.45594000000E+02  0.51100000000E-03 0.  1.
    9900012    2    1    2    0    0 -0.11011526623E+01 -0.18604603023E+00  0.38084148074E+00  0.90008088756E+02  0.90000354727E+02 0.  0.
         12    1    1    2    0    0  0.11011526623E+01  0.18604603023E+00 -0.38084148074E+00  0.11799112443E+01  0.00000000000E+00 0. -1.
         11    1    3    3    0    0  0.24185951573E+02  0.19714741976E+02  0.20881563842E+02  0.37545585805E+02  0.51100000000E-03 0. -1.
        -11    1    3    3    0    0 -0.50116209965E+00  0.88738601117E+01  0.79132417967E+00  0.89231581265E+01  0.51100000000E-03 0.  1.
        -12    1    3    3    0    0 -0.24785942136E+02 -0.28774648118E+02 -0.21292046541E+02  0.43539344825E+02  0.00000000000E+00 0.  1.
</event>
<event>
 7    1  0.1971192E-015  0.9000713E+02  0.7816164E-02  0.1186340E+00
        -11   -1    0    0    0    0  0.00000000000E+00  0.00000000000E+00  0.45593999997E+02  0.45594000000E+02  0.51100000000E-03 0.  1.
         11   -1    0    0    0    0 -0.00000000000E+00 -0.00000000000E+00 -0.45593999997E+02  0.45594000000E+02  0.51100000000E-03 0. -1.
    9900012    2    1    2    0    0  0.11584722882E+01  0.18229382450E+00  0.13842187274E+00  0.90007131804E+02  0.89999385142E+02 0.  0.
         12    1    1    2    0    0 -0.11584722882E+01 -0.18229382450E+00 -0.13842187274E+00  0.11808681958E+01  0.00000000000E+00 0. -1.
         11    1    3    3    0    0 -0.13259035789E+02  0.62920960921E+01  0.97621354666E+01  0.17626451498E+02  0.51100000000E-03 0. -1.
        -11    1    3    3    0    0 -0.24408182657E+02  0.11105635786E+02  0.53552020705E+01  0.27345433189E+02  0.51100000000E-03 0.  1.
         12    1    3    3    0    0  0.38825690734E+02 -0.17215438054E+02 -0.14978915664E+02  0.45035247117E+02  0.00000000000E+00 0. -1.
</event>
<event>
 7    1  0.1971192E-015  0.9000752E+02  0.7816164E-02  0.1186339E+00
        -11   -1    0    0    0    0  0.00000000000E+00  0.00000000000E+00  0.45593999997E+02  0.45594000000E+02  0.51100000000E-03 0.  1.
         11   -1    0    0    0    0 -0.00000000000E+00 -0.00000000000E+00 -0.45593999997E+02  0.45594000000E+02  0.51100000000E-03 0. -1.
    9900012    2    1    2    0    0  0.19891967808E+00  0.42056137007E+00  0.10849336957E+01  0.90007524660E+02  0.89999783185E+02 0.  0.
         12    1    1    2    0    0 -0.19891967808E+00 -0.42056137007E+00 -0.10849336957E+01  0.11804753400E+01  0.00000000000E+00 0. -1.
         11    1    3    3    0    0  0.31491493376E+02  0.12124283098E+02  0.77255857965E+01  0.34617872145E+02  0.51100000000E-03 0. -1.
        -11    1    3    3    0    0  0.31973708878E+01  0.11223586833E+02  0.44911795095E+01  0.12504510212E+02  0.51100000000E-03 0.  1.
        -12    1    3    3    0    0 -0.34489944585E+02 -0.22927308561E+02 -0.11131831610E+02  0.42885142303E+02  0.00000000000E+00 0.  1.
</event>
<event>
 7    1  0.1971192E-015  0.9000763E+02  0.7816164E-02  0.1186339E+00
        -11   -1    0    0    0    0  0.00000000000E+00  0.00000000000E+00  0.45593999997E+02  0.45594000000E+02  0.51100000000E-03 0. -1.
         11   -1    0    0    0    0 -0.00000000000E+00 -0.00000000000E+00 -0.45593999997E+02  0.45594000000E+02  0.51100000000E-03 0.  1.
    9900012    2    1    2    0    0 -0.91362110112E+00 -0.43409150380E+00 -0.60839328998E+00  0.90007626608E+02  0.89999886479E+02 0.  0.
         12    1    1    2    0    0  0.91362110112E+00  0.43409150380E+00  0.60839328998E+00  0.11803733924E+01  0.00000000000E+00 0. -1.
         11    1    3    3    0    0  0.80318334729E+00 -0.14925479451E+02  0.37617149913E+02  0.40477957065E+02  0.51100000000E-03 0. -1.
        -11    1    3    3    0    0  0.17125459805E+01  0.70197657655E+00  0.43061892372E+01  0.46870940738E+01  0.51100000000E-03 0.  1.
        -12    1    3    3    0    0 -0.34293504289E+01  0.13789411371E+02 -0.42531732440E+02  0.44842575469E+02  0.00000000000E+00 0.  1.
</event>
<event>
 7    1  0.1971192E-015  0.9000765E+02  0.7816164E-02  0.1186339E+00
        -11   -1    0    0    0    0  0.00000000000E+00  0.00000000000E+00  0.45593999997E+02  0.45594000000E+02  0.51100000000E-03 0.  1.
         11   -1    0    0    0    0 -0.00000000000E+00 -0.00000000000E+00 -0.45593999997E+02  0.45594000000E+02  0.51100000000E-03 0. -1.
    9900012    2    1    2    0    0 -0.97350279776E+00 -0.31972406365E+00 -0.58592101734E+00  0.90007646404E+02  0.89999906536E+02 0.  0.
         12    1    1    2    0    0  0.97350279776E+00  0.31972406365E+00  0.58592101734E+00  0.11803535965E+01  0.00000000000E+00 0. -1.
         11    1    3    3    0    0 -0.15966824614E+02  0.24516579506E+02 -0.31899797152E+02  0.43285092325E+02  0.51100000000E-03 0. -1.
        -11    1    3    3    0    0  0.75875200047E+01  0.97542768880E+00  0.50885196015E+01  0.91877609347E+01  0.51100000000E-03 0.  1.
        -12    1    3    3    0    0  0.74058018119E+01 -0.25811731259E+02  0.26225356533E+02  0.37534793144E+02  0.00000000000E+00 0.  1.
</event>
<event>
 7    1  0.1971192E-015  0.9000772E+02  0.7816164E-02  0.1186339E+00
        -11   -1    0    0    0    0  0.00000000000E+00  0.00000000000E+00  0.45593999997E+02  0.45594000000E+02  0.51100000000E-03 0.  1.
         11   -1    0    0    0    0 -0.00000000000E+00 -0.00000000000E+00 -0.45593999997E+02  0.45594000000E+02  0.51100000000E-03 0. -1.
    9900012    2    1    2    0    0  0.53370740518E+00  0.70850129681E+00  0.77861529195E+00  0.90007720603E+02  0.89999981715E+02 0.  0.
         12    1    1    2    0    0 -0.53370740518E+00 -0.70850129681E+00 -0.77861529195E+00  0.11802793969E+01  0.00000000000E+00 0. -1.
         11    1    3    3    0    0  0.16270687916E+02  0.19628058993E+02  0.36416949080E+02  0.44454360479E+02  0.51100000000E-03 0. -1.
        -11    1    3    3    0    0  0.24329544136E+01 -0.42990865390E+01 -0.78551203203E+01  0.92792417662E+01  0.51100000000E-03 0.  1.
        -12    1    3    3    0    0 -0.18169934924E+02 -0.14620471157E+02 -0.27783213468E+02  0.36274118357E+02  0.00000000000E+00 0.  1.
</event>
<event>
 7    1  0.1971192E-015  0.9000782E+02  0.7816164E-02  0.1186339E+00
        -11   -1    0    0    0    0  0.00000000000E+00  0.00000000000E+00  0.45593999997E+02  0.45594000000E+02  0.51100000000E-03 0. -1.
         11   -1    0    0    0    0 -0.00000000000E+00 -0.00000000000E+00 -0.45593999997E+02  0.45594000000E+02  0.51100000000E-03 0.  1.
    9900012    2    1    2    0    0 -0.10417426731E+01 -0.40966172764E+00 -0.37386413365E+00  0.90007819964E+02  0.90000082387E+02 0.  0.
         12    1    1    2    0    0  0.10417426731E+01  0.40966172764E+00  0.37386413365E+00  0.11801800365E+01  0.00000000000E+00 0. -1.
         11    1    3    3    0    0  0.42951923586E+01  0.58201643980E+01  0.14292205381E+01  0.73733074414E+01  0.51100000000E-03 0. -1.
        -11    1    3    3    0    0  0.36037465305E+02 -0.95481648938E+01  0.11555268989E+02  0.39030636686E+02  0.51100000000E-03 0.  1.
         12    1    3    3    0    0 -0.41374400337E+02  0.33183387681E+01 -0.13358353661E+02  0.43603875836E+02  0.00000000000E+00 0. -1.
</event>
<event>
 7    1  0.1971192E-015  0.9000771E+02  0.7816164E-02  0.1186339E+00
        -11   -1    0    0    0    0  0.00000000000E+00  0.00000000000E+00  0.45593999997E+02  0.45594000000E+02  0.51100000000E-03 0.  1.
         11   -1    0    0    0    0 -0.00000000000E+00 -0.00000000000E+00 -0.45593999997E+02  0.45594000000E+02  0.51100000000E-03 0. -1.
    9900012    2    1    2    0    0 -0.62482391701E+00 -0.88848124714E+00  0.46182997422E+00  0.90007707333E+02  0.89999968270E+02 0.  0.
         12    1    1    2    0    0  0.62482391701E+00  0.88848124714E+00 -0.46182997422E+00  0.11802926666E+01  0.00000000000E+00 0. -1.
         11    1    3    3    0    0 -0.24331114084E+01  0.95945387875E+01 -0.44278498266E+01  0.10843480070E+02  0.51100000000E-03 0. -1.
        -11    1    3    3    0    0 -0.88053055402E+01  0.92121461779E+00  0.39886100199E+02  0.40856860273E+02  0.51100000000E-03 0.  1.
         12    1    3    3    0    0  0.10613593032E+02 -0.11404234652E+02 -0.34996420398E+02  0.38307366991E+02  0.00000000000E+00 0. -1.
</event>
<event>
 7    1  0.1971192E-015  0.9000769E+02  0.7816164E-02  0.1186339E+00
        -11   -1    0    0    0    0  0.00000000000E+00  0.00000000000E+00  0.45593999997E+02  0.45594000000E+02  0.51100000000E-03 0. -1.
         11   -1    0    0    0    0 -0.00000000000E+00 -0.00000000000E+00 -0.45593999997E+02  0.45594000000E+02  0.51100000000E-03 0.  1.
    9900012    2    1    2    0    0 -0.27372855673E+00  0.11362005260E+01  0.16508727018E+00  0.90007689547E+02  0.89999950249E+02 0.  0.
         12    1    1    2    0    0  0.27372855673E+00 -0.11362005260E+01 -0.16508727018E+00  0.11803104528E+01  0.00000000000E+00 0. -1.
         11    1    3    3    0    0  0.15392672689E+02  0.31650117133E+02  0.20509247990E+02  0.40734426968E+02  0.51100000000E-03 0. -1.
        -11    1    3    3    0    0  0.62811774068E+01 -0.18853894639E+00 -0.72982701996E+01  0.96308610579E+01  0.51100000000E-03 0.  1.
        -12    1    3    3    0    0 -0.21947578652E+02 -0.30325377660E+02 -0.13045890520E+02  0.39642401522E+02  0.00000000000E+00 0.  1.
</event>
<event>
 7    1  0.1971192E-015  0.9000748E+02  0.7816164E-02  0.1186340E+00
        -11   -1    0    0    0    0  0.00000000000E+00  0.00000000000E+00  0.45593999997E+02  0.45594000000E+02  0.51100000000E-03 0.  1.
         11   -1    0    0    0    0 -0.00000000000E+00 -0.00000000000E+00 -0.45593999997E+02  0.45594000000E+02  0.51100000000E-03 0. -1.
    9900012    2    1    2    0    0 -0.35300428644E+00 -0.19317435588E-01  0.11263425636E+01  0.90007477760E+02  0.89999735666E+02 0.  0.
         12    1    1    2    0    0  0.35300428644E+00  0.19317435588E-01 -0.11263425636E+01  0.11805222404E+01  0.00000000000E+00 0. -1.
         11    1    3    3    0    0  0.27281263600E+02 -0.65338405101E+01 -0.26747709706E+02  0.38760784180E+02  0.51100000000E-03 0. -1.
        -11    1    3    3    0    0  0.43633179007E+01  0.63441064309E+01 -0.14605936281E+01  0.78370634498E+01  0.51100000000E-03 0.  1.
        -12    1    3    3    0    0 -0.31997585787E+02  0.17041664358E+00  0.29334645898E+02  0.43409630130E+02  0.00000000000E+00 0.  1.
</event>
<event>
 7    1  0.1971192E-015  0.9000777E+02  0.7816164E-02  0.1186339E+00
        -11   -1    0    0    0    0  0.00000000000E+00  0.00000000000E+00  0.45593999997E+02  0.45594000000E+02  0.51100000000E-03 0.  1.
         11   -1    0    0    0    0 -0.00000000000E+00 -0.00000000000E+00 -0.45593999997E+02  0.45594000000E+02  0.51100000000E-03 0. -1.
    9900012    2    1    2    0    0 -0.77761702896E+00 -0.59775370905E-01  0.88581754046E+00  0.90007773728E+02  0.90000035541E+02 0.  0.
         12    1    1    2    0    0  0.77761702896E+00  0.59775370905E-01 -0.88581754046E+00  0.11802262722E+01  0.00000000000E+00 0. -1.
         11    1    3    3    0    0 -0.27661026760E+02  0.11532721092E+02  0.21138944966E+02  0.36674119645E+02  0.51100000000E-03 0. -1.
        -11    1    3    3    0    0 -0.44269413758E+00  0.12105310981E+02 -0.50635328458E+00  0.12123981440E+02  0.51100000000E-03 0.  1.
        -12    1    3    3    0    0  0.27326103869E+02 -0.23697807444E+02 -0.19746774141E+02  0.41209672642E+02  0.00000000000E+00 0.  1.
</event>
<event>
 7    1  0.1971192E-015  0.9000750E+02  0.7816164E-02  0.1186340E+00
        -11   -1    0    0    0    0  0.00000000000E+00  0.00000000000E+00  0.45593999997E+02  0.45594000000E+02  0.51100000000E-03 0.  1.
         11   -1    0    0    0    0 -0.00000000000E+00 -0.00000000000E+00 -0.45593999997E+02  0.45594000000E+02  0.51100000000E-03 0. -1.
    9900012    2    1    2    0    0  0.11644786946E+01 -0.19376385398E+00  0.59372517259E-02  0.90007495738E+02  0.89999753882E+02 0.  0.
         12    1    1    2    0    0 -0.11644786946E+01  0.19376385398E+00 -0.59372517259E-02  0.11805042618E+01  0.00000000000E+00 0. -1.
         11    1    3    3    0    0  0.79710722778E+01 -0.48459904836E+00  0.51592795671E+01  0.95074179149E+01  0.51100000000E-03 0. -1.
        -11    1    3    3    0    0 -0.19251333462E+01  0.36862329719E+02  0.13314381613E+02  0.39240416011E+02  0.51100000000E-03 0.  1.
         12    1    3    3    0    0 -0.48814602370E+01 -0.36571494525E+02 -0.18467723928E+02  0.41259661813E+02  0.00000000000E+00 0. -1.
</event>
<event>
 7    1  0.1971192E-015  0.9000771E+02  0.7816164E-02  0.1186339E+00
        -11   -1    0    0    0    0  0.00000000000E+00  0.00000000000E+00  0.45593999997E+02  0.45594000000E+02  0.51100000000E-03 0.  1.
         11   -1    0    0    0    0 -0.00000000000E+00 -0.00000000000E+00 -0.45593999997E+02  0.45594000000E+02  0.51100000000E-03 0. -1.
    9900012    2    1    2    0    0  0.93135192636E+00  0.71489647799E+00 -0.12081263477E+00  0.90007708054E+02  0.89999969000E+02 0.  0.
         12    1    1    2    0    0 -0.93135192636E+00 -0.71489647799E+00  0.12081263477E+00  0.11802919460E+01  0.00000000000E+00 0. -1.
         11    1    3    3    0    0  0.85144745961E+01  0.45614971092E+01  0.37865505028E+01  0.10375042096E+02  0.51100000000E-03 0. -1.
        -11    1    3    3    0    0  0.26814995400E+02  0.90618039743E+01 -0.24569365006E+02  0.37480847997E+02  0.51100000000E-03 0.  1.
         12    1    3    3    0    0 -0.34398118069E+02 -0.12908404605E+02  0.20662001868E+02  0.42151817961E+02  0.00000000000E+00 0. -1.
</event>
<event>
 7    1  0.1971192E-015  0.9000782E+02  0.7816164E-02  0.1186339E+00
        -11   -1    0    0    0    0  0.00000000000E+00  0.00000000000E+00  0.45593999997E+02  0.45594000000E+02  0.51100000000E-03 0.  1.
         11   -1    0    0    0    0 -0.00000000000E+00 -0.00000000000E+00 -0.45593999997E+02  0.45594000000E+02  0.51100000000E-03 0. -1.
    9900012    2    1    2    0    0  0.11052064452E+01  0.37960344853E+00  0.16509372542E+00  0.90007815268E+02  0.90000077629E+02 0.  0.
         12    1    1    2    0    0 -0.11052064452E+01 -0.37960344853E+00 -0.16509372542E+00  0.11801847325E+01  0.00000000000E+00 0. -1.
         11    1    3    3    0    0  0.10323896566E+02  0.20110847873E+02 -0.14914723159E+02  0.27082799147E+02  0.51100000000E-03 0. -1.
        -11    1    3    3    0    0  0.90178099565E+01  0.11828509481E+02 -0.10663037702E+02  0.18301226906E+02  0.51100000000E-03 0.  1.
        -12    1    3    3    0    0 -0.18236500077E+02 -0.31559753905E+02  0.25742854586E+02  0.44623789215E+02  0.00000000000E+00 0.  1.
</event>
<event>
 7    1  0.1971192E-015  0.9000766E+02  0.7816164E-02  0.1186339E+00
        -11   -1    0    0    0    0  0.00000000000E+00  0.00000000000E+00  0.45593999997E+02  0.45594000000E+02  0.51100000000E-03 0. -1.
         11   -1    0    0    0    0 -0.00000000000E+00 -0.00000000000E+00 -0.45593999997E+02  0.45594000000E+02  0.51100000000E-03 0.  1.
    9900012    2    1    2    0    0 -0.82349039715E+00  0.40630112476E+00 -0.74160306322E+00  0.90007664395E+02  0.89999924764E+02 0.  0.
         12    1    1    2    0    0  0.82349039715E+00 -0.40630112476E+00  0.74160306322E+00  0.11803356055E+01  0.00000000000E+00 0. -1.
         11    1    3    3    0    0 -0.98999834398E-01  0.89106846707E+01  0.24083803838E+01  0.92309478713E+01  0.51100000000E-03 0. -1.
        -11    1    3    3    0    0  0.15587964267E+02  0.32766906845E+02 -0.28515927633E+01  0.36397615247E+02  0.51100000000E-03 0.  1.
         12    1    3    3    0    0 -0.16312454830E+02 -0.41271290390E+02 -0.29839068370E+00  0.44379101276E+02  0.00000000000E+00 0. -1.
</event>
<event>
 7    1  0.1971192E-015  0.9000765E+02  0.7816164E-02  0.1186339E+00
        -11   -1    0    0    0    0  0.00000000000E+00  0.00000000000E+00  0.45593999997E+02  0.45594000000E+02  0.51100000000E-03 0.  1.
         11   -1    0    0    0    0 -0.00000000000E+00 -0.00000000000E+00 -0.45593999997E+02  0.45594000000E+02  0.51100000000E-03 0. -1.
    9900012    2    1    2    0    0  0.11469566647E+00  0.93797389301E+00  0.70729424447E+00  0.90007654598E+02  0.89999914839E+02 0.  0.
         12    1    1    2    0    0 -0.11469566647E+00 -0.93797389301E+00 -0.70729424447E+00  0.11803454020E+01  0.00000000000E+00 0. -1.
         11    1    3    3    0    0 -0.15719123767E+01  0.13354659328E+02  0.56923049143E+01  0.14602060463E+02  0.51100000000E-03 0. -1.
        -11    1    3    3    0    0 -0.35563835827E+02  0.11533427370E+01 -0.16605146928E+01  0.35621256681E+02  0.51100000000E-03 0.  1.
         12    1    3    3    0    0  0.37250443870E+02 -0.13570028172E+02 -0.33244959771E+01  0.39784337454E+02  0.00000000000E+00 0. -1.
</event>
<event>
 7    1  0.1971192E-015  0.9000688E+02  0.7816164E-02  0.1186341E+00
        -11   -1    0    0    0    0  0.00000000000E+00  0.00000000000E+00  0.45593999997E+02  0.45594000000E+02  0.51100000000E-03 0. -1.
         11   -1    0    0    0    0 -0.00000000000E+00 -0.00000000000E+00 -0.45593999997E+02  0.45594000000E+02  0.51100000000E-03 0.  1.
    9900012    2    1    2    0    0  0.44658352836E+00  0.99335747223E+00  0.45699266229E+00  0.90006882644E+02  0.89999132691E+02 0.  0.
         12    1    1    2    0    0 -0.44658352836E+00 -0.99335747223E+00 -0.45699266229E+00  0.11811173561E+01  0.00000000000E+00 0. -1.
         11    1    3    3    0    0  0.15883490426E+02 -0.39836488988E+01 -0.68277331082E+01  0.17741833792E+02  0.51100000000E-03 0. -1.
        -11    1    3    3    0    0  0.25069548746E+02 -0.32444940298E+01 -0.10366154631E+02  0.27321533228E+02  0.51100000000E-03 0.  1.
         12    1    3    3    0    0 -0.40506455644E+02  0.82215004008E+01  0.17650880401E+02  0.44943515623E+02  0.00000000000E+00 0. -1.
</event>
<event>
 7    1  0.1971192E-015  0.9000775E+02  0.7816164E-02  0.1186339E+00
        -11   -1    0    0    0    0  0.00000000000E+00  0.00000000000E+00  0.45593999997E+02  0.45594000000E+02  0.51100000000E-03 0. -1.
         11   -1    0    0    0    0 -0.00000000000E+00 -0.00000000000E+00 -0.45593999997E+02  0.45594000000E+02  0.51100000000E-03 0.  1.
    9900012    2    1    2    0    0  0.30486577357E-02 -0.11748140511E+01 -0.11306335708E+00  0.90007753978E+02  0.90000015531E+02 0.  0.
         12    1    1    2    0    0 -0.30486577357E-02  0.11748140511E+01  0.11306335708E+00  0.11802460217E+01  0.00000000000E+00 0. -1.
         11    1    3    3    0    0  0.43027359269E+01 -0.17741188336E+01  0.79156362683E+01  0.91825013959E+01  0.51100000000E-03 0. -1.
        -11    1    3    3    0    0  0.23792339115E+02  0.30135824524E+02 -0.11040878865E+02  0.39951775013E+02  0.51100000000E-03 0.  1.
         12    1    3    3    0    0 -0.28092026384E+02 -0.29536519742E+02  0.30121792393E+01  0.40873477569E+02  0.00000000000E+00 0. -1.
</event>
<event>
 7    1  0.1971192E-015  0.9000770E+02  0.7816164E-02  0.1186339E+00
        -11   -1    0    0    0    0  0.00000000000E+00  0.00000000000E+00  0.45593999997E+02  0.45594000000E+02  0.51100000000E-03 0.  1.
         11   -1    0    0    0    0 -0.00000000000E+00 -0.00000000000E+00 -0.45593999997E+02  0.45594000000E+02  0.51100000000E-03 0. -1.
    9900012    2    1    2    0    0  0.17930515079E+00  0.69225231623E+00  0.93901831671E+00  0.90007695376E+02  0.89999956155E+02 0.  0.
         12    1    1    2    0    0 -0.17930515079E+00 -0.69225231623E+00 -0.93901831671E+00  0.11803046240E+01  0.00000000000E+00 0. -1.
         11    1    3    3    0    0 -0.16912841651E+01 -0.33582115144E+02 -0.12587225986E+02  0.35903442147E+02  0.51100000000E-03 0. -1.
        -11    1    3    3    0    0  0.10134720238E+02 -0.42207567645E+01 -0.30356783949E+01  0.11390464677E+02  0.51100000000E-03 0.  1.
        -12    1    3    3    0    0 -0.82641309226E+01  0.38495124225E+02  0.16561922698E+02  0.42713788552E+02  0.00000000000E+00 0.  1.
</event>
<event>
 7    1  0.1971192E-015  0.9000770E+02  0.7816164E-02  0.1186339E+00
        -11   -1    0    0    0    0  0.00000000000E+00  0.00000000000E+00  0.45593999997E+02  0.45594000000E+02  0.51100000000E-03 0.  1.
         11   -1    0    0    0    0 -0.00000000000E+00 -0.00000000000E+00 -0.45593999997E+02  0.45594000000E+02  0.51100000000E-03 0. -1.
    9900012    2    1    2    0    0 -0.10125334848E+01 -0.59114600974E+00 -0.13579401835E+00  0.90007695938E+02  0.89999956725E+02 0.  0.
         12    1    1    2    0    0  0.10125334848E+01  0.59114600974E+00  0.13579401835E+00  0.11803040617E+01  0.00000000000E+00 0. -1.
         11    1    3    3    0    0  0.34436225017E+02 -0.50272346227E+01 -0.73380918010E+01  0.35566476813E+02  0.51100000000E-03 0. -1.
        -11    1    3    3    0    0  0.77874910837E+01 -0.53173458577E+01 -0.54970017168E+00  0.94457056321E+01  0.51100000000E-03 0.  1.
        -12    1    3    3    0    0 -0.43236249586E+02  0.97534344707E+01  0.77519979544E+01  0.44995513493E+02  0.00000000000E+00 0.  1.
</event>
<event>
 7    1  0.1971192E-015  0.9000775E+02  0.7816164E-02  0.1186339E+00
        -11   -1    0    0    0    0  0.00000000000E+00  0.00000000000E+00  0.45593999997E+02  0.45594000000E+02  0.51100000000E-03 0. -1.
         11   -1    0    0    0    0 -0.00000000000E+00 -0.00000000000E+00 -0.45593999997E+02  0.45594000000E+02  0.51100000000E-03 0.  1.
    9900012    2    1    2    0    0 -0.86669341372E-01  0.10862258645E+01 -0.45341579670E+00  0.90007752531E+02  0.90000014064E+02 0.  0.
         12    1    1    2    0    0  0.86669341372E-01 -0.10862258645E+01  0.45341579670E+00  0.11802474690E+01  0.00000000000E+00 0. -1.
         11    1    3    3    0    0  0.64573756379E+01  0.32274233272E+02 -0.23023143411E+02  0.40167013409E+02  0.51100000000E-03 0. -1.
        -11    1    3    3    0    0  0.40244560475E+01  0.46350204921E+01  0.71762992339E+01  0.94434597683E+01  0.51100000000E-03 0.  1.
        -12    1    3    3    0    0 -0.10568501027E+02 -0.35823027900E+02  0.15393428381E+02  0.40397279353E+02  0.00000000000E+00 0.  1.
</event>
<event>
 7    1  0.1971192E-015  0.9000775E+02  0.7816164E-02  0.1186339E+00
        -11   -1    0    0    0    0  0.00000000000E+00  0.00000000000E+00  0.45593999997E+02  0.45594000000E+02  0.51100000000E-03 0.  1.
         11   -1    0    0    0    0 -0.00000000000E+00 -0.00000000000E+00 -0.45593999997E+02  0.45594000000E+02  0.51100000000E-03 0. -1.
    9900012    2    1    2    0    0 -0.10651721039E+01 -0.16039722814E+00 -0.48235383994E+00  0.90007752522E+02  0.90000014056E+02 0.  0.
         12    1    1    2    0    0  0.10651721039E+01  0.16039722814E+00  0.48235383994E+00  0.11802474777E+01  0.00000000000E+00 0. -1.
         11    1    3    3    0    0  0.74409059116E+01  0.33170245015E+02 -0.15798677137E+02  0.37486403331E+02  0.51100000000E-03 0. -1.
        -11    1    3    3    0    0 -0.72471172140E+01  0.66658331805E+01  0.56566065083E+01  0.11355669833E+02  0.51100000000E-03 0.  1.
        -12    1    3    3    0    0 -0.12589608015E+01 -0.39996475424E+02  0.96597167885E+01  0.41165679359E+02  0.00000000000E+00 0.  1.
</event>
<event>
 7    1  0.1971192E-015  0.9000818E+02  0.7816164E-02  0.1186338E+00
        -11   -1    0    0    0    0  0.00000000000E+00  0.00000000000E+00  0.45593999997E+02  0.45594000000E+02  0.51100000000E-03 0.  1.
         11   -1    0    0    0    0 -0.00000000000E+00 -0.00000000000E+00 -0.45593999997E+02  0.45594000000E+02  0.51100000000E-03 0. -1.
    9900012    2    1    2    0    0  0.96878044113E+00 -0.27883881464E+00 -0.61293088979E+00  0.90008181835E+02  0.90000449034E+02 0.  0.
         12    1    1    2    0    0 -0.96878044113E+00  0.27883881464E+00  0.61293088979E+00  0.11798181654E+01  0.00000000000E+00 0. -1.
         11    1    3    3    0    0 -0.55598337025E+01  0.42423619593E+02 -0.14445803784E+01  0.42810770408E+02  0.51100000000E-03 0. -1.
        -11    1    3    3    0    0 -0.63800199226E+01 -0.84780249117E+01  0.35484709582E+00  0.10616377788E+02  0.51100000000E-03 0.  1.
        -12    1    3    3    0    0  0.12908634066E+02 -0.34224433496E+02  0.47680239284E+00  0.36581033639E+02  0.00000000000E+00 0.  1.
</event>
<event>
 7    1  0.1971192E-015  0.9000770E+02  0.7816164E-02  0.1186339E+00
        -11   -1    0    0    0    0  0.00000000000E+00  0.00000000000E+00  0.45593999997E+02  0.45594000000E+02  0.51100000000E-03 0.  1.
         11   -1    0    0    0    0 -0.00000000000E+00 -0.00000000000E+00 -0.45593999997E+02  0.45594000000E+02  0.51100000000E-03 0. -1.
    9900012    2    1    2    0    0  0.10376247338E+01  0.46538188057E-01  0.56060314855E+00  0.90007700554E+02  0.89999961402E+02 0.  0.
         12    1    1    2    0    0 -0.10376247338E+01 -0.46538188057E-01 -0.56060314855E+00  0.11802994456E+01  0.00000000000E+00 0. -1.
         11    1    3    3    0    0  0.13604510248E+01 -0.65951839049E+01  0.58577318726E+01  0.89252619392E+01  0.51100000000E-03 0. -1.
        -11    1    3    3    0    0 -0.11860623916E+02  0.23479275083E+02  0.30252684432E+02  0.40089595579E+02  0.51100000000E-03 0.  1.
         12    1    3    3    0    0  0.11537797625E+02 -0.16837552990E+02 -0.35549813156E+02  0.40992843036E+02  0.00000000000E+00 0. -1.
</event>
<event>
 7    1  0.1971192E-015  0.9000773E+02  0.7816164E-02  0.1186339E+00
        -11   -1    0    0    0    0  0.00000000000E+00  0.00000000000E+00  0.45593999997E+02  0.45594000000E+02  0.51100000000E-03 0.  1.
         11   -1    0    0    0    0 -0.00000000000E+00 -0.00000000000E+00 -0.45593999997E+02  0.45594000000E+02  0.51100000000E-03 0. -1.
    9900012    2    1    2    0    0  0.91780091386E-01 -0.10781960010E+01  0.47127407950E+00  0.90007733310E+02  0.89999994590E+02 0.  0.
         12    1    1    2    0    0 -0.91780091386E-01  0.10781960010E+01 -0.47127407950E+00  0.11802666901E+01  0.00000000000E+00 0. -1.
         11    1    3    3    0    0 -0.82131579686E+01  0.19505586850E+02 -0.27945094278E+02  0.35054987899E+02  0.51100000000E-03 0. -1.
        -11    1    3    3    0    0  0.66006117534E+01  0.86593374540E+01 -0.36852886926E+01  0.11494936001E+02  0.51100000000E-03 0.  1.
        -12    1    3    3    0    0  0.17043263065E+01 -0.29243120305E+02  0.32101657050E+02  0.43457809409E+02  0.00000000000E+00 0.  1.
</event>
<event>
 7    1  0.1971192E-015  0.9000807E+02  0.7816164E-02  0.1186338E+00
        -11   -1    0    0    0    0  0.00000000000E+00  0.00000000000E+00  0.45593999997E+02  0.45594000000E+02  0.51100000000E-03 0.  1.
         11   -1    0    0    0    0 -0.00000000000E+00 -0.00000000000E+00 -0.45593999997E+02  0.45594000000E+02  0.51100000000E-03 0. -1.
    9900012    2    1    2    0    0  0.23891826334E+00  0.68330832766E+00  0.93179880285E+00  0.90008067283E+02  0.90000332971E+02 0.  0.
         12    1    1    2    0    0 -0.23891826334E+00 -0.68330832766E+00 -0.93179880285E+00  0.11799327168E+01  0.00000000000E+00 0. -1.
         11    1    3    3    0    0  0.23816015343E+02 -0.11682864901E+02 -0.28669616277E+02  0.39059426735E+02  0.51100000000E-03 0. -1.
        -11    1    3    3    0    0 -0.14599111553E+02 -0.94244512731E+01  0.86325166050E+01  0.19402955526E+02  0.51100000000E-03 0.  1.
        -12    1    3    3    0    0 -0.89779855267E+01  0.21790624502E+02  0.20968898474E+02  0.31545685023E+02  0.00000000000E+00 0.  1.
</event>
<event>
 7    1  0.1971192E-015  0.9000778E+02  0.7816164E-02  0.1186339E+00
        -11   -1    0    0    0    0  0.00000000000E+00  0.00000000000E+00  0.45593999997E+02  0.45594000000E+02  0.51100000000E-03 0.  1.
         11   -1    0    0    0    0 -0.00000000000E+00 -0.00000000000E+00 -0.45593999997E+02  0.45594000000E+02  0.51100000000E-03 0. -1.
    9900012    2    1    2    0    0 -0.24210498981E+00  0.99356661117E+00  0.58918475269E+00  0.90007776246E+02  0.90000038092E+02 0.  0.
         12    1    1    2    0    0  0.24210498981E+00 -0.99356661117E+00 -0.58918475269E+00  0.11802237541E+01  0.00000000000E+00 0. -1.
         11    1    3    3    0    0 -0.36909814227E+02  0.10368275919E+02 -0.18256137231E+02  0.42463184981E+02  0.51100000000E-03 0. -1.
        -11    1    3    3    0    0 -0.15970064635E+01 -0.47456260971E+01  0.32259381845E+01  0.59563473815E+01  0.51100000000E-03 0.  1.
        -12    1    3    3    0    0  0.38264715701E+02 -0.46290832111E+01  0.15619383799E+02  0.41588243884E+02  0.00000000000E+00 0.  1.
</event>
<event>
 7    1  0.1971192E-015  0.9000772E+02  0.7816164E-02  0.1186339E+00
        -11   -1    0    0    0    0  0.00000000000E+00  0.00000000000E+00  0.45593999997E+02  0.45594000000E+02  0.51100000000E-03 0.  1.
         11   -1    0    0    0    0 -0.00000000000E+00 -0.00000000000E+00 -0.45593999997E+02  0.45594000000E+02  0.51100000000E-03 0. -1.
    9900012    2    1    2    0    0  0.10265133894E+00  0.10401970421E+01  0.54819417742E+00  0.90007718661E+02  0.89999979747E+02 0.  0.
         12    1    1    2    0    0 -0.10265133894E+00 -0.10401970421E+01 -0.54819417742E+00  0.11802813393E+01  0.00000000000E+00 0. -1.
         11    1    3    3    0    0  0.21371505210E+01  0.60964759967E+01  0.12127006761E+02  0.13740404840E+02  0.51100000000E-03 0. -1.
        -11    1    3    3    0    0  0.11648465034E+02  0.82498669808E+01  0.28500721799E+02  0.31875353899E+02  0.51100000000E-03 0.  1.
         12    1    3    3    0    0 -0.13682964217E+02 -0.13306145935E+02 -0.40079534382E+02  0.44391959922E+02  0.00000000000E+00 0. -1.
</event>
<event>
 7    1  0.1971192E-015  0.9000781E+02  0.7816164E-02  0.1186339E+00
        -11   -1    0    0    0    0  0.00000000000E+00  0.00000000000E+00  0.45593999997E+02  0.45594000000E+02  0.51100000000E-03 0.  1.
         11   -1    0    0    0    0 -0.00000000000E+00 -0.00000000000E+00 -0.45593999997E+02  0.45594000000E+02  0.51100000000E-03 0. -1.
    9900012    2    1    2    0    0 -0.54473833179E+00  0.10413271636E+01 -0.10842047291E+00  0.90007806325E+02  0.90000068568E+02 0.  0.
         12    1    1    2    0    0  0.54473833179E+00 -0.10413271636E+01  0.10842047291E+00  0.11801936751E+01  0.00000000000E+00 0. -1.
         11    1    3    3    0    0 -0.17346664791E+01 -0.67151161426E+01  0.66584184376E+01  0.96143844812E+01  0.51100000000E-03 0. -1.
        -11    1    3    3    0    0  0.34173880323E+02  0.10357496601E+02  0.17104911755E+02  0.39594315736E+02  0.51100000000E-03 0.  1.
         12    1    3    3    0    0 -0.32983952176E+02 -0.26010532947E+01 -0.23871750665E+02  0.40799106108E+02  0.00000000000E+00 0. -1.
</event>
<event>
 7    1  0.1971192E-015  0.9000818E+02  0.7816164E-02  0.1186338E+00
        -11   -1    0    0    0    0  0.00000000000E+00  0.00000000000E+00  0.45593999997E+02  0.45594000000E+02  0.51100000000E-03 0.  1.
         11   -1    0    0    0    0 -0.00000000000E+00 -0.00000000000E+00 -0.45593999997E+02  0.45594000000E+02  0.51100000000E-03 0. -1.
    9900012    2    1    2    0    0  0.32457822575E+00  0.15514055076E-01  0.11341884196E+01  0.90008180064E+02  0.90000447240E+02 0.  0.
         12    1    1    2    0    0 -0.32457822575E+00 -0.15514055076E-01 -0.11341884196E+01  0.11798199362E+01  0.00000000000E+00 0. -1.
         11    1    3    3    0    0 -0.14746484365E+02  0.80673921431E+01  0.10533749356E+02  0.19836872054E+02  0.51100000000E-03 0. -1.
        -11    1    3    3    0    0  0.36817444908E+01 -0.20620986095E+01  0.29189618849E+02  0.29493072779E+02  0.51100000000E-03 0.  1.
         12    1    3    3    0    0  0.11389318100E+02 -0.59897794786E+01 -0.38589179785E+02  0.40678235231E+02  0.00000000000E+00 0. -1.
</event>
<event>
 7    1  0.1971192E-015  0.9000774E+02  0.7816164E-02  0.1186339E+00
        -11   -1    0    0    0    0  0.00000000000E+00  0.00000000000E+00  0.45593999997E+02  0.45594000000E+02  0.51100000000E-03 0.  1.
         11   -1    0    0    0    0 -0.00000000000E+00 -0.00000000000E+00 -0.45593999997E+02  0.45594000000E+02  0.51100000000E-03 0. -1.
    9900012    2    1    2    0    0  0.73516927738E-01  0.72600364027E+00  0.92764607246E+00  0.90007740173E+02  0.90000001543E+02 0.  0.
         12    1    1    2    0    0 -0.73516927738E-01 -0.72600364027E+00 -0.92764607246E+00  0.11802598274E+01  0.00000000000E+00 0. -1.
         11    1    3    3    0    0 -0.80946399346E+01 -0.19295028688E+02 -0.25934460427E+02  0.33322928527E+02  0.51100000000E-03 0. -1.
        -11    1    3    3    0    0  0.48236451236E+01 -0.11409247256E+02  0.21229609912E+02  0.24579154023E+02  0.51100000000E-03 0.  1.
        -12    1    3    3    0    0  0.33445117387E+01  0.31430279585E+02  0.56324965877E+01  0.32105657622E+02  0.00000000000E+00 0.  1.
</event>
<event>
 7    1  0.1971192E-015  0.9000788E+02  0.7816164E-02  0.1186339E+00
        -11   -1    0    0    0    0  0.00000000000E+00  0.00000000000E+00  0.45593999997E+02  0.45594000000E+02  0.51100000000E-03 0.  1.
         11   -1    0    0    0    0 -0.00000000000E+00 -0.00000000000E+00 -0.45593999997E+02  0.45594000000E+02  0.51100000000E-03 0. -1.
    9900012    2    1    2    0    0  0.65877701288E+00  0.36433179323E-03  0.97913121441E+00  0.90007879150E+02  0.90000142355E+02 0.  0.
         12    1    1    2    0    0 -0.65877701288E+00 -0.36433179323E-03 -0.97913121441E+00  0.11801208499E+01  0.00000000000E+00 0. -1.
         11    1    3    3    0    0  0.27411974845E+02 -0.62755997149E+01  0.27753052240E+02  0.39509890225E+02  0.51100000000E-03 0. -1.
        -11    1    3    3    0    0 -0.49466025466E+01 -0.53538295475E+01  0.60065155661E+01  0.94451361602E+01  0.51100000000E-03 0.  1.
        -12    1    3    3    0    0 -0.21806595285E+02  0.11629793594E+02 -0.32780436592E+02  0.41052852765E+02  0.00000000000E+00 0.  1.
</event>
<event>
 7    1  0.1971192E-015  0.9000771E+02  0.7816164E-02  0.1186339E+00
        -11   -1    0    0    0    0  0.00000000000E+00  0.00000000000E+00  0.45593999997E+02  0.45594000000E+02  0.51100000000E-03 0.  1.
         11   -1    0    0    0    0 -0.00000000000E+00 -0.00000000000E+00 -0.45593999997E+02  0.45594000000E+02  0.51100000000E-03 0. -1.
    9900012    2    1    2    0    0 -0.55744687784E+00  0.77906854831E+00  0.68948316668E+00  0.90007711111E+02  0.89999972098E+02 0.  0.
         12    1    1    2    0    0  0.55744687784E+00 -0.77906854831E+00 -0.68948316668E+00  0.11802888891E+01  0.00000000000E+00 0. -1.
         11    1    3    3    0    0 -0.11076723838E+02 -0.23864728352E+01 -0.71731587009E+01  0.13410565596E+02  0.51100000000E-03 0. -1.
        -11    1    3    3    0    0  0.30895073043E+02 -0.25578164143E+02  0.98738057748E+01  0.41306658785E+02  0.51100000000E-03 0.  1.
         12    1    3    3    0    0 -0.20375796082E+02  0.28743705527E+02 -0.20111639073E+01  0.35290486730E+02  0.00000000000E+00 0. -1.
</event>
<event>
 7    1  0.1971192E-015  0.9000776E+02  0.7816164E-02  0.1186339E+00
        -11   -1    0    0    0    0  0.00000000000E+00  0.00000000000E+00  0.45593999997E+02  0.45594000000E+02  0.51100000000E-03 0.  1.
         11   -1    0    0    0    0 -0.00000000000E+00 -0.00000000000E+00 -0.45593999997E+02  0.45594000000E+02  0.51100000000E-03 0. -1.
    9900012    2    1    2    0    0  0.11581327142E+01  0.11852636069E+00  0.19404862637E+00  0.90007756486E+02  0.90000018072E+02 0.  0.
         12    1    1    2    0    0 -0.11581327142E+01 -0.11852636069E+00 -0.19404862637E+00  0.11802435136E+01  0.00000000000E+00 0. -1.
         11    1    3    3    0    0 -0.16887118789E+02 -0.10671980536E+02 -0.32610032439E+02  0.38242387026E+02  0.51100000000E-03 0. -1.
        -11    1    3    3    0    0  0.72176098995E+01  0.24419490848E+01 -0.65850640790E+01  0.10070753556E+02  0.51100000000E-03 0.  1.
        -12    1    3    3    0    0  0.10827641604E+02  0.83485578119E+01  0.39389145144E+02  0.41694615904E+02  0.00000000000E+00 0.  1.
</event>
<event>
 7    1  0.1971192E-015  0.9000776E+02  0.7816164E-02  0.1186339E+00
        -11   -1    0    0    0    0  0.00000000000E+00  0.00000000000E+00  0.45593999997E+02  0.45594000000E+02  0.51100000000E-03 0. -1.
         11   -1    0    0    0    0 -0.00000000000E+00 -0.00000000000E+00 -0.45593999997E+02  0.45594000000E+02  0.51100000000E-03 0.  1.
    9900012    2    1    2    0    0 -0.72937565651E+00 -0.69186021373E+00 -0.61831623988E+00  0.90007756645E+02  0.90000018233E+02 0.  0.
         12    1    1    2    0    0  0.72937565651E+00  0.69186021373E+00  0.61831623988E+00  0.11802433546E+01  0.00000000000E+00 0. -1.
         11    1    3    3    0    0 -0.78983980169E+01  0.14348072110E+01  0.51865817069E+01  0.95574051410E+01  0.51100000000E-03 0. -1.
        -11    1    3    3    0    0 -0.26497997075E+02  0.80510828686E+01  0.22197951641E+02  0.35492433584E+02  0.51100000000E-03 0.  1.
         12    1    3    3    0    0  0.33667019436E+02 -0.10177750293E+02 -0.28002849588E+02  0.44957917921E+02  0.00000000000E+00 0. -1.
</event>
<event>
 7    1  0.1971192E-015  0.9000763E+02  0.7816164E-02  0.1186339E+00
        -11   -1    0    0    0    0  0.00000000000E+00  0.00000000000E+00  0.45593999997E+02  0.45594000000E+02  0.51100000000E-03 0.  1.
         11   -1    0    0    0    0 -0.00000000000E+00 -0.00000000000E+00 -0.45593999997E+02  0.45594000000E+02  0.51100000000E-03 0. -1.
    9900012    2    1    2    0    0  0.20621449502E+00 -0.13335925278E+00  0.11545390235E+01  0.90007631640E+02  0.89999891578E+02 0.  0.
         12    1    1    2    0    0 -0.20621449502E+00  0.13335925278E+00 -0.11545390235E+01  0.11803683599E+01  0.00000000000E+00 0. -1.
         11    1    3    3    0    0  0.18942974498E+02 -0.32885450948E+02  0.47175146098E+01  0.38243223076E+02  0.51100000000E-03 0. -1.
        -11    1    3    3    0    0 -0.23999880587E+01 -0.42748286435E+01 -0.96639832962E+01  0.10836358984E+02  0.51100000000E-03 0.  1.
        -12    1    3    3    0    0 -0.16336771944E+02  0.37026920339E+02  0.61010077098E+01  0.40928049580E+02  0.00000000000E+00 0.  1.
</event>
<event>
 7    1  0.1971192E-015  0.9000774E+02  0.7816164E-02  0.1186339E+00
        -11   -1    0    0    0    0  0.00000000000E+00  0.00000000000E+00  0.45593999997E+02  0.45594000000E+02  0.51100000000E-03 0.  1.
         11   -1    0    0    0    0 -0.00000000000E+00 -0.00000000000E+00 -0.45593999997E+02  0.45594000000E+02  0.51100000000E-03 0. -1.
    9900012    2    1    2    0    0  0.28501865796E+00 -0.11250820485E+01  0.21442498246E+00  0.90007735909E+02  0.89999997223E+02 0.  0.
         12    1    1    2    0    0 -0.28501865796E+00  0.11250820485E+01 -0.21442498246E+00  0.11802640909E+01  0.00000000000E+00 0. -1.
         11    1    3    3    0    0  0.84600457010E+01  0.19994515824E+02  0.29472373520E+01  0.21909797913E+02  0.51100000000E-03 0. -1.
        -11    1    3    3    0    0  0.14463087563E+02  0.12297984570E+02 -0.16802546290E+02  0.25352453302E+02  0.51100000000E-03 0.  1.
         12    1    3    3    0    0 -0.22638114606E+02 -0.33417582442E+02  0.14069733921E+02  0.42745484695E+02  0.00000000000E+00 0. -1.
</event>
<event>
 7    1  0.1971192E-015  0.9000775E+02  0.7816164E-02  0.1186339E+00
        -11   -1    0    0    0    0  0.00000000000E+00  0.00000000000E+00  0.45593999997E+02  0.45594000000E+02  0.51100000000E-03 0.  1.
         11   -1    0    0    0    0 -0.00000000000E+00 -0.00000000000E+00 -0.45593999997E+02  0.45594000000E+02  0.51100000000E-03 0. -1.
    9900012    2    1    2    0    0  0.11500607092E+01 -0.24717486954E+00 -0.96238603257E-01  0.90007747095E+02  0.90000008557E+02 0.  0.
         12    1    1    2    0    0 -0.11500607092E+01  0.24717486954E+00  0.96238603257E-01  0.11802529050E+01  0.00000000000E+00 0. -1.
         11    1    3    3    0    0 -0.12340497768E+01  0.82234823512E+01 -0.50835362245E+01  0.97463265715E+01  0.51100000000E-03 0. -1.
        -11    1    3    3    0    0  0.83712452804E+01  0.25513178558E+02  0.27992333118E+02  0.38788796595E+02  0.51100000000E-03 0.  1.
         12    1    3    3    0    0 -0.59871347944E+01 -0.33983835778E+02 -0.23005035497E+02  0.41472623928E+02  0.00000000000E+00 0. -1.
</event>
<event>
 7    1  0.1971192E-015  0.9000776E+02  0.7816164E-02  0.1186339E+00
        -11   -1    0    0    0    0  0.00000000000E+00  0.00000000000E+00  0.45593999997E+02  0.45594000000E+02  0.51100000000E-03 0. -1.
         11   -1    0    0    0    0 -0.00000000000E+00 -0.00000000000E+00 -0.45593999997E+02  0.45594000000E+02  0.51100000000E-03 0.  1.
    9900012    2    1    2    0    0  0.77460995784E+00  0.39718402828E+00  0.79698174584E+00  0.90007764582E+02  0.90000026274E+02 0.  0.
         12    1    1    2    0    0 -0.77460995784E+00 -0.39718402828E+00 -0.79698174584E+00  0.11802354182E+01  0.00000000000E+00 0. -1.
         11    1    3    3    0    0 -0.27628277690E+02 -0.29512219651E+01  0.28520168567E+02  0.39817476747E+02  0.51100000000E-03 0. -1.
        -11    1    3    3    0    0  0.42032845021E+01 -0.72044742314E+01  0.37205022470E+01  0.91331367442E+01  0.51100000000E-03 0.  1.
        -12    1    3    3    0    0  0.24199603145E+02  0.10552880225E+02 -0.31443689068E+02  0.41057151090E+02  0.00000000000E+00 0.  1.
</event>
<event>
 7    1  0.1971192E-015  0.9000780E+02  0.7816164E-02  0.1186339E+00
        -11   -1    0    0    0    0  0.00000000000E+00  0.00000000000E+00  0.45593999997E+02  0.45594000000E+02  0.51100000000E-03 0. -1.
         11   -1    0    0    0    0 -0.00000000000E+00 -0.00000000000E+00 -0.45593999997E+02  0.45594000000E+02  0.51100000000E-03 0.  1.
    9900012    2    1    2    0    0  0.10010170206E+01 -0.59435170970E+00 -0.19383840518E+00  0.90007804102E+02  0.90000066316E+02 0.  0.
         12    1    1    2    0    0 -0.10010170206E+01  0.59435170970E+00  0.19383840518E+00  0.11801958980E+01  0.00000000000E+00 0. -1.
         11    1    3    3    0    0 -0.63719366939E+01  0.10426988600E+02 -0.26080023117E+01  0.12495012798E+02  0.51100000000E-03 0. -1.
        -11    1    3    3    0    0  0.35664603729E+02  0.13373048562E+02 -0.75937675499E+01  0.38838997063E+02  0.51100000000E-03 0.  1.
         12    1    3    3    0    0 -0.28291650014E+02 -0.24394388872E+02  0.10007931456E+02  0.38673794241E+02  0.00000000000E+00 0. -1.
</event>
<event>
 7    1  0.1971192E-015  0.9000780E+02  0.7816164E-02  0.1186339E+00
        -11   -1    0    0    0    0  0.00000000000E+00  0.00000000000E+00  0.45593999997E+02  0.45594000000E+02  0.51100000000E-03 0.  1.
         11   -1    0    0    0    0 -0.00000000000E+00 -0.00000000000E+00 -0.45593999997E+02  0.45594000000E+02  0.51100000000E-03 0. -1.
    9900012    2    1    2    0    0 -0.10002610159E+00  0.84624245655E+00 -0.81654551162E+00  0.90007797437E+02  0.90000059564E+02 0.  0.
         12    1    1    2    0    0  0.10002610159E+00 -0.84624245655E+00  0.81654551162E+00  0.11802025626E+01  0.00000000000E+00 0. -1.
         11    1    3    3    0    0  0.30752391828E+02  0.21429824620E+02 -0.85229715567E+01  0.38439407264E+02  0.51100000000E-03 0. -1.
        -11    1    3    3    0    0  0.62588995304E+01 -0.30485852248E+01 -0.50339175648E+01  0.85911594977E+01  0.51100000000E-03 0.  1.
        -12    1    3    3    0    0 -0.37111317460E+02 -0.17534996939E+02  0.12740343610E+02  0.42977230676E+02  0.00000000000E+00 0.  1.
</event>
<event>
 7    1  0.1971192E-015  0.9000774E+02  0.7816164E-02  0.1186339E+00
        -11   -1    0    0    0    0  0.00000000000E+00  0.00000000000E+00  0.45593999997E+02  0.45594000000E+02  0.51100000000E-03 0.  1.
         11   -1    0    0    0    0 -0.00000000000E+00 -0.00000000000E+00 -0.45593999997E+02  0.45594000000E+02  0.51100000000E-03 0. -1.
    9900012    2    1    2    0    0 -0.59779459215E+00  0.10920072989E+00  0.10117929028E+01  0.90007742379E+02  0.90000003778E+02 0.  0.
         12    1    1    2    0    0  0.59779459215E+00 -0.10920072989E+00 -0.10117929028E+01  0.11802576210E+01  0.00000000000E+00 0. -1.
         11    1    3    3    0    0  0.14771895968E+02 -0.11119556733E+02 -0.32912761525E+02  0.37750540710E+02  0.51100000000E-03 0. -1.
        -11    1    3    3    0    0 -0.85582195405E+01 -0.46355746339E+00 -0.57617245485E+01  0.10327413871E+02  0.51100000000E-03 0.  1.
        -12    1    3    3    0    0 -0.68114710197E+01  0.11692314926E+02  0.39686278977E+02  0.41929787798E+02  0.00000000000E+00 0.  1.
</event>
<event>
 7    1  0.1971192E-015  0.9000774E+02  0.7816164E-02  0.1186339E+00
        -11   -1    0    0    0    0  0.00000000000E+00  0.00000000000E+00  0.45593999997E+02  0.45594000000E+02  0.51100000000E-03 0. -1.
         11   -1    0    0    0    0 -0.00000000000E+00 -0.00000000000E+00 -0.45593999997E+02  0.45594000000E+02  0.51100000000E-03 0.  1.
    9900012    2    1    2    0    0  0.50841953967E+00  0.94466178104E+00 -0.49207168086E+00  0.90007741194E+02  0.90000002578E+02 0.  0.
         12    1    1    2    0    0 -0.50841953967E+00 -0.94466178104E+00  0.49207168086E+00  0.11802588055E+01  0.00000000000E+00 0. -1.
         11    1    3    3    0    0 -0.70848354541E+01  0.26598883713E+01  0.43597750084E+01  0.87337012740E+01  0.51100000000E-03 0. -1.
        -11    1    3    3    0    0 -0.36233032463E+02 -0.38538445237E+01 -0.79208804728E+01  0.37288404455E+02  0.51100000000E-03 0.  1.
         12    1    3    3    0    0  0.43826287457E+02  0.21386179334E+01  0.30690337836E+01  0.43985635465E+02  0.00000000000E+00 0. -1.
</event>
<event>
 7    1  0.1971192E-015  0.9000769E+02  0.7816164E-02  0.1186339E+00
        -11   -1    0    0    0    0  0.00000000000E+00  0.00000000000E+00  0.45593999997E+02  0.45594000000E+02  0.51100000000E-03 0.  1.
         11   -1    0    0    0    0 -0.00000000000E+00 -0.00000000000E+00 -0.45593999997E+02  0.45594000000E+02  0.51100000000E-03 0. -1.
    9900012    2    1    2    0    0  0.28423603152E+00  0.11129854737E+01  0.27129053944E+00  0.90007692691E+02  0.89999953435E+02 0.  0.
         12    1    1    2    0    0 -0.28423603152E+00 -0.11129854737E+01 -0.27129053944E+00  0.11803073087E+01  0.00000000000E+00 0. -1.
         11    1    3    3    0    0  0.30080744660E+02 -0.19235327092E+02 -0.45753332413E+01  0.35996981570E+02  0.51100000000E-03 0. -1.
        -11    1    3    3    0    0  0.35688106412E+01 -0.38353729103E+00  0.13345787401E+02  0.13820041673E+02  0.51100000000E-03 0.  1.
        -12    1    3    3    0    0 -0.33365319270E+02  0.20731849856E+02 -0.84991636199E+01  0.40190669448E+02  0.00000000000E+00 0.  1.
</event>
<event>
 7    1  0.1971192E-015  0.9000756E+02  0.7816164E-02  0.1186339E+00
        -11   -1    0    0    0    0  0.00000000000E+00  0.00000000000E+00  0.45593999997E+02  0.45594000000E+02  0.51100000000E-03 0. -1.
         11   -1    0    0    0    0 -0.00000000000E+00 -0.00000000000E+00 -0.45593999997E+02  0.45594000000E+02  0.51100000000E-03 0.  1.
    9900012    2    1    2    0    0 -0.99392589292E+00  0.11087049294E-01 -0.63672415974E+00  0.90007563954E+02  0.89999822998E+02 0.  0.
         12    1    1    2    0    0  0.99392589292E+00 -0.11087049294E-01  0.63672415974E+00  0.11804360461E+01  0.00000000000E+00 0. -1.
         11    1    3    3    0    0  0.12672775691E+01 -0.11420303083E+01  0.86780622860E+01  0.88441500984E+01  0.51100000000E-03 0. -1.
        -11    1    3    3    0    0  0.24131805170E+02  0.13885236735E+02 -0.33221346500E+02  0.43345146020E+02  0.51100000000E-03 0.  1.
         12    1    3    3    0    0 -0.26393008632E+02 -0.12732119377E+02  0.23906560054E+02  0.37818267836E+02  0.00000000000E+00 0. -1.
</event>
<event>
 7    1  0.1971192E-015  0.9000771E+02  0.7816164E-02  0.1186339E+00
        -11   -1    0    0    0    0  0.00000000000E+00  0.00000000000E+00  0.45593999997E+02  0.45594000000E+02  0.51100000000E-03 0. -1.
         11   -1    0    0    0    0 -0.00000000000E+00 -0.00000000000E+00 -0.45593999997E+02  0.45594000000E+02  0.51100000000E-03 0.  1.
    9900012    2    1    2    0    0  0.73894281589E+00  0.27835191746E+00 -0.87725680546E+00  0.90007705216E+02  0.89999966125E+02 0.  0.
         12    1    1    2    0    0 -0.73894281589E+00 -0.27835191746E+00  0.87725680546E+00  0.11802947843E+01  0.00000000000E+00 0. -1.
         11    1    3    3    0    0 -0.72573615752E+00 -0.75449553340E+01  0.80264636230E+01  0.11039799025E+02  0.51100000000E-03 0. -1.
        -11    1    3    3    0    0 -0.30299685094E+02 -0.19898976354E+02 -0.55805609027E+01  0.36676734274E+02  0.51100000000E-03 0.  1.
         12    1    3    3    0    0  0.31764364067E+02  0.27722283605E+02 -0.33231595257E+01  0.42291171917E+02  0.00000000000E+00 0. -1.
</event>
<event>
 7    1  0.1971192E-015  0.9000773E+02  0.7816164E-02  0.1186339E+00
        -11   -1    0    0    0    0  0.00000000000E+00  0.00000000000E+00  0.45593999997E+02  0.45594000000E+02  0.51100000000E-03 0.  1.
         11   -1    0    0    0    0 -0.00000000000E+00 -0.00000000000E+00 -0.45593999997E+02  0.45594000000E+02  0.51100000000E-03 0. -1.
    9900012    2    1    2    0    0 -0.95922825419E+00 -0.46451200692E+00 -0.50708789418E+00  0.90007733767E+02  0.89999995053E+02 0.  0.
         12    1    1    2    0    0  0.95922825419E+00  0.46451200692E+00  0.50708789418E+00  0.11802662329E+01  0.00000000000E+00 0. -1.
         11    1    3    3    0    0  0.61019792728E+01  0.16235551726E+01  0.48983218508E+01  0.79914729342E+01  0.51100000000E-03 0. -1.
        -11    1    3    3    0    0 -0.49542286849E+00  0.24531779629E+01  0.37899297433E+02  0.37981841347E+02  0.51100000000E-03 0.  1.
         12    1    3    3    0    0 -0.65657846585E+01 -0.45412451424E+01 -0.43304707178E+02  0.44034419485E+02  0.00000000000E+00 0. -1.
</event>
<event>
 7    1  0.1971192E-015  0.9000726E+02  0.7816164E-02  0.1186340E+00
        -11   -1    0    0    0    0  0.00000000000E+00  0.00000000000E+00  0.45593999997E+02  0.45594000000E+02  0.51100000000E-03 0.  1.
         11   -1    0    0    0    0 -0.00000000000E+00 -0.00000000000E+00 -0.45593999997E+02  0.45594000000E+02  0.51100000000E-03 0. -1.
    9900012    2    1    2    0    0  0.11161952066E+01  0.37262131361E+00  0.97033802533E-01  0.90007257038E+02  0.89999512030E+02 0.  0.
         12    1    1    2    0    0 -0.11161952066E+01 -0.37262131361E+00 -0.97033802533E-01  0.11807429617E+01  0.00000000000E+00 0. -1.
         11    1    3    3    0    0 -0.86559612301E+01  0.28138264552E+02 -0.22318594803E+02  0.36943298053E+02  0.51100000000E-03 0. -1.
        -11    1    3    3    0    0  0.70226969002E+01  0.16006188787E+01 -0.79528641312E+01  0.10729785678E+02  0.51100000000E-03 0.  1.
        -12    1    3    3    0    0  0.27494595365E+01 -0.29366262117E+02  0.30368492737E+02  0.42334173307E+02  0.00000000000E+00 0.  1.
</event>
<event>
 7    1  0.1971192E-015  0.9000773E+02  0.7816164E-02  0.1186339E+00
        -11   -1    0    0    0    0  0.00000000000E+00  0.00000000000E+00  0.45593999997E+02  0.45594000000E+02  0.51100000000E-03 0. -1.
         11   -1    0    0    0    0 -0.00000000000E+00 -0.00000000000E+00 -0.45593999997E+02  0.45594000000E+02  0.51100000000E-03 0.  1.
    9900012    2    1    2    0    0  0.64720649821E+00 -0.98246785042E+00 -0.94402524481E-01  0.90007732587E+02  0.89999993858E+02 0.  0.
         12    1    1    2    0    0 -0.64720649821E+00  0.98246785042E+00  0.94402524481E-01  0.11802674125E+01  0.00000000000E+00 0. -1.
         11    1    3    3    0    0  0.29990153761E+02  0.72852130487E+01 -0.11408786536E+02  0.32903556985E+02  0.51100000000E-03 0. -1.
        -11    1    3    3    0    0  0.11799154206E+02 -0.20622677823E+01 -0.42078436587E+01  0.12695626684E+02  0.51100000000E-03 0.  1.
        -12    1    3    3    0    0 -0.41142101469E+02 -0.62054131168E+01  0.15522227670E+02  0.44408548919E+02  0.00000000000E+00 0.  1.
</event>
<event>
 7    1  0.1971192E-015  0.9000791E+02  0.7816164E-02  0.1186339E+00
        -11   -1    0    0    0    0  0.00000000000E+00  0.00000000000E+00  0.45593999997E+02  0.45594000000E+02  0.51100000000E-03 0.  1.
         11   -1    0    0    0    0 -0.00000000000E+00 -0.00000000000E+00 -0.45593999997E+02  0.45594000000E+02  0.51100000000E-03 0. -1.
    9900012    2    1    2    0    0  0.48718914089E+00  0.45136031243E+00  0.97546953131E+00  0.90007906700E+02  0.90000170268E+02 0.  0.
         12    1    1    2    0    0 -0.48718914089E+00 -0.45136031243E+00 -0.97546953131E+00  0.11800933002E+01  0.00000000000E+00 0. -1.
         11    1    3    3    0    0  0.28261870860E+02 -0.19650517744E+02 -0.35444576225E+01  0.34604036935E+02  0.51100000000E-03 0. -1.
        -11    1    3    3    0    0 -0.17531479716E+01 -0.46020199319E+01 -0.14131703778E+02  0.14965198535E+02  0.51100000000E-03 0.  1.
        -12    1    3    3    0    0 -0.26021533748E+02  0.24703897988E+02  0.18651630932E+02  0.40438671229E+02  0.00000000000E+00 0.  1.
</event>
<event>
 7    1  0.1971192E-015  0.9000761E+02  0.7816164E-02  0.1186339E+00
        -11   -1    0    0    0    0  0.00000000000E+00  0.00000000000E+00  0.45593999997E+02  0.45594000000E+02  0.51100000000E-03 0. -1.
         11   -1    0    0    0    0 -0.00000000000E+00 -0.00000000000E+00 -0.45593999997E+02  0.45594000000E+02  0.51100000000E-03 0.  1.
    9900012    2    1    2    0    0  0.11664755316E+01 -0.18048345800E+00  0.85060019026E-02  0.90007613709E+02  0.89999873410E+02 0.  0.
         12    1    1    2    0    0 -0.11664755316E+01  0.18048345800E+00 -0.85060019026E-02  0.11803862912E+01  0.00000000000E+00 0. -1.
         11    1    3    3    0    0  0.31450114722E+01  0.72042870465E+01 -0.16489065181E+02  0.18266967997E+02  0.51100000000E-03 0. -1.
        -11    1    3    3    0    0  0.27290869975E+02  0.14728313790E+00 -0.12354131937E+02  0.29957267106E+02  0.51100000000E-03 0.  1.
         12    1    3    3    0    0 -0.29269405916E+02 -0.75320536424E+01  0.28851703120E+02  0.41783378605E+02  0.00000000000E+00 0. -1.
</event>
<event>
 7    1  0.1971192E-015  0.9000777E+02  0.7816164E-02  0.1186339E+00
        -11   -1    0    0    0    0  0.00000000000E+00  0.00000000000E+00  0.45593999997E+02  0.45594000000E+02  0.51100000000E-03 0.  1.
         11   -1    0    0    0    0 -0.00000000000E+00 -0.00000000000E+00 -0.45593999997E+02  0.45594000000E+02  0.51100000000E-03 0. -1.
    9900012    2    1    2    0    0 -0.28836549727E-01 -0.62625175139E+00  0.99996494075E+00  0.90007765834E+02  0.90000027543E+02 0.  0.
         12    1    1    2    0    0  0.28836549727E-01  0.62625175139E+00 -0.99996494075E+00  0.11802341655E+01  0.00000000000E+00 0. -1.
         11    1    3    3    0    0 -0.18795494633E+02  0.10049433523E+02 -0.29445380970E+02  0.36349583125E+02  0.51100000000E-03 0. -1.
        -11    1    3    3    0    0 -0.51777906949E+01  0.98707974568E+01  0.23080032492E+01  0.11382839636E+02  0.51100000000E-03 0.  1.
        -12    1    3    3    0    0  0.23944448778E+02 -0.20546482731E+02  0.28137342662E+02  0.42275343073E+02  0.00000000000E+00 0.  1.
</event>
<event>
 7    1  0.1971192E-015  0.9000800E+02  0.7816164E-02  0.1186339E+00
        -11   -1    0    0    0    0  0.00000000000E+00  0.00000000000E+00  0.45593999997E+02  0.45594000000E+02  0.51100000000E-03 0.  1.
         11   -1    0    0    0    0 -0.00000000000E+00 -0.00000000000E+00 -0.45593999997E+02  0.45594000000E+02  0.51100000000E-03 0. -1.
    9900012    2    1    2    0    0  0.24578650239E+00  0.57927858375E+00  0.99821262683E+00  0.90007998673E+02  0.90000263456E+02 0.  0.
         12    1    1    2    0    0 -0.24578650239E+00 -0.57927858375E+00 -0.99821262683E+00  0.11800013266E+01  0.00000000000E+00 0. -1.
         11    1    3    3    0    0 -0.72399079275E+00  0.10105879844E+02  0.41824935326E+01  0.10961123232E+02  0.51100000000E-03 0. -1.
        -11    1    3    3    0    0 -0.36120330677E+02  0.85853573945E+01  0.32650838485E+01  0.37269926517E+02  0.51100000000E-03 0.  1.
         12    1    3    3    0    0  0.37090107972E+02 -0.18111958655E+02 -0.64493647543E+01  0.41776948924E+02  0.00000000000E+00 0. -1.
</event>
<event>
 7    1  0.1971192E-015  0.9000779E+02  0.7816164E-02  0.1186339E+00
        -11   -1    0    0    0    0  0.00000000000E+00  0.00000000000E+00  0.45593999997E+02  0.45594000000E+02  0.51100000000E-03 0.  1.
         11   -1    0    0    0    0 -0.00000000000E+00 -0.00000000000E+00 -0.45593999997E+02  0.45594000000E+02  0.51100000000E-03 0. -1.
    9900012    2    1    2    0    0 -0.18178227946E+00 -0.13692130701E+00  0.11580609420E+01  0.90007789262E+02  0.90000051280E+02 0.  0.
         12    1    1    2    0    0  0.18178227946E+00  0.13692130701E+00 -0.11580609420E+01  0.11802107383E+01  0.00000000000E+00 0. -1.
         11    1    3    3    0    0  0.63682407605E+01 -0.78662133418E+00 -0.38155629805E+00  0.64279739403E+01  0.51100000000E-03 0. -1.
        -11    1    3    3    0    0 -0.13131025947E+01  0.11365600222E+02  0.40890572792E+02  0.42461041560E+02  0.51100000000E-03 0.  1.
         12    1    3    3    0    0 -0.52369204452E+01 -0.10715900195E+02 -0.39350955552E+02  0.41118773761E+02  0.00000000000E+00 0. -1.
</event>
<event>
 7    1  0.1971192E-015  0.9000755E+02  0.7816164E-02  0.1186339E+00
        -11   -1    0    0    0    0  0.00000000000E+00  0.00000000000E+00  0.45593999997E+02  0.45594000000E+02  0.51100000000E-03 0. -1.
         11   -1    0    0    0    0 -0.00000000000E+00 -0.00000000000E+00 -0.45593999997E+02  0.45594000000E+02  0.51100000000E-03 0.  1.
    9900012    2    1    2    0    0 -0.66146213438E+00  0.96639852482E+00 -0.14832646425E+00  0.90007551355E+02  0.89999810232E+02 0.  0.
         12    1    1    2    0    0  0.66146213438E+00 -0.96639852482E+00  0.14832646425E+00  0.11804486452E+01  0.00000000000E+00 0. -1.
         11    1    3    3    0    0 -0.90046409876E+01  0.22133716248E+02  0.28973906447E+02  0.37556253931E+02  0.51100000000E-03 0. -1.
        -11    1    3    3    0    0  0.22886377132E+01 -0.17939536962E+01  0.88931930512E+01  0.93565493294E+01  0.51100000000E-03 0.  1.
        -12    1    3    3    0    0  0.60545411400E+01 -0.19373364027E+02 -0.38015425963E+02  0.43094748094E+02  0.00000000000E+00 0.  1.
</event>
<event>
 7    1  0.1971192E-015  0.9000786E+02  0.7816164E-02  0.1186339E+00
        -11   -1    0    0    0    0  0.00000000000E+00  0.00000000000E+00  0.45593999997E+02  0.45594000000E+02  0.51100000000E-03 0.  1.
         11   -1    0    0    0    0 -0.00000000000E+00 -0.00000000000E+00 -0.45593999997E+02  0.45594000000E+02  0.51100000000E-03 0. -1.
    9900012    2    1    2    0    0  0.10583676634E+01 -0.13879358895E+00  0.50332132092E+00  0.90007856736E+02  0.90000119645E+02 0.  0.
         12    1    1    2    0    0 -0.10583676634E+01  0.13879358895E+00 -0.50332132092E+00  0.11801432639E+01  0.00000000000E+00 0. -1.
         11    1    3    3    0    0  0.89431126871E+00 -0.94229380206E+01  0.87207510562E+01  0.12870239036E+02  0.51100000000E-03 0. -1.
        -11    1    3    3    0    0 -0.31143717617E+02 -0.70108389760E+01  0.14606747872E+02  0.35106126158E+02  0.51100000000E-03 0.  1.
         12    1    3    3    0    0  0.31307774012E+02  0.16294983408E+02 -0.22824177607E+02  0.42031491542E+02  0.00000000000E+00 0. -1.
</event>
<event>
 7    1  0.1971192E-015  0.9000777E+02  0.7816164E-02  0.1186339E+00
        -11   -1    0    0    0    0  0.00000000000E+00  0.00000000000E+00  0.45593999997E+02  0.45594000000E+02  0.51100000000E-03 0.  1.
         11   -1    0    0    0    0 -0.00000000000E+00 -0.00000000000E+00 -0.45593999997E+02  0.45594000000E+02  0.51100000000E-03 0. -1.
    9900012    2    1    2    0    0 -0.12575890757E-01 -0.11766581447E+01  0.90893535691E-01  0.90007769439E+02  0.90000031195E+02 0.  0.
         12    1    1    2    0    0  0.12575890757E-01  0.11766581447E+01 -0.90893535691E-01  0.11802305611E+01  0.00000000000E+00 0. -1.
         11    1    3    3    0    0  0.36140214776E+02  0.99062618812E+01  0.24989623381E+01  0.37556543525E+02  0.51100000000E-03 0. -1.
        -11    1    3    3    0    0  0.37758114124E+01 -0.81318570531E+01 -0.80113310987E+01  0.12023530147E+02  0.51100000000E-03 0.  1.
        -12    1    3    3    0    0 -0.39928602079E+02 -0.29510629728E+01  0.56032622964E+01  0.40427695767E+02  0.00000000000E+00 0.  1.
</event>
<event>
 7    1  0.1971192E-015  0.9000780E+02  0.7816164E-02  0.1186339E+00
        -11   -1    0    0    0    0  0.00000000000E+00  0.00000000000E+00  0.45593999997E+02  0.45594000000E+02  0.51100000000E-03 0.  1.
         11   -1    0    0    0    0 -0.00000000000E+00 -0.00000000000E+00 -0.45593999997E+02  0.45594000000E+02  0.51100000000E-03 0. -1.
    9900012    2    1    2    0    0  0.61183705132E+00  0.83857404975E+00  0.56154003221E+00  0.90007797381E+02  0.90000059506E+02 0.  0.
         12    1    1    2    0    0 -0.61183705132E+00 -0.83857404975E+00 -0.56154003221E+00  0.11802026191E+01  0.00000000000E+00 0. -1.
         11    1    3    3    0    0 -0.92035272495E+01  0.34331553564E+02 -0.88232101457E+01  0.36622527514E+02  0.51100000000E-03 0. -1.
        -11    1    3    3    0    0 -0.44610705444E+01  0.76036801421E+01 -0.27494677926E+00  0.88200168990E+01  0.51100000000E-03 0.  1.
        -12    1    3    3    0    0  0.14276434845E+02 -0.41096659657E+02  0.96596969571E+01  0.44565252968E+02  0.00000000000E+00 0.  1.
</event>
<event>
 7    1  0.1971192E-015  0.9000778E+02  0.7816164E-02  0.1186339E+00
        -11   -1    0    0    0    0  0.00000000000E+00  0.00000000000E+00  0.45593999997E+02  0.45594000000E+02  0.51100000000E-03 0. -1.
         11   -1    0    0    0    0 -0.00000000000E+00 -0.00000000000E+00 -0.45593999997E+02  0.45594000000E+02  0.51100000000E-03 0.  1.
    9900012    2    1    2    0    0  0.11034144795E+01  0.52075904691E-01 -0.41555202466E+00  0.90007780148E+02  0.90000042046E+02 0.  0.
         12    1    1    2    0    0 -0.11034144795E+01 -0.52075904691E-01  0.41555202466E+00  0.11802198518E+01  0.00000000000E+00 0. -1.
         11    1    3    3    0    0  0.46735244243E+01 -0.40513762668E+01 -0.19645119125E+02  0.20595780779E+02  0.51100000000E-03 0. -1.
        -11    1    3    3    0    0  0.85266175545E+01  0.21483250571E+01 -0.23430923601E+02  0.25026519704E+02  0.51100000000E-03 0.  1.
         12    1    3    3    0    0 -0.12096727499E+02  0.19551271143E+01  0.42660490701E+02  0.44385479665E+02  0.00000000000E+00 0. -1.
</event>
<event>
 7    1  0.2125870E-015  0.9000780E+02  0.7816164E-02  0.1186339E+00
        -11   -1    0    0    0    0  0.00000000000E+00  0.00000000000E+00  0.45593999997E+02  0.45594000000E+02  0.51100000000E-03 0.  1.
         11   -1    0    0    0    0 -0.00000000000E+00 -0.00000000000E+00 -0.45593999997E+02  0.45594000000E+02  0.51100000000E-03 0. -1.
    9900012    2    1    2    0    0  0.85724709950E+00  0.72338038075E+00  0.36703859661E+00  0.90007801247E+02  0.90000063424E+02 0.  0.
         12    1    1    2    0    0 -0.85724709950E+00 -0.72338038075E+00 -0.36703859661E+00  0.11801987529E+01  0.00000000000E+00 0. -1.
         11    1    3    3    0    0 -0.18979475505E+02 -0.14914649056E+02 -0.30394035705E+02  0.38813202053E+02  0.51100000000E-03 0. -1.
        -11    1    3    3    0    0  0.74636935176E+01  0.58628209837E+00 -0.59965110483E+01  0.95921109583E+01  0.51100000000E-03 0.  1.
        -12    1    3    3    0    0  0.12373029087E+02  0.15051747338E+02  0.36757585350E+02  0.41602488236E+02  0.00000000000E+00 0.  1.
</event>
<event>
 7    1  0.1971192E-015  0.9000767E+02  0.7816164E-02  0.1186339E+00
        -11   -1    0    0    0    0  0.00000000000E+00  0.00000000000E+00  0.45593999997E+02  0.45594000000E+02  0.51100000000E-03 0. -1.
         11   -1    0    0    0    0 -0.00000000000E+00 -0.00000000000E+00 -0.45593999997E+02  0.45594000000E+02  0.51100000000E-03 0.  1.
    9900012    2    1    2    0    0 -0.27188080653E+00  0.49977983274E+00 -0.10341557364E+01  0.90007670749E+02  0.89999931203E+02 0.  0.
         12    1    1    2    0    0  0.27188080653E+00 -0.49977983274E+00  0.10341557364E+01  0.11803292512E+01  0.00000000000E+00 0. -1.
         11    1    3    3    0    0  0.17340974529E+01  0.22272852788E+01 -0.93818990759E+01  0.97973427122E+01  0.51100000000E-03 0. -1.
        -11    1    3    3    0    0 -0.31534433574E+02 -0.90986309073E+01 -0.20153056840E+02  0.38514299753E+02  0.51100000000E-03 0.  1.
         12    1    3    3    0    0  0.29528455314E+02  0.73711254612E+01  0.28500800179E+02  0.41696028284E+02  0.00000000000E+00 0. -1.
</event>
<event>
 8    1  0.1971192E-015  0.9000781E+02  0.7816164E-02  0.1186339E+00
        -11   -1    0    0    0    0  0.00000000000E+00  0.00000000000E+00  0.45593999997E+02  0.45594000000E+02  0.51100000000E-03 0.  1.
         11   -1    0    0    0    0 -0.00000000000E+00 -0.00000000000E+00 -0.45593999997E+02  0.45594000000E+02  0.51100000000E-03 0. -1.
    9900012    2    1    2    0    0 -0.27891992470E+00 -0.11134120239E+01  0.27453892188E+00  0.90007807525E+02  0.90000069784E+02 0.  0.
         23    2    3    3    0    0  0.22602388686E+02  0.48938302782E+01 -0.43247917511E+01  0.65908116937E+02  0.61565887514E+02 0.  0.
         12    1    1    2    0    0  0.27891992470E+00  0.11134120239E+01 -0.27453892188E+00  0.11801924754E+01  0.00000000000E+00 0. -1.
         11    1    4    4    0    0  0.28374788253E+02 -0.19274400847E+02 -0.16697380427E+02  0.38150146130E+02  0.51100000000E-03 0. -1.
        -11    1    4    4    0    0 -0.57723995671E+01  0.24168231125E+02  0.12372588676E+02  0.27757970806E+02  0.51100000000E-03 0.  1.
        -12    1    3    3    0    0 -0.22881308610E+02 -0.60072423021E+01  0.45993306730E+01  0.24099690588E+02  0.00000000000E+00 0.  1.
</event>
<event>
 7    1  0.1971192E-015  0.9000770E+02  0.7816164E-02  0.1186339E+00
        -11   -1    0    0    0    0  0.00000000000E+00  0.00000000000E+00  0.45593999997E+02  0.45594000000E+02  0.51100000000E-03 0.  1.
         11   -1    0    0    0    0 -0.00000000000E+00 -0.00000000000E+00 -0.45593999997E+02  0.45594000000E+02  0.51100000000E-03 0. -1.
    9900012    2    1    2    0    0  0.68800461085E+00 -0.80258328648E+00  0.52500049252E+00  0.90007696737E+02  0.89999957534E+02 0.  0.
         12    1    1    2    0    0 -0.68800461085E+00  0.80258328648E+00 -0.52500049252E+00  0.11803032633E+01  0.00000000000E+00 0. -1.
         11    1    3    3    0    0  0.14546840668E+01 -0.96749491150E+01  0.13412177723E+01  0.98752018453E+01  0.51100000000E-03 0. -1.
        -11    1    3    3    0    0  0.29998145158E+02 -0.15665982494E+02  0.15882203337E+02  0.37383901663E+02  0.51100000000E-03 0.  1.
         12    1    3    3    0    0 -0.30764824614E+02  0.24538348323E+02 -0.16698420617E+02  0.42748593229E+02  0.00000000000E+00 0. -1.
</event>
<event>
 7    1  0.1971192E-015  0.9000770E+02  0.7816164E-02  0.1186339E+00
        -11   -1    0    0    0    0  0.00000000000E+00  0.00000000000E+00  0.45593999997E+02  0.45594000000E+02  0.51100000000E-03 0. -1.
         11   -1    0    0    0    0 -0.00000000000E+00 -0.00000000000E+00 -0.45593999997E+02  0.45594000000E+02  0.51100000000E-03 0.  1.
    9900012    2    1    2    0    0 -0.10100507208E+01 -0.41348831863E+00  0.44936645793E+00  0.90007701198E+02  0.89999962054E+02 0.  0.
         12    1    1    2    0    0  0.10100507208E+01  0.41348831863E+00 -0.44936645793E+00  0.11802988019E+01  0.00000000000E+00 0. -1.
         11    1    3    3    0    0 -0.35656801371E+01 -0.36050054671E+01 -0.83956916971E+01  0.98080466247E+01  0.51100000000E-03 0. -1.
        -11    1    3    3    0    0  0.18027132438E+02  0.29175849429E+02 -0.18900044093E+02  0.39158898871E+02  0.51100000000E-03 0.  1.
         12    1    3    3    0    0 -0.15471503021E+02 -0.25984332281E+02  0.27745102248E+02  0.41040755702E+02  0.00000000000E+00 0. -1.
</event>
<event>
 7    1  0.1971192E-015  0.9000773E+02  0.7816164E-02  0.1186339E+00
        -11   -1    0    0    0    0  0.00000000000E+00  0.00000000000E+00  0.45593999997E+02  0.45594000000E+02  0.51100000000E-03 0. -1.
         11   -1    0    0    0    0 -0.00000000000E+00 -0.00000000000E+00 -0.45593999997E+02  0.45594000000E+02  0.51100000000E-03 0.  1.
    9900012    2    1    2    0    0  0.15127446083E+00  0.23181967657E+00 -0.11473518063E+01  0.90007728636E+02  0.89999989854E+02 0.  0.
         12    1    1    2    0    0 -0.15127446083E+00 -0.23181967657E+00  0.11473518063E+01  0.11802713639E+01  0.00000000000E+00 0. -1.
         11    1    3    3    0    0 -0.59083553572E+01  0.38189015545E+02  0.14211407882E+02  0.41173701383E+02  0.51100000000E-03 0. -1.
        -11    1    3    3    0    0 -0.38211849951E+01 -0.58338138717E+01  0.58417889967E+01  0.90973258708E+01  0.51100000000E-03 0.  1.
        -12    1    3    3    0    0  0.98808148131E+01 -0.32123381996E+02 -0.21200548685E+02  0.39736701383E+02  0.00000000000E+00 0.  1.
</event>
<event>
 7    1  0.1971192E-015  0.9000777E+02  0.7816164E-02  0.1186339E+00
        -11   -1    0    0    0    0  0.00000000000E+00  0.00000000000E+00  0.45593999997E+02  0.45594000000E+02  0.51100000000E-03 0.  1.
         11   -1    0    0    0    0 -0.00000000000E+00 -0.00000000000E+00 -0.45593999997E+02  0.45594000000E+02  0.51100000000E-03 0. -1.
    9900012    2    1    2    0    0  0.17761912935E-01 -0.41687998391E+00  0.11040111537E+01  0.90007769076E+02  0.90000030828E+02 0.  0.
         12    1    1    2    0    0 -0.17761912935E-01  0.41687998391E+00 -0.11040111537E+01  0.11802309240E+01  0.00000000000E+00 0. -1.
         11    1    3    3    0    0  0.95452884847E+01  0.47134541550E+01  0.27737933144E+01  0.11001050493E+02  0.51100000000E-03 0. -1.
        -11    1    3    3    0    0  0.27194413780E+02  0.15267829744E+02 -0.15440504604E+02  0.34800171675E+02  0.51100000000E-03 0.  1.
         12    1    3    3    0    0 -0.36721940351E+02 -0.20398163883E+02  0.13770722443E+02  0.44206546909E+02  0.00000000000E+00 0. -1.
</event>
<event>
 7    1  0.1971192E-015  0.9000770E+02  0.7816164E-02  0.1186339E+00
        -11   -1    0    0    0    0  0.00000000000E+00  0.00000000000E+00  0.45593999997E+02  0.45594000000E+02  0.51100000000E-03 0. -1.
         11   -1    0    0    0    0 -0.00000000000E+00 -0.00000000000E+00 -0.45593999997E+02  0.45594000000E+02  0.51100000000E-03 0.  1.
    9900012    2    1    2    0    0 -0.11041409434E+01 -0.38152735635E+00 -0.16854513631E+00  0.90007704355E+02  0.89999965253E+02 0.  0.
         12    1    1    2    0    0  0.11041409434E+01  0.38152735635E+00  0.16854513631E+00  0.11802956450E+01  0.00000000000E+00 0. -1.
         11    1    3    3    0    0  0.85341706106E+01  0.35636041198E+02  0.43162707605E+00  0.36646224941E+02  0.51100000000E-03 0. -1.
        -11    1    3    3    0    0  0.35457979364E+00  0.74948140472E+01 -0.41518867990E+01  0.85753209086E+01  0.51100000000E-03 0.  1.
        -12    1    3    3    0    0 -0.99928913477E+01 -0.43512382601E+02  0.35517145866E+01  0.44786158505E+02  0.00000000000E+00 0.  1.
</event>
<event>
 7    1  0.1971192E-015  0.9000775E+02  0.7816164E-02  0.1186339E+00
        -11   -1    0    0    0    0  0.00000000000E+00  0.00000000000E+00  0.45593999997E+02  0.45594000000E+02  0.51100000000E-03 0. -1.
         11   -1    0    0    0    0 -0.00000000000E+00 -0.00000000000E+00 -0.45593999997E+02  0.45594000000E+02  0.51100000000E-03 0.  1.
    9900012    2    1    2    0    0  0.80958416089E+00  0.83469270566E+00  0.20214645647E+00  0.90007745105E+02  0.90000006541E+02 0.  0.
         12    1    1    2    0    0 -0.80958416089E+00 -0.83469270566E+00 -0.20214645647E+00  0.11802548946E+01  0.00000000000E+00 0. -1.
         11    1    3    3    0    0  0.18042491806E+02  0.31303651448E+02  0.12191250566E+01  0.36151574941E+02  0.51100000000E-03 0. -1.
        -11    1    3    3    0    0  0.10944414402E+01  0.91513431022E+01  0.37346347062E+01  0.99444647564E+01  0.51100000000E-03 0.  1.
        -12    1    3    3    0    0 -0.18327349085E+02 -0.39620301845E+02 -0.47516133063E+01  0.43911705408E+02  0.00000000000E+00 0.  1.
</event>
<event>
 7    1  0.1971192E-015  0.9000779E+02  0.7816164E-02  0.1186339E+00
        -11   -1    0    0    0    0  0.00000000000E+00  0.00000000000E+00  0.45593999997E+02  0.45594000000E+02  0.51100000000E-03 0. -1.
         11   -1    0    0    0    0 -0.00000000000E+00 -0.00000000000E+00 -0.45593999997E+02  0.45594000000E+02  0.51100000000E-03 0.  1.
    9900012    2    1    2    0    0  0.16672428479E+00 -0.88624243804E+00  0.76136498940E+00  0.90007788454E+02  0.90000050462E+02 0.  0.
         12    1    1    2    0    0 -0.16672428479E+00  0.88624243804E+00 -0.76136498940E+00  0.11802115460E+01  0.00000000000E+00 0. -1.
         11    1    3    3    0    0  0.34991851781E+02 -0.18048440157E+02  0.32114512155E+01  0.39503029028E+02  0.51100000000E-03 0. -1.
        -11    1    3    3    0    0  0.41552715229E+01  0.91362278970E+01 -0.36733858328E+01  0.10687876560E+02  0.51100000000E-03 0.  1.
        -12    1    3    3    0    0 -0.38980399020E+02  0.80259698215E+01  0.12232996066E+01  0.39816882867E+02  0.00000000000E+00 0.  1.
</event>
<event>
 7    1  0.1971192E-015  0.9000772E+02  0.7816164E-02  0.1186339E+00
        -11   -1    0    0    0    0  0.00000000000E+00  0.00000000000E+00  0.45593999997E+02  0.45594000000E+02  0.51100000000E-03 0.  1.
         11   -1    0    0    0    0 -0.00000000000E+00 -0.00000000000E+00 -0.45593999997E+02  0.45594000000E+02  0.51100000000E-03 0. -1.
    9900012    2    1    2    0    0  0.27055430050E+00  0.11434728828E+01  0.11104538348E+00  0.90007719974E+02  0.89999981077E+02 0.  0.
         12    1    1    2    0    0 -0.27055430050E+00 -0.11434728828E+01 -0.11104538348E+00  0.11802800263E+01  0.00000000000E+00 0. -1.
         11    1    3    3    0    0 -0.23961109201E+01  0.69642284088E+01  0.83543459716E+01  0.11137186438E+02  0.51100000000E-03 0. -1.
        -11    1    3    3    0    0  0.26427260356E+02 -0.13876115709E+02  0.23798596798E+02  0.38174859356E+02  0.51100000000E-03 0.  1.
         12    1    3    3    0    0 -0.23760595135E+02  0.80553601825E+01 -0.32041897386E+02  0.40695674180E+02  0.00000000000E+00 0. -1.
</event>
<event>
 7    1  0.1971192E-015  0.9000780E+02  0.7816164E-02  0.1186339E+00
        -11   -1    0    0    0    0  0.00000000000E+00  0.00000000000E+00  0.45593999997E+02  0.45594000000E+02  0.51100000000E-03 0.  1.
         11   -1    0    0    0    0 -0.00000000000E+00 -0.00000000000E+00 -0.45593999997E+02  0.45594000000E+02  0.51100000000E-03 0. -1.
    9900012    2    1    2    0    0  0.25895087351E+00 -0.44667615426E+00 -0.10612699960E+01  0.90007801226E+02  0.90000063402E+02 0.  0.
         12    1    1    2    0    0 -0.25895087351E+00  0.44667615426E+00  0.10612699960E+01  0.11801987740E+01  0.00000000000E+00 0. -1.
         11    1    3    3    0    0 -0.61260425895E+01 -0.76904434319E+01 -0.37149082089E+02  0.38428187809E+02  0.51100000000E-03 0. -1.
        -11    1    3    3    0    0  0.66056500171E+01  0.42047371084E+01 -0.56972192431E+01  0.96836322557E+01  0.51100000000E-03 0.  1.
        -12    1    3    3    0    0 -0.22065655406E+00  0.30390301692E+01  0.41785031336E+02  0.41895981161E+02  0.00000000000E+00 0.  1.
</event>
<event>
 7    1  0.1971192E-015  0.9000772E+02  0.7816164E-02  0.1186339E+00
        -11   -1    0    0    0    0  0.00000000000E+00  0.00000000000E+00  0.45593999997E+02  0.45594000000E+02  0.51100000000E-03 0.  1.
         11   -1    0    0    0    0 -0.00000000000E+00 -0.00000000000E+00 -0.45593999997E+02  0.45594000000E+02  0.51100000000E-03 0. -1.
    9900012    2    1    2    0    0  0.10434107071E+01  0.45128112428E-01  0.54982866841E+00  0.90007722908E+02  0.89999984050E+02 0.  0.
         12    1    1    2    0    0 -0.10434107071E+01 -0.45128112428E-01 -0.54982866841E+00  0.11802770924E+01  0.00000000000E+00 0. -1.
         11    1    3    3    0    0  0.38350856721E+01 -0.40503566735E+01  0.37558986127E+01  0.67245851875E+01  0.51100000000E-03 0. -1.
        -11    1    3    3    0    0  0.67658489567E+01 -0.36439377070E+02 -0.15025340178E+02  0.39992071228E+02  0.51100000000E-03 0.  1.
         12    1    3    3    0    0 -0.95575239217E+01  0.40534861856E+02  0.11819270233E+02  0.43291066492E+02  0.00000000000E+00 0. -1.
</event>
<event>
 7    1  0.1971192E-015  0.9000772E+02  0.7816164E-02  0.1186339E+00
        -11   -1    0    0    0    0  0.00000000000E+00  0.00000000000E+00  0.45593999997E+02  0.45594000000E+02  0.51100000000E-03 0.  1.
         11   -1    0    0    0    0 -0.00000000000E+00 -0.00000000000E+00 -0.45593999997E+02  0.45594000000E+02  0.51100000000E-03 0. -1.
    9900012    2    1    2    0    0  0.80098104711E+00 -0.39730623204E+00  0.77047210111E+00  0.90007724550E+02  0.89999985714E+02 0.  0.
         12    1    1    2    0    0 -0.80098104711E+00  0.39730623204E+00 -0.77047210111E+00  0.11802754502E+01  0.00000000000E+00 0. -1.
         11    1    3    3    0    0 -0.14627667849E+01  0.78251936529E+01  0.40180547963E+01  0.89172925812E+01  0.51100000000E-03 0. -1.
        -11    1    3    3    0    0  0.74930000439E+01 -0.46241706095E+01  0.38178583494E+02  0.39180763664E+02  0.51100000000E-03 0.  1.
         12    1    3    3    0    0 -0.52292522119E+01 -0.35983292754E+01 -0.41426166189E+02  0.41909668304E+02  0.00000000000E+00 0. -1.
</event>
<event>
 7    1  0.1971192E-015  0.9000775E+02  0.7816164E-02  0.1186339E+00
        -11   -1    0    0    0    0  0.00000000000E+00  0.00000000000E+00  0.45593999997E+02  0.45594000000E+02  0.51100000000E-03 0.  1.
         11   -1    0    0    0    0 -0.00000000000E+00 -0.00000000000E+00 -0.45593999997E+02  0.45594000000E+02  0.51100000000E-03 0. -1.
    9900012    2    1    2    0    0  0.32758894561E+00  0.96900167972E+00  0.58881577805E+00  0.90007753080E+02  0.90000014620E+02 0.  0.
         12    1    1    2    0    0 -0.32758894561E+00 -0.96900167972E+00 -0.58881577805E+00  0.11802469204E+01  0.00000000000E+00 0. -1.
         11    1    3    3    0    0 -0.66839496435E+01  0.80793992930E+01 -0.13817814720E+01  0.10576445342E+02  0.51100000000E-03 0. -1.
        -11    1    3    3    0    0  0.65054919980E+01  0.27815961005E+02  0.24694104981E+02  0.37760401664E+02  0.51100000000E-03 0.  1.
         12    1    3    3    0    0  0.50604659102E+00 -0.34926358618E+02 -0.22723507731E+02  0.41670906074E+02  0.00000000000E+00 0. -1.
</event>
<event>
 7    1  0.1971192E-015  0.9000783E+02  0.7816164E-02  0.1186339E+00
        -11   -1    0    0    0    0  0.00000000000E+00  0.00000000000E+00  0.45593999997E+02  0.45594000000E+02  0.51100000000E-03 0.  1.
         11   -1    0    0    0    0 -0.00000000000E+00 -0.00000000000E+00 -0.45593999997E+02  0.45594000000E+02  0.51100000000E-03 0. -1.
    9900012    2    1    2    0    0  0.52941394803E+00 -0.10111753763E+01  0.30007280960E+00  0.90007831173E+02  0.90000093744E+02 0.  0.
         12    1    1    2    0    0 -0.52941394803E+00  0.10111753763E+01 -0.30007280960E+00  0.11801688273E+01  0.00000000000E+00 0. -1.
         11    1    3    3    0    0 -0.27999431409E+01 -0.16966039352E+01  0.86531828839E+01  0.92517955441E+01  0.51100000000E-03 0. -1.
        -11    1    3    3    0    0  0.33058549456E+02 -0.13769450908E+02  0.16469202772E+02  0.39417002812E+02  0.51100000000E-03 0.  1.
         12    1    3    3    0    0 -0.29729192367E+02  0.14454879467E+02 -0.24822312846E+02  0.41339032817E+02  0.00000000000E+00 0. -1.
</event>
<event>
 7    1  0.1971192E-015  0.9000773E+02  0.7816164E-02  0.1186339E+00
        -11   -1    0    0    0    0  0.00000000000E+00  0.00000000000E+00  0.45593999997E+02  0.45594000000E+02  0.51100000000E-03 0. -1.
         11   -1    0    0    0    0 -0.00000000000E+00 -0.00000000000E+00 -0.45593999997E+02  0.45594000000E+02  0.51100000000E-03 0.  1.
    9900012    2    1    2    0    0 -0.61056325034E+00 -0.10100514705E+01  0.66373397453E-02  0.90007730747E+02  0.89999991993E+02 0.  0.
         12    1    1    2    0    0  0.61056325034E+00  0.10100514705E+01 -0.66373397453E-02  0.11802692532E+01  0.00000000000E+00 0. -1.
         11    1    3    3    0    0  0.20394402722E+01 -0.84973699123E+00 -0.69028169637E+01  0.72477756501E+01  0.51100000000E-03 0. -1.
        -11    1    3    3    0    0 -0.30051054100E+02 -0.29112425349E+02 -0.20959015843E+01  0.41892624242E+02  0.51100000000E-03 0.  1.
         12    1    3    3    0    0  0.27401050577E+02  0.28952110869E+02  0.90053558878E+01  0.40867330855E+02  0.00000000000E+00 0. -1.
</event>
<event>
 7    1  0.2048814E-015  0.9000727E+02  0.7816164E-02  0.1186340E+00
        -11   -1    0    0    0    0  0.00000000000E+00  0.00000000000E+00  0.45593999997E+02  0.45594000000E+02  0.51100000000E-03 0.  1.
         11   -1    0    0    0    0 -0.00000000000E+00 -0.00000000000E+00 -0.45593999997E+02  0.45594000000E+02  0.51100000000E-03 0. -1.
    9900012    2    1    2    0    0 -0.11076446503E+01  0.39959693096E+00  0.86982425682E-01  0.90007271275E+02  0.89999526455E+02 0.  0.
         12    1    1    2    0    0  0.11076446503E+01 -0.39959693096E+00 -0.86982425682E-01  0.11807287246E+01  0.00000000000E+00 0. -1.
         11    1    3    3    0    0  0.30098732220E+02  0.18573484976E+02  0.80796299375E+01  0.36279311537E+02  0.51100000000E-03 0. -1.
        -11    1    3    3    0    0  0.16691855082E+01  0.94730037773E+01  0.15030697505E+01  0.97356663748E+01  0.51100000000E-03 0.  1.
        -12    1    3    3    0    0 -0.32875562378E+02 -0.27646891822E+02 -0.94957172623E+01  0.43992293364E+02  0.00000000000E+00 0.  1.
</event>
<event>
 7    1  0.1971192E-015  0.9000774E+02  0.7816164E-02  0.1186339E+00
        -11   -1    0    0    0    0  0.00000000000E+00  0.00000000000E+00  0.45593999997E+02  0.45594000000E+02  0.51100000000E-03 0.  1.
         11   -1    0    0    0    0 -0.00000000000E+00 -0.00000000000E+00 -0.45593999997E+02  0.45594000000E+02  0.51100000000E-03 0. -1.
    9900012    2    1    2    0    0  0.84366651434E+00 -0.79217022166E+00  0.23173325129E+00  0.90007742762E+02  0.90000004167E+02 0.  0.
         12    1    1    2    0    0 -0.84366651434E+00  0.79217022166E+00 -0.23173325129E+00  0.11802572378E+01  0.00000000000E+00 0. -1.
         11    1    3    3    0    0 -0.13309944924E+01  0.80978731689E+01  0.32270052906E+01  0.88182004743E+01  0.51100000000E-03 0. -1.
        -11    1    3    3    0    0  0.97950657388E+01  0.24645686717E+02  0.25301392938E+02  0.36653972111E+02  0.51100000000E-03 0.  1.
         12    1    3    3    0    0 -0.76204047321E+01 -0.33535730108E+02 -0.28296664978E+02  0.44535570177E+02  0.00000000000E+00 0. -1.
</event>
<event>
 8    1  0.1971192E-015  0.9000759E+02  0.7816164E-02  0.1186339E+00
        -11   -1    0    0    0    0  0.00000000000E+00  0.00000000000E+00  0.45593999997E+02  0.45594000000E+02  0.51100000000E-03 0. -1.
         11   -1    0    0    0    0 -0.00000000000E+00 -0.00000000000E+00 -0.45593999997E+02  0.45594000000E+02  0.51100000000E-03 0.  1.
    9900012    2    1    2    0    0 -0.93727872646E+00 -0.58396787968E+00 -0.41697422203E+00  0.90007585921E+02  0.89999845255E+02 0.  0.
         23    2    3    3    0    0  0.14933330113E+02  0.89673139986E+01  0.21214247013E+02  0.61529296953E+02  0.55067168427E+02 0.  0.
         12    1    1    2    0    0  0.93727872646E+00  0.58396787968E+00  0.41697422203E+00  0.11804140788E+01  0.00000000000E+00 0. -1.
         11    1    4    4    0    0  0.28958527043E+02 -0.51796969417E+01  0.27872275416E+02  0.40525168550E+02  0.51100000000E-03 0. -1.
        -11    1    4    4    0    0 -0.14025196931E+02  0.14147010940E+02 -0.66580284023E+01  0.21004128403E+02  0.51100000000E-03 0.  1.
        -12    1    3    3    0    0 -0.15870608839E+02 -0.95512818783E+01 -0.21631221235E+02  0.28478288969E+02  0.00000000000E+00 0.  1.
</event>
<event>
 7    1  0.1971192E-015  0.9000773E+02  0.7816164E-02  0.1186339E+00
        -11   -1    0    0    0    0  0.00000000000E+00  0.00000000000E+00  0.45593999997E+02  0.45594000000E+02  0.51100000000E-03 0.  1.
         11   -1    0    0    0    0 -0.00000000000E+00 -0.00000000000E+00 -0.45593999997E+02  0.45594000000E+02  0.51100000000E-03 0. -1.
    9900012    2    1    2    0    0 -0.56314889401E+00  0.98044901619E+00 -0.33857330169E+00  0.90007725104E+02  0.89999986275E+02 0.  0.
         12    1    1    2    0    0  0.56314889401E+00 -0.98044901619E+00  0.33857330169E+00  0.11802748963E+01  0.00000000000E+00 0. -1.
         11    1    3    3    0    0  0.36655742904E+01 -0.69820539001E+01 -0.42150033506E+01  0.89415750877E+01  0.51100000000E-03 0. -1.
        -11    1    3    3    0    0  0.33126560125E+02  0.51251616099E+01  0.21335610459E+02  0.39734676810E+02  0.51100000000E-03 0.  1.
         12    1    3    3    0    0 -0.37355283310E+02  0.28373413064E+01 -0.17459180410E+02  0.41331473206E+02  0.00000000000E+00 0. -1.
</event>
<event>
 7    1  0.1971192E-015  0.9000781E+02  0.7816164E-02  0.1186339E+00
        -11   -1    0    0    0    0  0.00000000000E+00  0.00000000000E+00  0.45593999997E+02  0.45594000000E+02  0.51100000000E-03 0.  1.
         11   -1    0    0    0    0 -0.00000000000E+00 -0.00000000000E+00 -0.45593999997E+02  0.45594000000E+02  0.51100000000E-03 0. -1.
    9900012    2    1    2    0    0 -0.73093179741E+00 -0.89015807521E+00  0.25730724737E+00  0.90007809460E+02  0.90000071745E+02 0.  0.
         12    1    1    2    0    0  0.73093179741E+00  0.89015807521E+00 -0.25730724737E+00  0.11801905401E+01  0.00000000000E+00 0. -1.
         11    1    3    3    0    0  0.41518256305E+01  0.18949532703E+01  0.80349519835E+01  0.92406145683E+01  0.51100000000E-03 0. -1.
        -11    1    3    3    0    0 -0.13938148526E+02 -0.39859710839E+02 -0.42848537585E+01  0.42443238619E+02  0.51100000000E-03 0.  1.
         12    1    3    3    0    0  0.90553910981E+01  0.37074599494E+02 -0.34927909776E+01  0.38323956272E+02  0.00000000000E+00 0. -1.
</event>
<event>
 7    1  0.1971192E-015  0.9000778E+02  0.7816164E-02  0.1186339E+00
        -11   -1    0    0    0    0  0.00000000000E+00  0.00000000000E+00  0.45593999997E+02  0.45594000000E+02  0.51100000000E-03 0.  1.
         11   -1    0    0    0    0 -0.00000000000E+00 -0.00000000000E+00 -0.45593999997E+02  0.45594000000E+02  0.51100000000E-03 0. -1.
    9900012    2    1    2    0    0 -0.49606721977E+00 -0.10149917233E+01 -0.34150366995E+00  0.90007781528E+02  0.90000043444E+02 0.  0.
         12    1    1    2    0    0  0.49606721977E+00  0.10149917233E+01  0.34150366995E+00  0.11802184719E+01  0.00000000000E+00 0. -1.
         11    1    3    3    0    0  0.23656292367E+02  0.96102985967E+01 -0.94701772736E+01  0.27233476927E+02  0.51100000000E-03 0. -1.
        -11    1    3    3    0    0  0.16136169388E+02  0.19252558992E+01 -0.68727553187E+01  0.17644187109E+02  0.51100000000E-03 0.  1.
        -12    1    3    3    0    0 -0.40288528975E+02 -0.12550546219E+02  0.16001428922E+02  0.45130117493E+02  0.00000000000E+00 0.  1.
</event>
<event>
 7    1  0.1971192E-015  0.9000776E+02  0.7816164E-02  0.1186339E+00
        -11   -1    0    0    0    0  0.00000000000E+00  0.00000000000E+00  0.45593999997E+02  0.45594000000E+02  0.51100000000E-03 0. -1.
         11   -1    0    0    0    0 -0.00000000000E+00 -0.00000000000E+00 -0.45593999997E+02  0.45594000000E+02  0.51100000000E-03 0.  1.
    9900012    2    1    2    0    0  0.96160743469E+00  0.23030860305E+00 -0.64439523201E+00  0.90007755904E+02  0.90000017482E+02 0.  0.
         12    1    1    2    0    0 -0.96160743469E+00 -0.23030860305E+00  0.64439523201E+00  0.11802440960E+01  0.00000000000E+00 0. -1.
         11    1    3    3    0    0  0.64437902534E+01  0.49828089957E+01 -0.11772436867E+01  0.82302321521E+01  0.51100000000E-03 0. -1.
        -11    1    3    3    0    0  0.21191862590E+02  0.29484391172E+02  0.93390059811E+01  0.37491884399E+02  0.51100000000E-03 0.  1.
         12    1    3    3    0    0 -0.26674045409E+02 -0.34236891565E+02 -0.88061575264E+01  0.44285639353E+02  0.00000000000E+00 0. -1.
</event>
<event>
 7    1  0.1971192E-015  0.9000770E+02  0.7816164E-02  0.1186339E+00
        -11   -1    0    0    0    0  0.00000000000E+00  0.00000000000E+00  0.45593999997E+02  0.45594000000E+02  0.51100000000E-03 0.  1.
         11   -1    0    0    0    0 -0.00000000000E+00 -0.00000000000E+00 -0.45593999997E+02  0.45594000000E+02  0.51100000000E-03 0. -1.
    9900012    2    1    2    0    0 -0.57296886388E+00 -0.10313165134E+01 -0.34781775882E-01  0.90007696293E+02  0.89999957084E+02 0.  0.
         12    1    1    2    0    0  0.57296886388E+00  0.10313165134E+01  0.34781775882E-01  0.11803037074E+01  0.00000000000E+00 0. -1.
         11    1    3    3    0    0 -0.11449623042E+02 -0.17107343494E+02 -0.27212392698E+02  0.34121391909E+02  0.51100000000E-03 0. -1.
        -11    1    3    3    0    0 -0.19438363617E+01 -0.39818830153E+01 -0.10455761428E+02  0.11355916495E+02  0.51100000000E-03 0.  1.
        -12    1    3    3    0    0  0.12820490540E+02  0.20057909996E+02  0.37633372349E+02  0.44530387888E+02  0.00000000000E+00 0.  1.
</event>
<event>
 7    1  0.1971192E-015  0.9000794E+02  0.7816164E-02  0.1186339E+00
        -11   -1    0    0    0    0  0.00000000000E+00  0.00000000000E+00  0.45593999997E+02  0.45594000000E+02  0.51100000000E-03 0.  1.
         11   -1    0    0    0    0 -0.00000000000E+00 -0.00000000000E+00 -0.45593999997E+02  0.45594000000E+02  0.51100000000E-03 0. -1.
    9900012    2    1    2    0    0 -0.45806196323E+00 -0.11786440005E+00  0.10811200667E+01  0.90007943485E+02  0.90000207539E+02 0.  0.
         12    1    1    2    0    0  0.45806196323E+00  0.11786440005E+00 -0.10811200667E+01  0.11800565146E+01  0.00000000000E+00 0. -1.
         11    1    3    3    0    0 -0.39282458686E+02  0.21963360684E+00  0.14478246448E+02  0.41866208567E+02  0.51100000000E-03 0. -1.
        -11    1    3    3    0    0  0.60497017828E+01  0.47719755663E+01  0.59554533869E+01  0.97384838539E+01  0.51100000000E-03 0.  1.
        -12    1    3    3    0    0  0.32774694940E+02 -0.51094735732E+01 -0.19352579768E+02  0.38403251064E+02  0.00000000000E+00 0.  1.
</event>
<event>
 7    1  0.1971192E-015  0.9000772E+02  0.7816164E-02  0.1186339E+00
        -11   -1    0    0    0    0  0.00000000000E+00  0.00000000000E+00  0.45593999997E+02  0.45594000000E+02  0.51100000000E-03 0.  1.
         11   -1    0    0    0    0 -0.00000000000E+00 -0.00000000000E+00 -0.45593999997E+02  0.45594000000E+02  0.51100000000E-03 0. -1.
    9900012    2    1    2    0    0 -0.89885062405E+00  0.76429826278E+00 -0.31092213109E-01  0.90007724183E+02  0.89999985342E+02 0.  0.
         12    1    1    2    0    0  0.89885062405E+00 -0.76429826278E+00  0.31092213109E-01  0.11802758172E+01  0.00000000000E+00 0. -1.
         11    1    3    3    0    0  0.18544760280E+02 -0.18016113374E+02 -0.27267666625E+02  0.37576776317E+02  0.51100000000E-03 0. -1.
        -11    1    3    3    0    0  0.64877479100E+01 -0.22703262390E+01 -0.28850974567E+01  0.74544645529E+01  0.51100000000E-03 0.  1.
        -12    1    3    3    0    0 -0.25931358814E+02  0.21050737875E+02  0.30121671869E+02  0.44976483313E+02  0.00000000000E+00 0.  1.
</event>
<event>
 7    1  0.1971192E-015  0.9000767E+02  0.7816164E-02  0.1186339E+00
        -11   -1    0    0    0    0  0.00000000000E+00  0.00000000000E+00  0.45593999997E+02  0.45594000000E+02  0.51100000000E-03 0.  1.
         11   -1    0    0    0    0 -0.00000000000E+00 -0.00000000000E+00 -0.45593999997E+02  0.45594000000E+02  0.51100000000E-03 0. -1.
    9900012    2    1    2    0    0  0.46184036231E+00  0.96546235224E+00 -0.49776990135E+00  0.90007665747E+02  0.89999926135E+02 0.  0.
         12    1    1    2    0    0 -0.46184036231E+00 -0.96546235224E+00  0.49776990135E+00  0.11803342529E+01  0.00000000000E+00 0. -1.
         11    1    3    3    0    0 -0.75225742516E+01  0.12845869495E+01  0.71808216666E+01  0.10478715908E+02  0.51100000000E-03 0. -1.
        -11    1    3    3    0    0  0.57924234790E+01 -0.29562686860E+02  0.22384987258E+02  0.37531217392E+02  0.51100000000E-03 0.  1.
         12    1    3    3    0    0  0.21919911350E+01  0.29243562262E+02 -0.30063578826E+02  0.41997732448E+02  0.00000000000E+00 0. -1.
</event>
<event>
 7    1  0.1971192E-015  0.9000776E+02  0.7816164E-02  0.1186339E+00
        -11   -1    0    0    0    0  0.00000000000E+00  0.00000000000E+00  0.45593999997E+02  0.45594000000E+02  0.51100000000E-03 0. -1.
         11   -1    0    0    0    0 -0.00000000000E+00 -0.00000000000E+00 -0.45593999997E+02  0.45594000000E+02  0.51100000000E-03 0.  1.
    9900012    2    1    2    0    0  0.96583609434E+00 -0.56692251315E+00 -0.37244380817E+00  0.90007764902E+02  0.90000026598E+02 0.  0.
         12    1    1    2    0    0 -0.96583609434E+00  0.56692251315E+00  0.37244380817E+00  0.11802350983E+01  0.00000000000E+00 0. -1.
         11    1    3    3    0    0 -0.23664091143E+02 -0.18562584617E+02  0.18839839678E+02  0.35489411332E+02  0.51100000000E-03 0. -1.
        -11    1    3    3    0    0 -0.63486202926E+01 -0.70390456903E+01  0.15452082749E+01  0.96042080737E+01  0.51100000000E-03 0.  1.
        -12    1    3    3    0    0  0.30978547530E+02  0.25034707795E+02 -0.20757491761E+02  0.44914145496E+02  0.00000000000E+00 0.  1.
</event>
<event>
 7    1  0.1971192E-015  0.9000774E+02  0.7816164E-02  0.1186339E+00
        -11   -1    0    0    0    0  0.00000000000E+00  0.00000000000E+00  0.45593999997E+02  0.45594000000E+02  0.51100000000E-03 0. -1.
         11   -1    0    0    0    0 -0.00000000000E+00 -0.00000000000E+00 -0.45593999997E+02  0.45594000000E+02  0.51100000000E-03 0.  1.
    9900012    2    1    2    0    0 -0.10312518584E+01 -0.23661527042E+00  0.52302660601E+00  0.90007735618E+02  0.89999996928E+02 0.  0.
         12    1    1    2    0    0  0.10312518584E+01  0.23661527042E+00 -0.52302660601E+00  0.11802643824E+01  0.00000000000E+00 0. -1.
         11    1    3    3    0    0 -0.54488621367E+01 -0.36625356456E+01  0.73964648452E+01  0.98899928416E+01  0.51100000000E-03 0. -1.
        -11    1    3    3    0    0 -0.15295413833E+02 -0.24660013471E+02 -0.27585385986E+02  0.40037725572E+02  0.51100000000E-03 0.  1.
         12    1    3    3    0    0  0.19713024111E+02  0.28085933847E+02  0.20711947746E+02  0.40080017204E+02  0.00000000000E+00 0. -1.
</event>
<event>
 7    1  0.1971192E-015  0.9000771E+02  0.7816164E-02  0.1186339E+00
        -11   -1    0    0    0    0  0.00000000000E+00  0.00000000000E+00  0.45593999997E+02  0.45594000000E+02  0.51100000000E-03 0.  1.
         11   -1    0    0    0    0 -0.00000000000E+00 -0.00000000000E+00 -0.45593999997E+02  0.45594000000E+02  0.51100000000E-03 0. -1.
    9900012    2    1    2    0    0 -0.79080503194E+00  0.70736666928E+00  0.51704336910E+00  0.90007714421E+02  0.89999975451E+02 0.  0.
         12    1    1    2    0    0  0.79080503194E+00 -0.70736666928E+00 -0.51704336910E+00  0.11802855794E+01  0.00000000000E+00 0. -1.
         11    1    3    3    0    0  0.69058437920E+00  0.31521423748E+02 -0.27052232796E+02  0.41543956978E+02  0.51100000000E-03 0. -1.
        -11    1    3    3    0    0 -0.39956447849E+01 -0.58710888172E+01 -0.40004435276E+01  0.81509760045E+01  0.51100000000E-03 0.  1.
        -12    1    3    3    0    0  0.25142553738E+01 -0.24942968262E+02  0.31569719693E+02  0.40312781438E+02  0.00000000000E+00 0.  1.
</event>
<event>
 7    1  0.1971192E-015  0.9000771E+02  0.7816164E-02  0.1186339E+00
        -11   -1    0    0    0    0  0.00000000000E+00  0.00000000000E+00  0.45593999997E+02  0.45594000000E+02  0.51100000000E-03 0. -1.
         11   -1    0    0    0    0 -0.00000000000E+00 -0.00000000000E+00 -0.45593999997E+02  0.45594000000E+02  0.51100000000E-03 0.  1.
    9900012    2    1    2    0    0  0.18769550303E+00  0.73341991969E+00 -0.90551630616E+00  0.90007705901E+02  0.89999966818E+02 0.  0.
         12    1    1    2    0    0 -0.18769550303E+00 -0.73341991969E+00  0.90551630616E+00  0.11802940994E+01  0.00000000000E+00 0. -1.
         11    1    3    3    0    0  0.31153875644E+00 -0.16323502885E+02  0.24151487000E+02  0.29152154764E+02  0.51100000000E-03 0. -1.
        -11    1    3    3    0    0  0.14790328682E+02 -0.78794923605E+01  0.64858075393E+01  0.17969583247E+02  0.51100000000E-03 0.  1.
        -12    1    3    3    0    0 -0.14914171935E+02  0.24936415165E+02 -0.31542810845E+02  0.42885967889E+02  0.00000000000E+00 0.  1.
</event>
<event>
 7    1  0.1971192E-015  0.9000766E+02  0.7816164E-02  0.1186339E+00
        -11   -1    0    0    0    0  0.00000000000E+00  0.00000000000E+00  0.45593999997E+02  0.45594000000E+02  0.51100000000E-03 0. -1.
         11   -1    0    0    0    0 -0.00000000000E+00 -0.00000000000E+00 -0.45593999997E+02  0.45594000000E+02  0.51100000000E-03 0.  1.
    9900012    2    1    2    0    0 -0.16451342896E+00  0.72224381876E+00  0.91896329622E+00  0.90007663462E+02  0.89999923820E+02 0.  0.
         12    1    1    2    0    0  0.16451342896E+00 -0.72224381876E+00 -0.91896329622E+00  0.11803365375E+01  0.00000000000E+00 0. -1.
         11    1    3    3    0    0 -0.28958137547E+01  0.87159145684E+01 -0.28881304761E+01  0.96277828171E+01  0.51100000000E-03 0. -1.
        -11    1    3    3    0    0 -0.33539710790E+02 -0.87126639260E+01  0.20696492053E+02  0.40362947069E+02  0.51100000000E-03 0.  1.
         12    1    3    3    0    0  0.36271011116E+02  0.71899317627E+00 -0.16889398280E+02  0.40016933576E+02  0.00000000000E+00 0. -1.
</event>
<event>
 7    1  0.1971192E-015  0.9000773E+02  0.7816164E-02  0.1186339E+00
        -11   -1    0    0    0    0  0.00000000000E+00  0.00000000000E+00  0.45593999997E+02  0.45594000000E+02  0.51100000000E-03 0.  1.
         11   -1    0    0    0    0 -0.00000000000E+00 -0.00000000000E+00 -0.45593999997E+02  0.45594000000E+02  0.51100000000E-03 0. -1.
    9900012    2    1    2    0    0  0.58650517307E+00 -0.10056560267E+01  0.19415248415E+00  0.90007734119E+02  0.89999995410E+02 0.  0.
         12    1    1    2    0    0 -0.58650517307E+00  0.10056560267E+01 -0.19415248415E+00  0.11802658807E+01  0.00000000000E+00 0. -1.
         11    1    3    3    0    0  0.11279840969E+02  0.16020095086E+02 -0.80427437237E+01  0.21179329209E+02  0.51100000000E-03 0. -1.
        -11    1    3    3    0    0  0.55891524565E+01  0.23760562437E+02  0.34590996530E+01  0.24652957696E+02  0.51100000000E-03 0.  1.
         12    1    3    3    0    0 -0.16282488252E+02 -0.40786313550E+02  0.47777965549E+01  0.44175447215E+02  0.00000000000E+00 0. -1.
</event>
<event>
 7    1  0.1971192E-015  0.9000770E+02  0.7816164E-02  0.1186339E+00
        -11   -1    0    0    0    0  0.00000000000E+00  0.00000000000E+00  0.45593999997E+02  0.45594000000E+02  0.51100000000E-03 0. -1.
         11   -1    0    0    0    0 -0.00000000000E+00 -0.00000000000E+00 -0.45593999997E+02  0.45594000000E+02  0.51100000000E-03 0.  1.
    9900012    2    1    2    0    0 -0.75813869484E+00  0.73096238304E+00  0.53293153894E+00  0.90007704990E+02  0.89999965896E+02 0.  0.
         12    1    1    2    0    0  0.75813869484E+00 -0.73096238304E+00 -0.53293153894E+00  0.11802950102E+01  0.00000000000E+00 0. -1.
         11    1    3    3    0    0  0.13719832290E+02 -0.10318978502E+02 -0.33291538844E+02  0.37457197897E+02  0.51100000000E-03 0. -1.
        -11    1    3    3    0    0 -0.67633740633E+01  0.49444565206E+01 -0.67758928998E+01  0.10775138229E+02  0.51100000000E-03 0.  1.
        -12    1    3    3    0    0 -0.77145969211E+01  0.61054843648E+01  0.40600363283E+02  0.41775368864E+02  0.00000000000E+00 0.  1.
</event>
<event>
 7    1  0.1971192E-015  0.9000705E+02  0.7816164E-02  0.1186340E+00
        -11   -1    0    0    0    0  0.00000000000E+00  0.00000000000E+00  0.45593999997E+02  0.45594000000E+02  0.51100000000E-03 0.  1.
         11   -1    0    0    0    0 -0.00000000000E+00 -0.00000000000E+00 -0.45593999997E+02  0.45594000000E+02  0.51100000000E-03 0. -1.
    9900012    2    1    2    0    0 -0.41339661634E+00 -0.93191321157E+00  0.59605773298E+00  0.90007049613E+02  0.89999301865E+02 0.  0.
         12    1    1    2    0    0  0.41339661634E+00  0.93191321157E+00 -0.59605773298E+00  0.11809503873E+01  0.00000000000E+00 0. -1.
         11    1    3    3    0    0  0.50993657106E+01  0.77839172134E+01  0.65851391865E+01  0.11399866499E+02  0.51100000000E-03 0. -1.
        -11    1    3    3    0    0 -0.31342105758E+02 -0.16886079497E+01  0.23178509384E+02  0.39018230197E+02  0.51100000000E-03 0.  1.
         12    1    3    3    0    0  0.25829343431E+02 -0.70272224753E+01 -0.29167590837E+02  0.39588952917E+02  0.00000000000E+00 0. -1.
</event>
<event>
 7    1  0.1971192E-015  0.9000772E+02  0.7816164E-02  0.1186339E+00
        -11   -1    0    0    0    0  0.00000000000E+00  0.00000000000E+00  0.45593999997E+02  0.45594000000E+02  0.51100000000E-03 0.  1.
         11   -1    0    0    0    0 -0.00000000000E+00 -0.00000000000E+00 -0.45593999997E+02  0.45594000000E+02  0.51100000000E-03 0. -1.
    9900012    2    1    2    0    0 -0.10101925478E+01 -0.26637322884E+00  0.54918707920E+00  0.90007724554E+02  0.89999985718E+02 0.  0.
         12    1    1    2    0    0  0.10101925478E+01  0.26637322884E+00 -0.54918707920E+00  0.11802754461E+01  0.00000000000E+00 0. -1.
         11    1    3    3    0    0  0.21204531655E+02 -0.31079157166E+02 -0.10550263475E+02  0.39074982182E+02  0.51100000000E-03 0. -1.
        -11    1    3    3    0    0  0.43106339346E+01  0.62697962856E+01  0.12649554564E+02  0.14761542646E+02  0.51100000000E-03 0.  1.
        -12    1    3    3    0    0 -0.26525358137E+02  0.24542987651E+02 -0.15501040092E+01  0.36171199726E+02  0.00000000000E+00 0.  1.
</event>
<event>
 7    1  0.2879346E-015  0.9000734E+02  0.7816164E-02  0.1186340E+00
        -11   -1    0    0    0    0  0.00000000000E+00  0.00000000000E+00  0.45593999997E+02  0.45594000000E+02  0.51100000000E-03 0.  1.
         11   -1    0    0    0    0 -0.00000000000E+00 -0.00000000000E+00 -0.45593999997E+02  0.45594000000E+02  0.51100000000E-03 0. -1.
    9900012    2    1    2    0    0  0.32928796768E+00 -0.10464552814E+01  0.43642434124E+00  0.90007336870E+02  0.89999592915E+02 0.  0.
         12    1    1    2    0    0 -0.32928796768E+00  0.10464552814E+01 -0.43642434124E+00  0.11806631303E+01  0.00000000000E+00 0. -1.
         11    1    3    3    0    0 -0.63835695436E+01 -0.36256424697E+02 -0.15389335425E+02  0.39901252324E+02  0.51100000000E-03 0. -1.
        -11    1    3    3    0    0  0.33361824680E+01  0.25339525113E+01 -0.83344623047E+01  0.93281450975E+01  0.51100000000E-03 0.  1.
        -12    1    3    3    0    0  0.33766750433E+01  0.32676016905E+02  0.24160222071E+02  0.40777939448E+02  0.00000000000E+00 0.  1.
</event>
<event>
 7    1  0.1971192E-015  0.9000755E+02  0.7816164E-02  0.1186339E+00
        -11   -1    0    0    0    0  0.00000000000E+00  0.00000000000E+00  0.45593999997E+02  0.45594000000E+02  0.51100000000E-03 0.  1.
         11   -1    0    0    0    0 -0.00000000000E+00 -0.00000000000E+00 -0.45593999997E+02  0.45594000000E+02  0.51100000000E-03 0. -1.
    9900012    2    1    2    0    0  0.81939646243E+00 -0.70044519256E+00  0.48108199424E+00  0.90007545039E+02  0.89999803833E+02 0.  0.
         12    1    1    2    0    0 -0.81939646243E+00  0.70044519256E+00 -0.48108199424E+00  0.11804549613E+01  0.00000000000E+00 0. -1.
         11    1    3    3    0    0  0.50993972773E+01 -0.12204963447E+01  0.66848237375E+01  0.84959009282E+01  0.51100000000E-03 0. -1.
        -11    1    3    3    0    0  0.12515997602E+02  0.37885371053E+02 -0.71456906734E+01  0.40534089743E+02  0.51100000000E-03 0.  1.
         12    1    3    3    0    0 -0.16795998417E+02 -0.37365319901E+02  0.94194893022E+00  0.40977554368E+02  0.00000000000E+00 0. -1.
</event>
<event>
 7    1  0.1971192E-015  0.9000784E+02  0.7816164E-02  0.1186339E+00
        -11   -1    0    0    0    0  0.00000000000E+00  0.00000000000E+00  0.45593999997E+02  0.45594000000E+02  0.51100000000E-03 0. -1.
         11   -1    0    0    0    0 -0.00000000000E+00 -0.00000000000E+00 -0.45593999997E+02  0.45594000000E+02  0.51100000000E-03 0.  1.
    9900012    2    1    2    0    0 -0.38547954681E+00 -0.80904854998E+00 -0.76786627301E+00  0.90007842108E+02  0.90000104824E+02 0.  0.
         12    1    1    2    0    0  0.38547954681E+00  0.80904854998E+00  0.76786627301E+00  0.11801578922E+01  0.00000000000E+00 0. -1.
         11    1    3    3    0    0 -0.90707276824E+01 -0.30197834488E+01 -0.59138501772E+00  0.95784617380E+01  0.51100000000E-03 0. -1.
        -11    1    3    3    0    0 -0.29409393311E+02 -0.17643426228E+02 -0.11202257801E+02  0.36078989510E+02  0.51100000000E-03 0.  1.
         12    1    3    3    0    0  0.38094641446E+02  0.19854161127E+02  0.11025776546E+02  0.44350390860E+02  0.00000000000E+00 0. -1.
</event>
<event>
 7    1  0.1971192E-015  0.9000773E+02  0.7816164E-02  0.1186339E+00
        -11   -1    0    0    0    0  0.00000000000E+00  0.00000000000E+00  0.45593999997E+02  0.45594000000E+02  0.51100000000E-03 0.  1.
         11   -1    0    0    0    0 -0.00000000000E+00 -0.00000000000E+00 -0.45593999997E+02  0.45594000000E+02  0.51100000000E-03 0. -1.
    9900012    2    1    2    0    0  0.67179277959E+00  0.11015631233E+00  0.96415490942E+00  0.90007731115E+02  0.89999992366E+02 0.  0.
         12    1    1    2    0    0 -0.67179277959E+00 -0.11015631233E+00 -0.96415490942E+00  0.11802688851E+01  0.00000000000E+00 0. -1.
         11    1    3    3    0    0  0.93818966618E+01 -0.73588884767E+01 -0.29399371857E+00  0.11927265284E+02  0.51100000000E-03 0. -1.
        -11    1    3    3    0    0 -0.97907832658E+01 -0.26118592302E+02 -0.23392288270E+02  0.36403838418E+02  0.51100000000E-03 0.  1.
         12    1    3    3    0    0  0.10806793835E+01  0.33587637091E+02  0.24650436898E+02  0.41676627413E+02  0.00000000000E+00 0. -1.
</event>
<event>
 7    1  0.1971192E-015  0.9000775E+02  0.7816164E-02  0.1186339E+00
        -11   -1    0    0    0    0  0.00000000000E+00  0.00000000000E+00  0.45593999997E+02  0.45594000000E+02  0.51100000000E-03 0.  1.
         11   -1    0    0    0    0 -0.00000000000E+00 -0.00000000000E+00 -0.45593999997E+02  0.45594000000E+02  0.51100000000E-03 0. -1.
    9900012    2    1    2    0    0  0.10271143989E+01  0.44658099500E+00  0.37226329031E+00  0.90007754885E+02  0.90000016450E+02 0.  0.
         12    1    1    2    0    0 -0.10271143989E+01 -0.44658099500E+00 -0.37226329031E+00  0.11802451147E+01  0.00000000000E+00 0. -1.
         11    1    3    3    0    0 -0.17998782912E+01 -0.68889636521E+01  0.13372715192E+01  0.72446999551E+01  0.51100000000E-03 0. -1.
        -11    1    3    3    0    0  0.81236728845E+01 -0.17972043259E+02  0.33982118661E+02  0.39290874118E+02  0.51100000000E-03 0.  1.
         12    1    3    3    0    0 -0.52966801944E+01  0.25307587906E+02 -0.34947126890E+02  0.43472180812E+02  0.00000000000E+00 0. -1.
</event>
<event>
 7    1  0.1971192E-015  0.9000854E+02  0.7816164E-02  0.1186337E+00
        -11   -1    0    0    0    0  0.00000000000E+00  0.00000000000E+00  0.45593999997E+02  0.45594000000E+02  0.51100000000E-03 0. -1.
         11   -1    0    0    0    0 -0.00000000000E+00 -0.00000000000E+00 -0.45593999997E+02  0.45594000000E+02  0.51100000000E-03 0.  1.
    9900012    2    1    2    0    0 -0.22992469030E+00 -0.45026536613E-01 -0.11559596356E+01  0.90008535956E+02  0.90000807827E+02 0.  0.
         12    1    1    2    0    0  0.22992469030E+00  0.45026536613E-01  0.11559596356E+01  0.11794640441E+01  0.00000000000E+00 0. -1.
         11    1    3    3    0    0  0.63586547872E-01  0.27656641220E+02 -0.19327045596E+01  0.27724162639E+02  0.51100000000E-03 0. -1.
        -11    1    3    3    0    0 -0.17263800179E+02 -0.24355549261E+01 -0.19155811277E+02  0.25902042977E+02  0.51100000000E-03 0.  1.
        -12    1    3    3    0    0  0.16970288941E+02 -0.25266112831E+02  0.19932556201E+02  0.36382330341E+02  0.00000000000E+00 0.  1.
</event>
<event>
 7    1  0.1971192E-015  0.9000786E+02  0.7816164E-02  0.1186339E+00
        -11   -1    0    0    0    0  0.00000000000E+00  0.00000000000E+00  0.45593999997E+02  0.45594000000E+02  0.51100000000E-03 0. -1.
         11   -1    0    0    0    0 -0.00000000000E+00 -0.00000000000E+00 -0.45593999997E+02  0.45594000000E+02  0.51100000000E-03 0.  1.
    9900012    2    1    2    0    0  0.88324628372E+00 -0.50822091975E+00 -0.59523630980E+00  0.90007864938E+02  0.90000127955E+02 0.  0.
         12    1    1    2    0    0 -0.88324628372E+00  0.50822091975E+00  0.59523630980E+00  0.11801350624E+01  0.00000000000E+00 0. -1.
         11    1    3    3    0    0  0.36355564813E+02 -0.15784509766E+02  0.42545250383E+01  0.39861997253E+02  0.51100000000E-03 0. -1.
        -11    1    3    3    0    0  0.17108880792E+01  0.60273838489E+01  0.76074841386E+01  0.98554710320E+01  0.51100000000E-03 0.  1.
        -12    1    3    3    0    0 -0.37183206608E+02  0.92489049977E+01 -0.12457245487E+02  0.40290396653E+02  0.00000000000E+00 0.  1.
</event>
<event>
 7    1  0.1971192E-015  0.9000779E+02  0.7816164E-02  0.1186339E+00
        -11   -1    0    0    0    0  0.00000000000E+00  0.00000000000E+00  0.45593999997E+02  0.45594000000E+02  0.51100000000E-03 0.  1.
         11   -1    0    0    0    0 -0.00000000000E+00 -0.00000000000E+00 -0.45593999997E+02  0.45594000000E+02  0.51100000000E-03 0. -1.
    9900012    2    1    2    0    0 -0.17512322601E+00 -0.61791064372E+00  0.99016068667E+00  0.90007788200E+02  0.90000050204E+02 0.  0.
         12    1    1    2    0    0  0.17512322601E+00  0.61791064372E+00 -0.99016068667E+00  0.11802118002E+01  0.00000000000E+00 0. -1.
         11    1    3    3    0    0  0.16845117261E+02  0.52860451542E+01 -0.13103417792E+01  0.17703594119E+02  0.51100000000E-03 0. -1.
        -11    1    3    3    0    0  0.27223319060E+02 -0.12301809830E+01 -0.33533410394E+01  0.27456644774E+02  0.51100000000E-03 0.  1.
         12    1    3    3    0    0 -0.44243559547E+02 -0.46737748150E+01  0.56538435053E+01  0.44847549306E+02  0.00000000000E+00 0. -1.
</event>
<event>
 7    1  0.1971192E-015  0.9000770E+02  0.7816164E-02  0.1186339E+00
        -11   -1    0    0    0    0  0.00000000000E+00  0.00000000000E+00  0.45593999997E+02  0.45594000000E+02  0.51100000000E-03 0.  1.
         11   -1    0    0    0    0 -0.00000000000E+00 -0.00000000000E+00 -0.45593999997E+02  0.45594000000E+02  0.51100000000E-03 0. -1.
    9900012    2    1    2    0    0 -0.39508424479E+00  0.99766373382E+00  0.49160538724E+00  0.90007703282E+02  0.89999964165E+02 0.  0.
         12    1    1    2    0    0  0.39508424479E+00 -0.99766373382E+00 -0.49160538724E+00  0.11802967182E+01  0.00000000000E+00 0. -1.
         11    1    3    3    0    0  0.68076954050E+01  0.68425797004E+01 -0.26369852240E+01  0.10005963473E+02  0.51100000000E-03 0. -1.
        -11    1    3    3    0    0 -0.20984877009E+00 -0.27888161318E+02  0.32365896647E+02  0.42724054632E+02  0.51100000000E-03 0.  1.
         12    1    3    3    0    0 -0.69929308797E+01  0.22043245351E+02 -0.29237306036E+02  0.37277685177E+02  0.00000000000E+00 0. -1.
</event>
<event>
 7    1  0.1971192E-015  0.9000759E+02  0.7816164E-02  0.1186339E+00
        -11   -1    0    0    0    0  0.00000000000E+00  0.00000000000E+00  0.45593999997E+02  0.45594000000E+02  0.51100000000E-03 0.  1.
         11   -1    0    0    0    0 -0.00000000000E+00 -0.00000000000E+00 -0.45593999997E+02  0.45594000000E+02  0.51100000000E-03 0. -1.
    9900012    2    1    2    0    0  0.10862579818E+01  0.12355718152E+00  0.44512269342E+00  0.90007594564E+02  0.89999854013E+02 0.  0.
         12    1    1    2    0    0 -0.10862579818E+01 -0.12355718152E+00 -0.44512269342E+00  0.11804054356E+01  0.00000000000E+00 0. -1.
         11    1    3    3    0    0  0.35861440843E+01 -0.40433926076E+01  0.89788577136E+01  0.10479949393E+02  0.51100000000E-03 0. -1.
        -11    1    3    3    0    0  0.48322818648E+01  0.96313453366E+01  0.34183984703E+02  0.35842134025E+02  0.51100000000E-03 0.  1.
         12    1    3    3    0    0 -0.73321679673E+01 -0.54643955474E+01 -0.42717719723E+02  0.43685511147E+02  0.00000000000E+00 0. -1.
</event>
<event>
 7    1  0.1971192E-015  0.9000775E+02  0.7816164E-02  0.1186339E+00
        -11   -1    0    0    0    0  0.00000000000E+00  0.00000000000E+00  0.45593999997E+02  0.45594000000E+02  0.51100000000E-03 0.  1.
         11   -1    0    0    0    0 -0.00000000000E+00 -0.00000000000E+00 -0.45593999997E+02  0.45594000000E+02  0.51100000000E-03 0. -1.
    9900012    2    1    2    0    0 -0.73320806885E+00  0.41323430343E+00  0.82742548320E+00  0.90007750199E+02  0.90000011702E+02 0.  0.
         12    1    1    2    0    0  0.73320806885E+00 -0.41323430343E+00 -0.82742548320E+00  0.11802498007E+01  0.00000000000E+00 0. -1.
         11    1    3    3    0    0 -0.28663197142E+02 -0.27368287125E+02  0.12932367837E+02  0.41687505906E+02  0.51100000000E-03 0. -1.
        -11    1    3    3    0    0  0.20094093639E+01  0.59953847306E+01  0.70073288123E+01  0.94384861818E+01  0.51100000000E-03 0.  1.
        -12    1    3    3    0    0  0.25920579710E+02  0.21786136698E+02 -0.19112271166E+02  0.38881758111E+02  0.00000000000E+00 0.  1.
</event>
<event>
 7    1  0.1971192E-015  0.9000781E+02  0.7816164E-02  0.1186339E+00
        -11   -1    0    0    0    0  0.00000000000E+00  0.00000000000E+00  0.45593999997E+02  0.45594000000E+02  0.51100000000E-03 0. -1.
         11   -1    0    0    0    0 -0.00000000000E+00 -0.00000000000E+00 -0.45593999997E+02  0.45594000000E+02  0.51100000000E-03 0.  1.
    9900012    2    1    2    0    0  0.11250027566E+01 -0.15853513093E+00  0.31951727799E+00  0.90007806846E+02  0.90000069096E+02 0.  0.
         12    1    1    2    0    0 -0.11250027566E+01  0.15853513093E+00 -0.31951727799E+00  0.11801931541E+01  0.00000000000E+00 0. -1.
         11    1    3    3    0    0  0.37420677119E+02  0.33409904994E+01 -0.87666776667E+01  0.38578801577E+02  0.51100000000E-03 0. -1.
        -11    1    3    3    0    0  0.35113709909E+01 -0.85912020938E+01 -0.25861002988E+01  0.96346455393E+01  0.51100000000E-03 0.  1.
        -12    1    3    3    0    0 -0.39807045353E+02  0.50916764634E+01  0.11672295243E+02  0.41794359730E+02  0.00000000000E+00 0.  1.
</event>
<event>
 7    1  0.1971192E-015  0.9000772E+02  0.7816164E-02  0.1186339E+00
        -11   -1    0    0    0    0  0.00000000000E+00  0.00000000000E+00  0.45593999997E+02  0.45594000000E+02  0.51100000000E-03 0. -1.
         11   -1    0    0    0    0 -0.00000000000E+00 -0.00000000000E+00 -0.45593999997E+02  0.45594000000E+02  0.51100000000E-03 0.  1.
    9900012    2    1    2    0    0  0.16714163413E+00  0.82340987424E+00 -0.82892872102E+00  0.90007719113E+02  0.89999980206E+02 0.  0.
         12    1    1    2    0    0 -0.16714163413E+00 -0.82340987424E+00  0.82892872102E+00  0.11802808867E+01  0.00000000000E+00 0. -1.
         11    1    3    3    0    0  0.11345115291E+02  0.12909121728E+00 -0.12451899370E+00  0.11346532984E+02  0.51100000000E-03 0. -1.
        -11    1    3    3    0    0  0.25859127835E+02 -0.19887346303E+02  0.11462559084E+02  0.34577323442E+02  0.51100000000E-03 0.  1.
         12    1    3    3    0    0 -0.37037101492E+02  0.20581664960E+02 -0.12166968811E+02  0.44083862688E+02  0.00000000000E+00 0. -1.
</event>
<event>
 7    1  0.1971192E-015  0.9000786E+02  0.7816164E-02  0.1186339E+00
        -11   -1    0    0    0    0  0.00000000000E+00  0.00000000000E+00  0.45593999997E+02  0.45594000000E+02  0.51100000000E-03 0. -1.
         11   -1    0    0    0    0 -0.00000000000E+00 -0.00000000000E+00 -0.45593999997E+02  0.45594000000E+02  0.51100000000E-03 0.  1.
    9900012    2    1    2    0    0 -0.11726006361E+01  0.15564006738E-01 -0.13230836672E+00  0.90007855944E+02  0.90000118842E+02 0.  0.
         12    1    1    2    0    0  0.11726006361E+01 -0.15564006738E-01  0.13230836672E+00  0.11801440564E+01  0.00000000000E+00 0. -1.
         11    1    3    3    0    0  0.18845604357E+02  0.27838128459E+02 -0.21947257387E+02  0.40147232865E+02  0.51100000000E-03 0. -1.
        -11    1    3    3    0    0 -0.10332051567E+02 -0.67003128878E+01 -0.59318741077E+01  0.13668672688E+02  0.51100000000E-03 0.  1.
        -12    1    3    3    0    0 -0.96861534265E+01 -0.21122251564E+02  0.27746823128E+02  0.36191950390E+02  0.00000000000E+00 0.  1.
</event>
<event>
 7    1  0.1971192E-015  0.9000798E+02  0.7816164E-02  0.1186339E+00
        -11   -1    0    0    0    0  0.00000000000E+00  0.00000000000E+00  0.45593999997E+02  0.45594000000E+02  0.51100000000E-03 0. -1.
         11   -1    0    0    0    0 -0.00000000000E+00 -0.00000000000E+00 -0.45593999997E+02  0.45594000000E+02  0.51100000000E-03 0.  1.
    9900012    2    1    2    0    0  0.52662752442E+00  0.64242731715E+00  0.83809027121E+00  0.90007981055E+02  0.90000245605E+02 0.  0.
         12    1    1    2    0    0 -0.52662752442E+00 -0.64242731715E+00 -0.83809027121E+00  0.11800189448E+01  0.00000000000E+00 0. -1.
         11    1    3    3    0    0 -0.17625222489E+01 -0.31843695528E+02  0.16346670800E+02  0.35837704671E+02  0.51100000000E-03 0. -1.
        -11    1    3    3    0    0 -0.28525325240E+01 -0.80328314324E+01  0.33804175181E+01  0.91700897204E+01  0.51100000000E-03 0.  1.
        -12    1    3    3    0    0  0.51416822973E+01  0.40518954278E+02 -0.18888998047E+02  0.45000186664E+02  0.00000000000E+00 0.  1.
</event>
<event>
 7    1  0.1971192E-015  0.9000775E+02  0.7816164E-02  0.1186339E+00
        -11   -1    0    0    0    0  0.00000000000E+00  0.00000000000E+00  0.45593999997E+02  0.45594000000E+02  0.51100000000E-03 0. -1.
         11   -1    0    0    0    0 -0.00000000000E+00 -0.00000000000E+00 -0.45593999997E+02  0.45594000000E+02  0.51100000000E-03 0.  1.
    9900012    2    1    2    0    0 -0.10207466263E+01 -0.59090036838E+00 -0.43590727197E-01  0.90007751267E+02  0.90000012784E+02 0.  0.
         12    1    1    2    0    0  0.10207466263E+01  0.59090036838E+00  0.43590727197E-01  0.11802487331E+01  0.00000000000E+00 0. -1.
         11    1    3    3    0    0  0.78199727196E+01  0.18038189693E+01 -0.38216489999E+01  0.88887984311E+01  0.51100000000E-03 0. -1.
        -11    1    3    3    0    0  0.35060833573E+02 -0.68751425981E+01  0.85346073357E+01  0.36733760483E+02  0.51100000000E-03 0.  1.
         12    1    3    3    0    0 -0.43901552919E+02  0.44804232604E+01 -0.47565490630E+01  0.44385192353E+02  0.00000000000E+00 0. -1.
</event>
<event>
 7    1  0.1971192E-015  0.9000766E+02  0.7816164E-02  0.1186339E+00
        -11   -1    0    0    0    0  0.00000000000E+00  0.00000000000E+00  0.45593999997E+02  0.45594000000E+02  0.51100000000E-03 0. -1.
         11   -1    0    0    0    0 -0.00000000000E+00 -0.00000000000E+00 -0.45593999997E+02  0.45594000000E+02  0.51100000000E-03 0.  1.
    9900012    2    1    2    0    0 -0.60408128762E+00  0.85290061865E+00  0.54850171165E+00  0.90007657764E+02  0.89999918046E+02 0.  0.
         12    1    1    2    0    0  0.60408128762E+00 -0.85290061865E+00 -0.54850171165E+00  0.11803422364E+01  0.00000000000E+00 0. -1.
         11    1    3    3    0    0 -0.91486906268E+01 -0.29714487322E+01 -0.31432713817E+00  0.96242843663E+01  0.51100000000E-03 0. -1.
        -11    1    3    3    0    0  0.17338776807E+02 -0.82246221173E+01 -0.35901162919E+02  0.40708366331E+02  0.51100000000E-03 0.  1.
         12    1    3    3    0    0 -0.87941674680E+01  0.12048971468E+02  0.36763991769E+02  0.39675007066E+02  0.00000000000E+00 0. -1.
</event>
<event>
 7    1  0.2673842E-015  0.9000773E+02  0.7816164E-02  0.1186339E+00
        -11   -1    0    0    0    0  0.00000000000E+00  0.00000000000E+00  0.45593999997E+02  0.45594000000E+02  0.51100000000E-03 0. -1.
         11   -1    0    0    0    0 -0.00000000000E+00 -0.00000000000E+00 -0.45593999997E+02  0.45594000000E+02  0.51100000000E-03 0.  1.
    9900012    2    1    2    0    0 -0.59412007247E+00  0.24609768545E+00 -0.98969307772E+00  0.90007730912E+02  0.89999992160E+02 0.  0.
         12    1    1    2    0    0  0.59412007247E+00 -0.24609768545E+00  0.98969307772E+00  0.11802690877E+01  0.00000000000E+00 0. -1.
         11    1    3    3    0    0 -0.57750740122E+01 -0.19152697543E+02  0.29303438143E+02  0.35480541009E+02  0.51100000000E-03 0. -1.
        -11    1    3    3    0    0  0.13983297245E+00 -0.50163519062E+01  0.76366783956E+01  0.91379536487E+01  0.51100000000E-03 0.  1.
        -12    1    3    3    0    0  0.50411209672E+01  0.24415147135E+02 -0.37929809617E+02  0.45389236254E+02  0.00000000000E+00 0.  1.
</event>
<event>
 7    1  0.1971192E-015  0.9000771E+02  0.7816164E-02  0.1186339E+00
        -11   -1    0    0    0    0  0.00000000000E+00  0.00000000000E+00  0.45593999997E+02  0.45594000000E+02  0.51100000000E-03 0. -1.
         11   -1    0    0    0    0 -0.00000000000E+00 -0.00000000000E+00 -0.45593999997E+02  0.45594000000E+02  0.51100000000E-03 0.  1.
    9900012    2    1    2    0    0  0.79737112000E+00  0.69991341370E+00 -0.51712116606E+00  0.90007706058E+02  0.89999966978E+02 0.  0.
         12    1    1    2    0    0 -0.79737112000E+00 -0.69991341370E+00  0.51712116606E+00  0.11802939422E+01  0.00000000000E+00 0. -1.
         11    1    3    3    0    0 -0.29828143701E+01  0.16986756832E+01 -0.78306733208E+01  0.85499781030E+01  0.51100000000E-03 0. -1.
        -11    1    3    3    0    0  0.11465760780E+02 -0.31610168257E+02 -0.20506779975E+02  0.39385205759E+02  0.51100000000E-03 0.  1.
         12    1    3    3    0    0 -0.76855752901E+01  0.30611405987E+02  0.27820332130E+02  0.42072522195E+02  0.00000000000E+00 0. -1.
</event>
<event>
 7    1  0.1971192E-015  0.9000775E+02  0.7816164E-02  0.1186339E+00
        -11   -1    0    0    0    0  0.00000000000E+00  0.00000000000E+00  0.45593999997E+02  0.45594000000E+02  0.51100000000E-03 0.  1.
         11   -1    0    0    0    0 -0.00000000000E+00 -0.00000000000E+00 -0.45593999997E+02  0.45594000000E+02  0.51100000000E-03 0. -1.
    9900012    2    1    2    0    0  0.56003917193E-01 -0.57035130759E+00  0.10317751640E+01  0.90007747043E+02  0.90000008504E+02 0.  0.
         12    1    1    2    0    0 -0.56003917193E-01  0.57035130759E+00 -0.10317751640E+01  0.11802529567E+01  0.00000000000E+00 0. -1.
         11    1    3    3    0    0  0.13403459996E+02 -0.10848987301E+02 -0.38574497314E+02  0.42253344348E+02  0.51100000000E-03 0. -1.
        -11    1    3    3    0    0  0.51686633791E+01  0.35216070447E+01  0.53411786695E+01  0.82246572661E+01  0.51100000000E-03 0.  1.
        -12    1    3    3    0    0 -0.18516119458E+02  0.67570289490E+01  0.34265093808E+02  0.39529745429E+02  0.00000000000E+00 0.  1.
</event>
<event>
 7    1  0.1971192E-015  0.9000773E+02  0.7816164E-02  0.1186339E+00
        -11   -1    0    0    0    0  0.00000000000E+00  0.00000000000E+00  0.45593999997E+02  0.45594000000E+02  0.51100000000E-03 0. -1.
         11   -1    0    0    0    0 -0.00000000000E+00 -0.00000000000E+00 -0.45593999997E+02  0.45594000000E+02  0.51100000000E-03 0.  1.
    9900012    2    1    2    0    0 -0.49293915127E+00 -0.28980717364E+00 -0.10325033423E+01  0.90007728694E+02  0.89999989912E+02 0.  0.
         12    1    1    2    0    0  0.49293915127E+00  0.28980717364E+00  0.10325033423E+01  0.11802713063E+01  0.00000000000E+00 0. -1.
         11    1    3    3    0    0 -0.27827157786E+01 -0.79107285513E+01 -0.15208669184E+01  0.85226855956E+01  0.51100000000E-03 0. -1.
        -11    1    3    3    0    0  0.72201372405E+01 -0.33322590369E+02 -0.15241837740E+02  0.37347543810E+02  0.51100000000E-03 0.  1.
         12    1    3    3    0    0 -0.49303606132E+01  0.40943511747E+02  0.15730201316E+02  0.44137499288E+02  0.00000000000E+00 0. -1.
</event>
<event>
 7    1  0.1971192E-015  0.9000766E+02  0.7816164E-02  0.1186339E+00
        -11   -1    0    0    0    0  0.00000000000E+00  0.00000000000E+00  0.45593999997E+02  0.45594000000E+02  0.51100000000E-03 0. -1.
         11   -1    0    0    0    0 -0.00000000000E+00 -0.00000000000E+00 -0.45593999997E+02  0.45594000000E+02  0.51100000000E-03 0.  1.
    9900012    2    1    2    0    0  0.46609817435E-01 -0.10028475634E+01  0.62074969069E+00  0.90007658571E+02  0.89999918864E+02 0.  0.
         12    1    1    2    0    0 -0.46609817435E-01  0.10028475634E+01 -0.62074969069E+00  0.11803414290E+01  0.00000000000E+00 0. -1.
         11    1    3    3    0    0  0.38550249131E+02  0.62865716100E+01 -0.56353815748E+01  0.39463910304E+02  0.51100000000E-03 0. -1.
        -11    1    3    3    0    0 -0.39199430639E+01  0.10520864071E+02  0.70766459288E+00  0.11249681056E+02  0.51100000000E-03 0.  1.
        -12    1    3    3    0    0 -0.34583696250E+02 -0.17810283245E+02  0.55484666726E+01  0.39294067211E+02  0.00000000000E+00 0.  1.
</event>
<event>
 7    1  0.1971192E-015  0.9000764E+02  0.7816164E-02  0.1186339E+00
        -11   -1    0    0    0    0  0.00000000000E+00  0.00000000000E+00  0.45593999997E+02  0.45594000000E+02  0.51100000000E-03 0. -1.
         11   -1    0    0    0    0 -0.00000000000E+00 -0.00000000000E+00 -0.45593999997E+02  0.45594000000E+02  0.51100000000E-03 0.  1.
    9900012    2    1    2    0    0  0.29200814957E+00  0.91147298988E+00 -0.69078733972E+00  0.90007644579E+02  0.89999904688E+02 0.  0.
         12    1    1    2    0    0 -0.29200814957E+00 -0.91147298988E+00  0.69078733972E+00  0.11803554208E+01  0.00000000000E+00 0. -1.
         11    1    3    3    0    0  0.29560453584E+02  0.16383680490E+02  0.17158204557E+02  0.37903158000E+02  0.51100000000E-03 0. -1.
        -11    1    3    3    0    0 -0.15500514947E+01  0.10709025317E+02 -0.37063362215E+01  0.11437780000E+02  0.51100000000E-03 0.  1.
        -12    1    3    3    0    0 -0.27718393940E+02 -0.26181232817E+02 -0.14142655676E+02  0.40666706579E+02  0.00000000000E+00 0.  1.
</event>
<event>
 7    1  0.1971192E-015  0.9000781E+02  0.7816164E-02  0.1186339E+00
        -11   -1    0    0    0    0  0.00000000000E+00  0.00000000000E+00  0.45593999997E+02  0.45594000000E+02  0.51100000000E-03 0. -1.
         11   -1    0    0    0    0 -0.00000000000E+00 -0.00000000000E+00 -0.45593999997E+02  0.45594000000E+02  0.51100000000E-03 0.  1.
    9900012    2    1    2    0    0  0.44251202329E-01  0.30987387243E+00 -0.11379276299E+01  0.90007805407E+02  0.90000067639E+02 0.  0.
         12    1    1    2    0    0 -0.44251202329E-01 -0.30987387243E+00  0.11379276299E+01  0.11801945927E+01  0.00000000000E+00 0. -1.
         11    1    3    3    0    0  0.34361664191E+01  0.31530848592E+01 -0.82494596199E+01  0.94764322438E+01  0.51100000000E-03 0. -1.
        -11    1    3    3    0    0  0.31673668303E+02 -0.15847301217E+01  0.25703802281E+02  0.40821784445E+02  0.51100000000E-03 0.  1.
         12    1    3    3    0    0 -0.35065583519E+02 -0.12584808651E+01 -0.18592270291E+02  0.39709588719E+02  0.00000000000E+00 0. -1.
</event>
<event>
 7    1  0.1971192E-015  0.9000771E+02  0.7816164E-02  0.1186339E+00
        -11   -1    0    0    0    0  0.00000000000E+00  0.00000000000E+00  0.45593999997E+02  0.45594000000E+02  0.51100000000E-03 0.  1.
         11   -1    0    0    0    0 -0.00000000000E+00 -0.00000000000E+00 -0.45593999997E+02  0.45594000000E+02  0.51100000000E-03 0. -1.
    9900012    2    1    2    0    0  0.20874464532E+00  0.11234773045E+01  0.29546848589E+00  0.90007713083E+02  0.89999974096E+02 0.  0.
         12    1    1    2    0    0 -0.20874464532E+00 -0.11234773045E+01 -0.29546848589E+00  0.11802869172E+01  0.00000000000E+00 0. -1.
         11    1    3    3    0    0  0.15397676172E+01 -0.94317072287E+00  0.98454224821E+01  0.10009635330E+02  0.51100000000E-03 0. -1.
        -11    1    3    3    0    0  0.18723101630E+02  0.88013214269E+00  0.30151867411E+02  0.35503017841E+02  0.51100000000E-03 0.  1.
         12    1    3    3    0    0 -0.20054124602E+02  0.11865158847E+01 -0.39701821407E+02  0.44495059911E+02  0.00000000000E+00 0. -1.
</event>
<event>
 7    1  0.1971192E-015  0.9000756E+02  0.7816164E-02  0.1186339E+00
        -11   -1    0    0    0    0  0.00000000000E+00  0.00000000000E+00  0.45593999997E+02  0.45594000000E+02  0.51100000000E-03 0. -1.
         11   -1    0    0    0    0 -0.00000000000E+00 -0.00000000000E+00 -0.45593999997E+02  0.45594000000E+02  0.51100000000E-03 0.  1.
    9900012    2    1    2    0    0  0.10871799601E+01 -0.20805535221E+00 -0.41010050131E+00  0.90007563760E+02  0.89999822802E+02 0.  0.
         12    1    1    2    0    0 -0.10871799601E+01  0.20805535221E+00  0.41010050131E+00  0.11804362398E+01  0.00000000000E+00 0. -1.
         11    1    3    3    0    0 -0.59695697467E+01 -0.53741842351E+01  0.45867292874E+01  0.92496326938E+01  0.51100000000E-03 0. -1.
        -11    1    3    3    0    0 -0.21918304045E+02 -0.19686868898E+02 -0.24107558902E+02  0.38067824415E+02  0.51100000000E-03 0.  1.
         12    1    3    3    0    0  0.28975053752E+02  0.24852997781E+02  0.19110729114E+02  0.42690106651E+02  0.00000000000E+00 0. -1.
</event>
<event>
 7    1  0.1971192E-015  0.9000772E+02  0.7816164E-02  0.1186339E+00
        -11   -1    0    0    0    0  0.00000000000E+00  0.00000000000E+00  0.45593999997E+02  0.45594000000E+02  0.51100000000E-03 0.  1.
         11   -1    0    0    0    0 -0.00000000000E+00 -0.00000000000E+00 -0.45593999997E+02  0.45594000000E+02  0.51100000000E-03 0. -1.
    9900012    2    1    2    0    0  0.40336562875E-01 -0.33167527204E+00  0.11319967474E+01  0.90007723693E+02  0.89999984846E+02 0.  0.
         12    1    1    2    0    0 -0.40336562875E-01  0.33167527204E+00 -0.11319967474E+01  0.11802763069E+01  0.00000000000E+00 0. -1.
         11    1    3    3    0    0 -0.33489985817E+01  0.34976181440E+02 -0.22870407331E+02  0.41923795049E+02  0.51100000000E-03 0. -1.
        -11    1    3    3    0    0 -0.51075644795E+01 -0.55956237914E+01 -0.18434104992E+01  0.77972035408E+01  0.51100000000E-03 0.  1.
        -12    1    3    3    0    0  0.84968996241E+01 -0.29712232920E+02  0.25845814577E+02  0.40286725103E+02  0.00000000000E+00 0.  1.
</event>
<event>
 7    1  0.1971192E-015  0.9000775E+02  0.7816164E-02  0.1186339E+00
        -11   -1    0    0    0    0  0.00000000000E+00  0.00000000000E+00  0.45593999997E+02  0.45594000000E+02  0.51100000000E-03 0. -1.
         11   -1    0    0    0    0 -0.00000000000E+00 -0.00000000000E+00 -0.45593999997E+02  0.45594000000E+02  0.51100000000E-03 0.  1.
    9900012    2    1    2    0    0  0.11729396224E+00  0.11718880655E+01  0.76937390891E-01  0.90007746267E+02  0.90000007718E+02 0.  0.
         12    1    1    2    0    0 -0.11729396224E+00 -0.11718880655E+01 -0.76937390891E-01  0.11802537328E+01  0.00000000000E+00 0. -1.
         11    1    3    3    0    0  0.34277494406E+01  0.10285139377E+02  0.25429166398E+01  0.11135527986E+02  0.51100000000E-03 0. -1.
        -11    1    3    3    0    0  0.37145104787E+02 -0.43006730242E+01  0.40563989418E+01  0.37612617175E+02  0.51100000000E-03 0.  1.
         12    1    3    3    0    0 -0.40455560265E+02 -0.48125782876E+01 -0.65223781906E+01  0.41259601106E+02  0.00000000000E+00 0. -1.
</event>
<event>
 7    1  0.1971192E-015  0.9000784E+02  0.7816164E-02  0.1186339E+00
        -11   -1    0    0    0    0  0.00000000000E+00  0.00000000000E+00  0.45593999997E+02  0.45594000000E+02  0.51100000000E-03 0. -1.
         11   -1    0    0    0    0 -0.00000000000E+00 -0.00000000000E+00 -0.45593999997E+02  0.45594000000E+02  0.51100000000E-03 0.  1.
    9900012    2    1    2    0    0 -0.76873303242E+00 -0.88737844307E+00 -0.11994467432E+00  0.90007839968E+02  0.90000102655E+02 0.  0.
         12    1    1    2    0    0  0.76873303242E+00  0.88737844307E+00  0.11994467432E+00  0.11801600321E+01  0.00000000000E+00 0. -1.
         11    1    3    3    0    0  0.96966879841E+00 -0.25789756483E+01  0.97193392399E+01  0.10102322926E+02  0.51100000000E-03 0. -1.
        -11    1    3    3    0    0 -0.13446350506E+02  0.16390558363E+02  0.29488676824E+02  0.36318546316E+02  0.51100000000E-03 0.  1.
         12    1    3    3    0    0  0.11707948676E+02 -0.14698961157E+02 -0.39327960738E+02  0.43586970727E+02  0.00000000000E+00 0. -1.
</event>
<event>
 7    1  0.1971192E-015  0.9000767E+02  0.7816164E-02  0.1186339E+00
        -11   -1    0    0    0    0  0.00000000000E+00  0.00000000000E+00  0.45593999997E+02  0.45594000000E+02  0.51100000000E-03 0.  1.
         11   -1    0    0    0    0 -0.00000000000E+00 -0.00000000000E+00 -0.45593999997E+02  0.45594000000E+02  0.51100000000E-03 0. -1.
    9900012    2    1    2    0    0  0.36664391063E+00  0.91487283998E+00  0.64942123966E+00  0.90007674614E+02  0.89999935119E+02 0.  0.
         12    1    1    2    0    0 -0.36664391063E+00 -0.91487283998E+00 -0.64942123966E+00  0.11803253861E+01  0.00000000000E+00 0. -1.
         11    1    3    3    0    0  0.88958722932E+01  0.52961256628E+01  0.41509036065E+01  0.11154169261E+02  0.51100000000E-03 0. -1.
        -11    1    3    3    0    0  0.15892039393E+02  0.17303688651E+02  0.25858195377E+02  0.34937384353E+02  0.51100000000E-03 0.  1.
         12    1    3    3    0    0 -0.24421267776E+02 -0.21684941474E+02 -0.29359677743E+02  0.43916121000E+02  0.00000000000E+00 0. -1.
</event>
<event>
 7    1  0.1971192E-015  0.9000778E+02  0.7816164E-02  0.1186339E+00
        -11   -1    0    0    0    0  0.00000000000E+00  0.00000000000E+00  0.45593999997E+02  0.45594000000E+02  0.51100000000E-03 0.  1.
         11   -1    0    0    0    0 -0.00000000000E+00 -0.00000000000E+00 -0.45593999997E+02  0.45594000000E+02  0.51100000000E-03 0. -1.
    9900012    2    1    2    0    0  0.11655766652E+01  0.70306974232E-01 -0.17149941775E+00  0.90007777952E+02  0.90000039821E+02 0.  0.
         12    1    1    2    0    0 -0.11655766652E+01 -0.70306974232E-01  0.17149941775E+00  0.11802220483E+01  0.00000000000E+00 0. -1.
         11    1    3    3    0    0 -0.48911495968E+01  0.60506203261E+01  0.45345418460E+00  0.77935211341E+01  0.51100000000E-03 0. -1.
        -11    1    3    3    0    0 -0.37630843270E+02  0.26926047639E+00 -0.45589589564E+01  0.37906951519E+02  0.51100000000E-03 0.  1.
         12    1    3    3    0    0  0.43687569532E+02 -0.62495738283E+01  0.39340053540E+01  0.44307305298E+02  0.00000000000E+00 0. -1.
</event>
<event>
 7    1  0.1971192E-015  0.9000764E+02  0.7816164E-02  0.1186339E+00
        -11   -1    0    0    0    0  0.00000000000E+00  0.00000000000E+00  0.45593999997E+02  0.45594000000E+02  0.51100000000E-03 0.  1.
         11   -1    0    0    0    0 -0.00000000000E+00 -0.00000000000E+00 -0.45593999997E+02  0.45594000000E+02  0.51100000000E-03 0. -1.
    9900012    2    1    2    0    0  0.49813977592E+00 -0.72082972051E+00  0.79089632000E+00  0.90007637466E+02  0.89999897481E+02 0.  0.
         12    1    1    2    0    0 -0.49813977592E+00  0.72082972051E+00 -0.79089632000E+00  0.11803625339E+01  0.00000000000E+00 0. -1.
         11    1    3    3    0    0  0.34495833529E+02 -0.23981117467E+01 -0.74943982256E+01  0.35381908877E+02  0.51100000000E-03 0. -1.
        -11    1    3    3    0    0 -0.18125927387E+02 -0.33767773655E+01 -0.16513721381E+02  0.24751865852E+02  0.51100000000E-03 0.  1.
        -12    1    3    3    0    0 -0.15871766365E+02  0.50540593917E+01  0.24799015927E+02  0.29873862737E+02  0.00000000000E+00 0.  1.
</event>
<event>
 7    1  0.1971192E-015  0.9000783E+02  0.7816164E-02  0.1186339E+00
        -11   -1    0    0    0    0  0.00000000000E+00  0.00000000000E+00  0.45593999997E+02  0.45594000000E+02  0.51100000000E-03 0.  1.
         11   -1    0    0    0    0 -0.00000000000E+00 -0.00000000000E+00 -0.45593999997E+02  0.45594000000E+02  0.51100000000E-03 0. -1.
    9900012    2    1    2    0    0 -0.11186976867E+01 -0.31316333177E+00  0.20796936407E+00  0.90007827537E+02  0.90000090060E+02 0.  0.
         12    1    1    2    0    0  0.11186976867E+01  0.31316333177E+00 -0.20796936407E+00  0.11801724632E+01  0.00000000000E+00 0. -1.
         11    1    3    3    0    0 -0.22014929191E+01  0.38221870261E+02 -0.10870032087E+02  0.39798436341E+02  0.51100000000E-03 0. -1.
        -11    1    3    3    0    0  0.10759970362E+02 -0.23007205527E+01 -0.33088703427E+00  0.11008168046E+02  0.51100000000E-03 0.  1.
        -12    1    3    3    0    0 -0.96771751293E+01 -0.36234313040E+02  0.11408888485E+02  0.39201223150E+02  0.00000000000E+00 0.  1.
</event>
<event>
 7    1  0.1971192E-015  0.9000772E+02  0.7816164E-02  0.1186339E+00
        -11   -1    0    0    0    0  0.00000000000E+00  0.00000000000E+00  0.45593999997E+02  0.45594000000E+02  0.51100000000E-03 0. -1.
         11   -1    0    0    0    0 -0.00000000000E+00 -0.00000000000E+00 -0.45593999997E+02  0.45594000000E+02  0.51100000000E-03 0.  1.
    9900012    2    1    2    0    0 -0.43154862824E-01  0.90099124649E+00 -0.76118578751E+00  0.90007724027E+02  0.89999985185E+02 0.  0.
         12    1    1    2    0    0  0.43154862824E-01 -0.90099124649E+00  0.76118578751E+00  0.11802759726E+01  0.00000000000E+00 0. -1.
         11    1    3    3    0    0  0.63243568915E+01  0.14352915545E+02 -0.38913163491E+01  0.16160012931E+02  0.51100000000E-03 0. -1.
        -11    1    3    3    0    0  0.28550338676E+01  0.19151876081E+01 -0.33178808565E+02  0.33356446154E+02  0.51100000000E-03 0.  1.
         12    1    3    3    0    0 -0.92225456220E+01 -0.15367111907E+02  0.36308939127E+02  0.40491264942E+02  0.00000000000E+00 0. -1.
</event>
<event>
 7    1  0.1971192E-015  0.9000770E+02  0.7816164E-02  0.1186339E+00
        -11   -1    0    0    0    0  0.00000000000E+00  0.00000000000E+00  0.45593999997E+02  0.45594000000E+02  0.51100000000E-03 0.  1.
         11   -1    0    0    0    0 -0.00000000000E+00 -0.00000000000E+00 -0.45593999997E+02  0.45594000000E+02  0.51100000000E-03 0. -1.
    9900012    2    1    2    0    0 -0.75423433061E+00 -0.90677049990E+00  0.44857842414E-01  0.90007697331E+02  0.89999958136E+02 0.  0.
         12    1    1    2    0    0  0.75423433061E+00  0.90677049990E+00 -0.44857842414E-01  0.11803026692E+01  0.00000000000E+00 0. -1.
         11    1    3    3    0    0 -0.97225129394E+01  0.11130644029E-01 -0.51370946915E+01  0.10996232258E+02  0.51100000000E-03 0. -1.
        -11    1    3    3    0    0 -0.64438948896E+01 -0.38061353332E+02  0.35186655527E+01  0.38763015960E+02  0.51100000000E-03 0.  1.
         12    1    3    3    0    0  0.15412173498E+02  0.37143452188E+02  0.16632869812E+01  0.40248449112E+02  0.00000000000E+00 0. -1.
</event>
<event>
 7    1  0.1971192E-015  0.9000774E+02  0.7816164E-02  0.1186339E+00
        -11   -1    0    0    0    0  0.00000000000E+00  0.00000000000E+00  0.45593999997E+02  0.45594000000E+02  0.51100000000E-03 0. -1.
         11   -1    0    0    0    0 -0.00000000000E+00 -0.00000000000E+00 -0.45593999997E+02  0.45594000000E+02  0.51100000000E-03 0.  1.
    9900012    2    1    2    0    0 -0.11005754433E+01  0.23797324035E+00  0.35370928186E+00  0.90007742475E+02  0.90000003876E+02 0.  0.
         12    1    1    2    0    0  0.11005754433E+01 -0.23797324035E+00 -0.35370928186E+00  0.11802575251E+01  0.00000000000E+00 0. -1.
         11    1    3    3    0    0 -0.13804448123E+02  0.34202463365E+02  0.13528275191E+02  0.39285945555E+02  0.51100000000E-03 0. -1.
        -11    1    3    3    0    0  0.73702443628E+01  0.54634600375E+01 -0.30297264778E+01  0.96617358865E+01  0.51100000000E-03 0.  1.
        -12    1    3    3    0    0  0.53336283173E+01 -0.39427950162E+02 -0.10144839432E+02  0.41060061034E+02  0.00000000000E+00 0.  1.
</event>
<event>
 7    1  0.1971192E-015  0.9000777E+02  0.7816164E-02  0.1186339E+00
        -11   -1    0    0    0    0  0.00000000000E+00  0.00000000000E+00  0.45593999997E+02  0.45594000000E+02  0.51100000000E-03 0. -1.
         11   -1    0    0    0    0 -0.00000000000E+00 -0.00000000000E+00 -0.45593999997E+02  0.45594000000E+02  0.51100000000E-03 0.  1.
    9900012    2    1    2    0    0  0.79362248287E+00 -0.48826601099E+00 -0.72436715831E+00  0.90007767767E+02  0.90000029502E+02 0.  0.
         12    1    1    2    0    0 -0.79362248287E+00  0.48826601099E+00  0.72436715831E+00  0.11802322326E+01  0.00000000000E+00 0. -1.
         11    1    3    3    0    0  0.45562146181E+01 -0.22116889595E+01  0.91766867160E+01  0.10481518928E+02  0.51100000000E-03 0. -1.
        -11    1    3    3    0    0 -0.18110729256E+02  0.33841621211E+02 -0.19514517389E+02  0.43058915797E+02  0.51100000000E-03 0.  1.
         12    1    3    3    0    0  0.14348137121E+02 -0.32118198263E+02  0.96134635147E+01  0.36467333042E+02  0.00000000000E+00 0. -1.
</event>
<event>
 7    1  0.1971192E-015  0.9000772E+02  0.7816164E-02  0.1186339E+00
        -11   -1    0    0    0    0  0.00000000000E+00  0.00000000000E+00  0.45593999997E+02  0.45594000000E+02  0.51100000000E-03 0. -1.
         11   -1    0    0    0    0 -0.00000000000E+00 -0.00000000000E+00 -0.45593999997E+02  0.45594000000E+02  0.51100000000E-03 0.  1.
    9900012    2    1    2    0    0  0.10892407036E+01 -0.44318318298E+00  0.10096705891E+00  0.90007724189E+02  0.89999985348E+02 0.  0.
         12    1    1    2    0    0 -0.10892407036E+01  0.44318318298E+00 -0.10096705891E+00  0.11802758114E+01  0.00000000000E+00 0. -1.
         11    1    3    3    0    0  0.48576144280E+01  0.12022178656E+02  0.30947801701E+02  0.33554368239E+02  0.51100000000E-03 0. -1.
        -11    1    3    3    0    0 -0.43124351513E-01  0.39104150111E+01  0.10833007556E+02  0.11517259146E+02  0.51100000000E-03 0.  1.
        -12    1    3    3    0    0 -0.37252493729E+01 -0.16375776850E+02 -0.41679842197E+02  0.44936096804E+02  0.00000000000E+00 0.  1.
</event>
<event>
 7    1  0.1971192E-015  0.9000771E+02  0.7816164E-02  0.1186339E+00
        -11   -1    0    0    0    0  0.00000000000E+00  0.00000000000E+00  0.45593999997E+02  0.45594000000E+02  0.51100000000E-03 0.  1.
         11   -1    0    0    0    0 -0.00000000000E+00 -0.00000000000E+00 -0.45593999997E+02  0.45594000000E+02  0.51100000000E-03 0. -1.
    9900012    2    1    2    0    0 -0.52697234164E+00 -0.10502938573E+01  0.11072883416E+00  0.90007712785E+02  0.89999973794E+02 0.  0.
         12    1    1    2    0    0  0.52697234164E+00  0.10502938573E+01 -0.11072883416E+00  0.11802872151E+01  0.00000000000E+00 0. -1.
         11    1    3    3    0    0 -0.42895254243E+01 -0.18676272182E+02 -0.34569087213E+02  0.39524991613E+02  0.51100000000E-03 0. -1.
        -11    1    3    3    0    0  0.93378664660E+01 -0.57646471608E+01  0.44160876874E+01  0.11829147803E+02  0.51100000000E-03 0.  1.
        -12    1    3    3    0    0 -0.55753133833E+01  0.23390625486E+02  0.30263728360E+02  0.38653573369E+02  0.00000000000E+00 0.  1.
</event>
<event>
 7    1  0.1971192E-015  0.9000771E+02  0.7816164E-02  0.1186339E+00
        -11   -1    0    0    0    0  0.00000000000E+00  0.00000000000E+00  0.45593999997E+02  0.45594000000E+02  0.51100000000E-03 0. -1.
         11   -1    0    0    0    0 -0.00000000000E+00 -0.00000000000E+00 -0.45593999997E+02  0.45594000000E+02  0.51100000000E-03 0.  1.
    9900012    2    1    2    0    0 -0.50347603820E+00 -0.10218738939E+01  0.30880416234E+00  0.90007714278E+02  0.89999975306E+02 0.  0.
         12    1    1    2    0    0  0.50347603820E+00  0.10218738939E+01 -0.30880416234E+00  0.11802857225E+01  0.00000000000E+00 0. -1.
         11    1    3    3    0    0  0.67740955877E+00 -0.98090018547E+01 -0.16442537736E+01  0.99689002317E+01  0.51100000000E-03 0. -1.
        -11    1    3    3    0    0 -0.19916517858E+02  0.14444737209E+02 -0.32291425160E+02  0.40596234502E+02  0.51100000000E-03 0.  1.
         12    1    3    3    0    0  0.18735632261E+02 -0.56576092481E+01  0.34244483096E+02  0.39442579544E+02  0.00000000000E+00 0. -1.
</event>
<event>
 7    1  0.1971192E-015  0.9000773E+02  0.7816164E-02  0.1186339E+00
        -11   -1    0    0    0    0  0.00000000000E+00  0.00000000000E+00  0.45593999997E+02  0.45594000000E+02  0.51100000000E-03 0.  1.
         11   -1    0    0    0    0 -0.00000000000E+00 -0.00000000000E+00 -0.45593999997E+02  0.45594000000E+02  0.51100000000E-03 0. -1.
    9900012    2    1    2    0    0 -0.83580405245E+00 -0.14897998212E+00  0.81992736488E+00  0.90007727009E+02  0.89999988206E+02 0.  0.
         12    1    1    2    0    0  0.83580405245E+00  0.14897998212E+00 -0.81992736488E+00  0.11802729908E+01  0.00000000000E+00 0. -1.
         11    1    3    3    0    0  0.37168575275E+01  0.82800627301E+01 -0.38228246946E+01  0.98482718078E+01  0.51100000000E-03 0. -1.
        -11    1    3    3    0    0 -0.67373545341E+01  0.35056811026E+02  0.76722322660E+01  0.36513491940E+02  0.51100000000E-03 0.  1.
         12    1    3    3    0    0  0.21846929541E+01 -0.43485853739E+02 -0.30294802065E+01  0.43645963261E+02  0.00000000000E+00 0. -1.
</event>
<event>
 7    1  0.1971192E-015  0.9000886E+02  0.7816164E-02  0.1186337E+00
        -11   -1    0    0    0    0  0.00000000000E+00  0.00000000000E+00  0.45593999997E+02  0.45594000000E+02  0.51100000000E-03 0.  1.
         11   -1    0    0    0    0 -0.00000000000E+00 -0.00000000000E+00 -0.45593999997E+02  0.45594000000E+02  0.51100000000E-03 0. -1.
    9900012    2    1    2    0    0 -0.10178340954E+01  0.51184786845E+00  0.30397102836E+00  0.90008859265E+02  0.90001135400E+02 0.  0.
         12    1    1    2    0    0  0.10178340954E+01 -0.51184786845E+00 -0.30397102836E+00  0.11791407347E+01  0.00000000000E+00 0. -1.
         11    1    3    3    0    0 -0.22111946630E+02 -0.92031792611E+01 -0.23846884177E+02  0.33798085411E+02  0.51100000000E-03 0. -1.
        -11    1    3    3    0    0 -0.54964412059E+01 -0.13097260291E+02  0.13491441354E+02  0.19589999570E+02  0.51100000000E-03 0.  1.
        -12    1    3    3    0    0  0.26590553740E+02  0.22812287421E+02  0.10659413851E+02  0.36620774285E+02  0.00000000000E+00 0.  1.
</event>
<event>
 7    1  0.1971192E-015  0.9000772E+02  0.7816164E-02  0.1186339E+00
        -11   -1    0    0    0    0  0.00000000000E+00  0.00000000000E+00  0.45593999997E+02  0.45594000000E+02  0.51100000000E-03 0. -1.
         11   -1    0    0    0    0 -0.00000000000E+00 -0.00000000000E+00 -0.45593999997E+02  0.45594000000E+02  0.51100000000E-03 0.  1.
    9900012    2    1    2    0    0  0.12117794689E+00 -0.42935398780E+00 -0.10927163670E+01  0.90007721219E+02  0.89999982339E+02 0.  0.
         12    1    1    2    0    0 -0.12117794689E+00  0.42935398780E+00  0.10927163670E+01  0.11802787808E+01  0.00000000000E+00 0. -1.
         11    1    3    3    0    0  0.87440062707E+01  0.58068511343E+01 -0.16143002556E+01  0.10619940270E+02  0.51100000000E-03 0. -1.
        -11    1    3    3    0    0  0.15619994765E+02 -0.36124359056E+02 -0.75298398886E+01  0.40070588250E+02  0.51100000000E-03 0.  1.
         12    1    3    3    0    0 -0.24242823089E+02  0.29888153934E+02  0.80514237771E+01  0.39317192699E+02  0.00000000000E+00 0. -1.
</event>
<event>
 7    1  0.1971192E-015  0.9000768E+02  0.7816164E-02  0.1186339E+00
        -11   -1    0    0    0    0  0.00000000000E+00  0.00000000000E+00  0.45593999997E+02  0.45594000000E+02  0.51100000000E-03 0.  1.
         11   -1    0    0    0    0 -0.00000000000E+00 -0.00000000000E+00 -0.45593999997E+02  0.45594000000E+02  0.51100000000E-03 0. -1.
    9900012    2    1    2    0    0 -0.63312361631E+00  0.10046963738E+00  0.99106213772E+00  0.90007684863E+02  0.89999945503E+02 0.  0.
         12    1    1    2    0    0  0.63312361631E+00 -0.10046963738E+00 -0.99106213772E+00  0.11803151369E+01  0.00000000000E+00 0. -1.
         11    1    3    3    0    0  0.31766705426E+02 -0.26444053578E+02 -0.11278850245E+02  0.42844182876E+02  0.51100000000E-03 0. -1.
        -11    1    3    3    0    0  0.45212954537E+00  0.74689179624E+01  0.29903668740E+01  0.80580053957E+01  0.51100000000E-03 0.  1.
        -12    1    3    3    0    0 -0.32851958587E+02  0.19075605253E+02  0.92795455088E+01  0.39105496591E+02  0.00000000000E+00 0.  1.
</event>
<event>
 7    1  0.1971192E-015  0.9000777E+02  0.7816164E-02  0.1186339E+00
        -11   -1    0    0    0    0  0.00000000000E+00  0.00000000000E+00  0.45593999997E+02  0.45594000000E+02  0.51100000000E-03 0. -1.
         11   -1    0    0    0    0 -0.00000000000E+00 -0.00000000000E+00 -0.45593999997E+02  0.45594000000E+02  0.51100000000E-03 0.  1.
    9900012    2    1    2    0    0  0.63547017849E+00 -0.62385815059E+00  0.77454247004E+00  0.90007772320E+02  0.90000034114E+02 0.  0.
         12    1    1    2    0    0 -0.63547017849E+00  0.62385815059E+00 -0.77454247004E+00  0.11802276805E+01  0.00000000000E+00 0. -1.
         11    1    3    3    0    0 -0.84099696266E+01  0.30474446693E+01  0.17970327670E+01  0.91238059580E+01  0.51100000000E-03 0. -1.
        -11    1    3    3    0    0 -0.31683686197E+02 -0.18347094710E+02 -0.67010349105E+01  0.37220635735E+02  0.51100000000E-03 0.  1.
         12    1    3    3    0    0  0.40729126002E+02  0.14675791890E+02  0.56785446135E+01  0.43663330627E+02  0.00000000000E+00 0. -1.
</event>
<event>
 7    1  0.1971192E-015  0.9000774E+02  0.7816164E-02  0.1186339E+00
        -11   -1    0    0    0    0  0.00000000000E+00  0.00000000000E+00  0.45593999997E+02  0.45594000000E+02  0.51100000000E-03 0. -1.
         11   -1    0    0    0    0 -0.00000000000E+00 -0.00000000000E+00 -0.45593999997E+02  0.45594000000E+02  0.51100000000E-03 0.  1.
    9900012    2    1    2    0    0  0.41532141661E+00 -0.85454863338E+00 -0.70019681637E+00  0.90007736967E+02  0.89999998295E+02 0.  0.
         12    1    1    2    0    0 -0.41532141661E+00  0.85454863338E+00  0.70019681637E+00  0.11802630332E+01  0.00000000000E+00 0. -1.
         11    1    3    3    0    0  0.18142099556E+02 -0.25240615202E+02  0.11519087119E+02  0.33149868784E+02  0.51100000000E-03 0. -1.
        -11    1    3    3    0    0  0.15824226323E+02  0.11485201504E+02 -0.52086319020E+01  0.20234768070E+02  0.51100000000E-03 0.  1.
        -12    1    3    3    0    0 -0.33551004463E+02  0.12900865065E+02 -0.70106520336E+01  0.36623100112E+02  0.00000000000E+00 0.  1.
</event>
<event>
 7    1  0.1971192E-015  0.9000800E+02  0.7816164E-02  0.1186339E+00
        -11   -1    0    0    0    0  0.00000000000E+00  0.00000000000E+00  0.45593999997E+02  0.45594000000E+02  0.51100000000E-03 0. -1.
         11   -1    0    0    0    0 -0.00000000000E+00 -0.00000000000E+00 -0.45593999997E+02  0.45594000000E+02  0.51100000000E-03 0.  1.
    9900012    2    1    2    0    0 -0.11330018805E+01  0.96924883744E-01 -0.31515352828E+00  0.90007996000E+02  0.90000260747E+02 0.  0.
         12    1    1    2    0    0  0.11330018805E+01 -0.96924883744E-01  0.31515352828E+00  0.11800040003E+01  0.00000000000E+00 0. -1.
         11    1    3    3    0    0  0.18501733289E+02  0.12832276094E+02  0.34638701348E+02  0.41313691142E+02  0.51100000000E-03 0. -1.
        -11    1    3    3    0    0  0.48212460672E+01  0.19703611105E+01 -0.72051018030E+01  0.88904571760E+01  0.51100000000E-03 0.  1.
        -12    1    3    3    0    0 -0.24455981236E+02 -0.14705712321E+02 -0.27748753074E+02  0.39803847681E+02  0.00000000000E+00 0.  1.
</event>
<event>
 7    1  0.1971192E-015  0.9000755E+02  0.7816164E-02  0.1186339E+00
        -11   -1    0    0    0    0  0.00000000000E+00  0.00000000000E+00  0.45593999997E+02  0.45594000000E+02  0.51100000000E-03 0. -1.
         11   -1    0    0    0    0 -0.00000000000E+00 -0.00000000000E+00 -0.45593999997E+02  0.45594000000E+02  0.51100000000E-03 0.  1.
    9900012    2    1    2    0    0 -0.69279033811E-01 -0.10983839198E+01 -0.42686228258E+00  0.90007551683E+02  0.89999810565E+02 0.  0.
         12    1    1    2    0    0  0.69279033811E-01  0.10983839198E+01  0.42686228258E+00  0.11804483165E+01  0.00000000000E+00 0. -1.
         11    1    3    3    0    0 -0.10239725646E+02  0.35035321049E+02 -0.87287998464E+01  0.37530223145E+02  0.51100000000E-03 0. -1.
        -11    1    3    3    0    0 -0.22564497207E+01  0.52852993711E+01  0.72105301128E+01  0.92205043004E+01  0.51100000000E-03 0.  1.
        -12    1    3    3    0    0  0.12426896333E+02 -0.41419004340E+02  0.10914074510E+01  0.43256824238E+02  0.00000000000E+00 0.  1.
</event>
<event>
 7    1  0.1971192E-015  0.9000791E+02  0.7816164E-02  0.1186339E+00
        -11   -1    0    0    0    0  0.00000000000E+00  0.00000000000E+00  0.45593999997E+02  0.45594000000E+02  0.51100000000E-03 0.  1.
         11   -1    0    0    0    0 -0.00000000000E+00 -0.00000000000E+00 -0.45593999997E+02  0.45594000000E+02  0.51100000000E-03 0. -1.
    9900012    2    1    2    0    0 -0.11070333115E+01  0.39307179071E+00  0.11221296622E+00  0.90007906811E+02  0.90000170380E+02 0.  0.
         12    1    1    2    0    0  0.11070333115E+01 -0.39307179071E+00 -0.11221296622E+00  0.11800931893E+01  0.00000000000E+00 0. -1.
         11    1    3    3    0    0  0.13156999932E+01  0.14802303421E+02 -0.34723818992E+02  0.37770131833E+02  0.51100000000E-03 0. -1.
        -11    1    3    3    0    0 -0.45973819334E+01  0.78638244530E+01 -0.18211397802E+01  0.92893598288E+01  0.51100000000E-03 0.  1.
        -12    1    3    3    0    0  0.21746486287E+01 -0.22273056083E+02  0.36657171738E+02  0.42948415149E+02  0.00000000000E+00 0.  1.
</event>
<event>
 7    1  0.1971192E-015  0.9000776E+02  0.7816164E-02  0.1186339E+00
        -11   -1    0    0    0    0  0.00000000000E+00  0.00000000000E+00  0.45593999997E+02  0.45594000000E+02  0.51100000000E-03 0.  1.
         11   -1    0    0    0    0 -0.00000000000E+00 -0.00000000000E+00 -0.45593999997E+02  0.45594000000E+02  0.51100000000E-03 0. -1.
    9900012    2    1    2    0    0 -0.35714847382E+00  0.25100267281E+00  0.10965445571E+01  0.90007759626E+02  0.90000021253E+02 0.  0.
         12    1    1    2    0    0  0.35714847382E+00 -0.25100267281E+00 -0.10965445571E+01  0.11802403738E+01  0.00000000000E+00 0. -1.
         11    1    3    3    0    0 -0.16420938003E+02  0.22172188317E+02 -0.21484283185E+02  0.34968951427E+02  0.51100000000E-03 0. -1.
        -11    1    3    3    0    0 -0.77182381755E+01 -0.16384837659E+01 -0.80525182623E+01  0.11273813916E+02  0.51100000000E-03 0.  1.
        -12    1    3    3    0    0  0.23782027704E+02 -0.20282701878E+02  0.30633346004E+02  0.43764994284E+02  0.00000000000E+00 0.  1.
</event>
<event>
 7    1  0.1971192E-015  0.9000769E+02  0.7816164E-02  0.1186339E+00
        -11   -1    0    0    0    0  0.00000000000E+00  0.00000000000E+00  0.45593999997E+02  0.45594000000E+02  0.51100000000E-03 0.  1.
         11   -1    0    0    0    0 -0.00000000000E+00 -0.00000000000E+00 -0.45593999997E+02  0.45594000000E+02  0.51100000000E-03 0. -1.
    9900012    2    1    2    0    0 -0.79923116599E+00 -0.26617751513E+00  0.82674200152E+00  0.90007693572E+02  0.89999954327E+02 0.  0.
         12    1    1    2    0    0  0.79923116599E+00  0.26617751513E+00 -0.82674200152E+00  0.11803064277E+01  0.00000000000E+00 0. -1.
         11    1    3    3    0    0 -0.16164123396E+02 -0.29489222737E+01 -0.97524531975E+01  0.19107207315E+02  0.51100000000E-03 0. -1.
        -11    1    3    3    0    0  0.36733995981E+02 -0.14113037226E+02 -0.48454304503E+01  0.39648990869E+02  0.51100000000E-03 0.  1.
         12    1    3    3    0    0 -0.21369103750E+02  0.16795781984E+02  0.15424625649E+02  0.31251495388E+02  0.00000000000E+00 0. -1.
</event>
<event>
 7    1  0.1971192E-015  0.9000775E+02  0.7816164E-02  0.1186339E+00
        -11   -1    0    0    0    0  0.00000000000E+00  0.00000000000E+00  0.45593999997E+02  0.45594000000E+02  0.51100000000E-03 0.  1.
         11   -1    0    0    0    0 -0.00000000000E+00 -0.00000000000E+00 -0.45593999997E+02  0.45594000000E+02  0.51100000000E-03 0. -1.
    9900012    2    1    2    0    0 -0.33677660169E+00  0.49065964799E+00  0.10192332140E+01  0.90007745064E+02  0.90000006499E+02 0.  0.
         12    1    1    2    0    0  0.33677660169E+00 -0.49065964799E+00 -0.10192332140E+01  0.11802549361E+01  0.00000000000E+00 0. -1.
         11    1    3    3    0    0 -0.11325729655E+02 -0.34089317748E+02 -0.17250000704E+02  0.39848666996E+02  0.51100000000E-03 0. -1.
        -11    1    3    3    0    0 -0.65772977285E+01  0.41044959256E+01 -0.37993101919E+01  0.86337993032E+01  0.51100000000E-03 0.  1.
        -12    1    3    3    0    0  0.17566250782E+02  0.30475481471E+02  0.22068544110E+02  0.41525278765E+02  0.00000000000E+00 0.  1.
</event>
<event>
 7    1  0.1971192E-015  0.9000783E+02  0.7816164E-02  0.1186339E+00
        -11   -1    0    0    0    0  0.00000000000E+00  0.00000000000E+00  0.45593999997E+02  0.45594000000E+02  0.51100000000E-03 0.  1.
         11   -1    0    0    0    0 -0.00000000000E+00 -0.00000000000E+00 -0.45593999997E+02  0.45594000000E+02  0.51100000000E-03 0. -1.
    9900012    2    1    2    0    0 -0.97084601219E-01  0.11757828095E+01  0.30274687927E-01  0.90007827474E+02  0.90000089996E+02 0.  0.
         12    1    1    2    0    0  0.97084601219E-01 -0.11757828095E+01 -0.30274687927E-01  0.11801725262E+01  0.00000000000E+00 0. -1.
         11    1    3    3    0    0 -0.64422642390E+01  0.55120437348E+01  0.30943759604E+01  0.90255502605E+01  0.51100000000E-03 0. -1.
        -11    1    3    3    0    0 -0.17867682789E+02 -0.18701926727E+02  0.28633942269E+02  0.38586510618E+02  0.51100000000E-03 0.  1.
         12    1    3    3    0    0  0.24212862427E+02  0.14365665802E+02 -0.31698043541E+02  0.42395766595E+02  0.00000000000E+00 0. -1.
</event>
<event>
 7    1  0.1971192E-015  0.9000769E+02  0.7816164E-02  0.1186339E+00
        -11   -1    0    0    0    0  0.00000000000E+00  0.00000000000E+00  0.45593999997E+02  0.45594000000E+02  0.51100000000E-03 0.  1.
         11   -1    0    0    0    0 -0.00000000000E+00 -0.00000000000E+00 -0.45593999997E+02  0.45594000000E+02  0.51100000000E-03 0. -1.
    9900012    2    1    2    0    0 -0.10268423401E+01  0.11955700595E+00  0.56959906544E+00  0.90007685565E+02  0.89999946215E+02 0.  0.
         12    1    1    2    0    0  0.10268423401E+01 -0.11955700595E+00 -0.56959906544E+00  0.11803144346E+01  0.00000000000E+00 0. -1.
         11    1    3    3    0    0 -0.36660186209E+01 -0.29286294509E+01  0.97157325439E+01  0.10789440306E+02  0.51100000000E-03 0. -1.
        -11    1    3    3    0    0 -0.19302717948E+02  0.39316724537E+01  0.29085572393E+02  0.35128670486E+02  0.51100000000E-03 0.  1.
         12    1    3    3    0    0  0.21941894229E+02 -0.88348599682E+00 -0.38231705871E+02  0.44089574773E+02  0.00000000000E+00 0. -1.
</event>
<event>
 7    1  0.1971192E-015  0.9000773E+02  0.7816164E-02  0.1186339E+00
        -11   -1    0    0    0    0  0.00000000000E+00  0.00000000000E+00  0.45593999997E+02  0.45594000000E+02  0.51100000000E-03 0. -1.
         11   -1    0    0    0    0 -0.00000000000E+00 -0.00000000000E+00 -0.45593999997E+02  0.45594000000E+02  0.51100000000E-03 0.  1.
    9900012    2    1    2    0    0 -0.80409567222E+00  0.99056906853E-01 -0.85828619792E+00  0.90007729981E+02  0.89999991216E+02 0.  0.
         12    1    1    2    0    0  0.80409567222E+00 -0.99056906853E-01  0.85828619792E+00  0.11802700193E+01  0.00000000000E+00 0. -1.
         11    1    3    3    0    0 -0.52834932288E+01 -0.63585735548E+00  0.45388424714E+01  0.69943338865E+01  0.51100000000E-03 0. -1.
        -11    1    3    3    0    0  0.15688334433E+00  0.39522206491E+02 -0.15894503238E+02  0.42598880875E+02  0.51100000000E-03 0.  1.
         12    1    3    3    0    0  0.43225142123E+01 -0.38787292229E+02  0.10497374569E+02  0.40414515219E+02  0.00000000000E+00 0. -1.
</event>
<event>
 7    1  0.1971192E-015  0.9000778E+02  0.7816164E-02  0.1186339E+00
        -11   -1    0    0    0    0  0.00000000000E+00  0.00000000000E+00  0.45593999997E+02  0.45594000000E+02  0.51100000000E-03 0.  1.
         11   -1    0    0    0    0 -0.00000000000E+00 -0.00000000000E+00 -0.45593999997E+02  0.45594000000E+02  0.51100000000E-03 0. -1.
    9900012    2    1    2    0    0  0.24915260741E-01 -0.34540484692E+00  0.11282700143E+01  0.90007780316E+02  0.90000042216E+02 0.  0.
         12    1    1    2    0    0 -0.24915260741E-01  0.34540484692E+00 -0.11282700143E+01  0.11802196845E+01  0.00000000000E+00 0. -1.
         11    1    3    3    0    0  0.43639712584E+02 -0.84355465589E+01 -0.11862854861E+01  0.44463358326E+02  0.51100000000E-03 0. -1.
        -11    1    3    3    0    0 -0.77759480597E+01 -0.86605701424E+00  0.35298927373E+01  0.85834472083E+01  0.51100000000E-03 0.  1.
        -12    1    3    3    0    0 -0.35838849263E+02  0.89561987262E+01 -0.12153372369E+01  0.36960974781E+02  0.00000000000E+00 0.  1.
</event>
<event>
 7    1  0.1971192E-015  0.9000776E+02  0.7816164E-02  0.1186339E+00
        -11   -1    0    0    0    0  0.00000000000E+00  0.00000000000E+00  0.45593999997E+02  0.45594000000E+02  0.51100000000E-03 0. -1.
         11   -1    0    0    0    0 -0.00000000000E+00 -0.00000000000E+00 -0.45593999997E+02  0.45594000000E+02  0.51100000000E-03 0.  1.
    9900012    2    1    2    0    0  0.96637378158E+00  0.64970934659E+00 -0.19227213369E+00  0.90007758883E+02  0.90000020500E+02 0.  0.
         12    1    1    2    0    0 -0.96637378158E+00 -0.64970934659E+00  0.19227213369E+00  0.11802411170E+01  0.00000000000E+00 0. -1.
         11    1    3    3    0    0  0.36018118155E+01 -0.33942617972E+01 -0.91150541875E+01  0.10371994726E+02  0.51100000000E-03 0. -1.
        -11    1    3    3    0    0  0.80727986941E+01 -0.21494610749E+02 -0.26246622603E+02  0.34872246390E+02  0.51100000000E-03 0.  1.
         12    1    3    3    0    0 -0.10708236728E+02  0.25538581893E+02  0.35169404656E+02  0.44763517766E+02  0.00000000000E+00 0. -1.
</event>
<event>
 7    1  0.1971192E-015  0.9000758E+02  0.7816164E-02  0.1186339E+00
        -11   -1    0    0    0    0  0.00000000000E+00  0.00000000000E+00  0.45593999997E+02  0.45594000000E+02  0.51100000000E-03 0. -1.
         11   -1    0    0    0    0 -0.00000000000E+00 -0.00000000000E+00 -0.45593999997E+02  0.45594000000E+02  0.51100000000E-03 0.  1.
    9900012    2    1    2    0    0 -0.98729058051E+00 -0.60367493801E+00 -0.23284719257E+00  0.90007583151E+02  0.89999842449E+02 0.  0.
         12    1    1    2    0    0  0.98729058051E+00  0.60367493801E+00  0.23284719257E+00  0.11804168485E+01  0.00000000000E+00 0. -1.
         11    1    3    3    0    0  0.99766954791E+01  0.21563916932E+02  0.27083228356E+02  0.36028297553E+02  0.51100000000E-03 0. -1.
        -11    1    3    3    0    0  0.61677176978E+01 -0.21571694989E+01  0.77398894472E+01  0.10129166341E+02  0.51100000000E-03 0.  1.
        -12    1    3    3    0    0 -0.17131703757E+02 -0.20010422371E+02 -0.35055964996E+02  0.43850119257E+02  0.00000000000E+00 0.  1.
</event>
<event>
 7    1  0.1971192E-015  0.9000858E+02  0.7816164E-02  0.1186337E+00
        -11   -1    0    0    0    0  0.00000000000E+00  0.00000000000E+00  0.45593999997E+02  0.45594000000E+02  0.51100000000E-03 0. -1.
         11   -1    0    0    0    0 -0.00000000000E+00 -0.00000000000E+00 -0.45593999997E+02  0.45594000000E+02  0.51100000000E-03 0.  1.
    9900012    2    1    2    0    0  0.62070948033E+00  0.90850769506E+00  0.42468134802E+00  0.90008584578E+02  0.90000857090E+02 0.  0.
         12    1    1    2    0    0 -0.62070948033E+00 -0.90850769506E+00 -0.42468134802E+00  0.11794154223E+01  0.00000000000E+00 0. -1.
         11    1    3    3    0    0 -0.11155464950E+02 -0.70885989124E+00  0.33217214555E+02  0.35047542334E+02  0.51100000000E-03 0. -1.
        -11    1    3    3    0    0 -0.62586600535E+01  0.34887604783E+01  0.77462805670E+01  0.10552115344E+02  0.51100000000E-03 0.  1.
        -12    1    3    3    0    0  0.18034834483E+02 -0.18713928920E+01 -0.40538813774E+02  0.44408926900E+02  0.00000000000E+00 0.  1.
</event>
<event>
 7    1  0.1971192E-015  0.9000776E+02  0.7816164E-02  0.1186339E+00
        -11   -1    0    0    0    0  0.00000000000E+00  0.00000000000E+00  0.45593999997E+02  0.45594000000E+02  0.51100000000E-03 0.  1.
         11   -1    0    0    0    0 -0.00000000000E+00 -0.00000000000E+00 -0.45593999997E+02  0.45594000000E+02  0.51100000000E-03 0. -1.
    9900012    2    1    2    0    0 -0.57695320146E+00  0.57159191890E+00 -0.85637900534E+00  0.90007755399E+02  0.90000016970E+02 0.  0.
         12    1    1    2    0    0  0.57695320146E+00 -0.57159191890E+00  0.85637900534E+00  0.11802446014E+01  0.00000000000E+00 0. -1.
         11    1    3    3    0    0  0.30602846201E+02 -0.65110943308E+01 -0.19312438221E+02  0.36768176665E+02  0.51100000000E-03 0. -1.
        -11    1    3    3    0    0  0.43885463373E+01  0.38072151095E+01 -0.72072029568E+01  0.92573214574E+01  0.51100000000E-03 0.  1.
        -12    1    3    3    0    0 -0.35568345739E+02  0.32754711402E+01  0.25663262172E+02  0.43982257276E+02  0.00000000000E+00 0.  1.
</event>
<event>
 7    1  0.1971192E-015  0.9000785E+02  0.7816164E-02  0.1186339E+00
        -11   -1    0    0    0    0  0.00000000000E+00  0.00000000000E+00  0.45593999997E+02  0.45594000000E+02  0.51100000000E-03 0. -1.
         11   -1    0    0    0    0 -0.00000000000E+00 -0.00000000000E+00 -0.45593999997E+02  0.45594000000E+02  0.51100000000E-03 0.  1.
    9900012    2    1    2    0    0 -0.11491801556E+01  0.18304787224E+00 -0.19656980874E+00  0.90007846941E+02  0.90000109720E+02 0.  0.
         12    1    1    2    0    0  0.11491801556E+01 -0.18304787224E+00  0.19656980874E+00  0.11801530593E+01  0.00000000000E+00 0. -1.
         11    1    3    3    0    0  0.22136519696E+01 -0.62450600876E+01  0.78217234268E+01  0.10250872556E+02  0.51100000000E-03 0. -1.
        -11    1    3    3    0    0  0.29237415608E+02 -0.72863182230E+01 -0.26254116498E+02  0.39964928850E+02  0.51100000000E-03 0.  1.
         12    1    3    3    0    0 -0.32600247733E+02  0.13714426183E+02  0.18235823262E+02  0.39792045534E+02  0.00000000000E+00 0. -1.
</event>
<event>
 7    1  0.1971192E-015  0.9000777E+02  0.7816164E-02  0.1186339E+00
        -11   -1    0    0    0    0  0.00000000000E+00  0.00000000000E+00  0.45593999997E+02  0.45594000000E+02  0.51100000000E-03 0.  1.
         11   -1    0    0    0    0 -0.00000000000E+00 -0.00000000000E+00 -0.45593999997E+02  0.45594000000E+02  0.51100000000E-03 0. -1.
    9900012    2    1    2    0    0 -0.68888545801E+00 -0.35815240566E+00  0.88887800728E+00  0.90007771026E+02  0.90000032803E+02 0.  0.
         12    1    1    2    0    0  0.68888545801E+00  0.35815240566E+00 -0.88887800728E+00  0.11802289743E+01  0.00000000000E+00 0. -1.
         11    1    3    3    0    0  0.85054058201E+01 -0.14081079082E+02  0.32726988245E+02  0.36628874895E+02  0.51100000000E-03 0. -1.
        -11    1    3    3    0    0  0.33678463506E+01 -0.41105628222E+00  0.83233837420E+01  0.89883298496E+01  0.51100000000E-03 0.  1.
        -12    1    3    3    0    0 -0.12562137629E+02  0.14133982958E+02 -0.40161493979E+02  0.44390566281E+02  0.00000000000E+00 0.  1.
</event>
<event>
 7    1  0.1971192E-015  0.9000772E+02  0.7816164E-02  0.1186339E+00
        -11   -1    0    0    0    0  0.00000000000E+00  0.00000000000E+00  0.45593999997E+02  0.45594000000E+02  0.51100000000E-03 0. -1.
         11   -1    0    0    0    0 -0.00000000000E+00 -0.00000000000E+00 -0.45593999997E+02  0.45594000000E+02  0.51100000000E-03 0.  1.
    9900012    2    1    2    0    0 -0.55424495032E+00  0.94871989991E+00 -0.43105360425E+00  0.90007718625E+02  0.89999979711E+02 0.  0.
         12    1    1    2    0    0  0.55424495032E+00 -0.94871989991E+00  0.43105360425E+00  0.11802813746E+01  0.00000000000E+00 0. -1.
         11    1    3    3    0    0 -0.40025372847E+01  0.92233054533E+01 -0.17630792687E+01  0.10207747889E+02  0.51100000000E-03 0. -1.
        -11    1    3    3    0    0  0.19958766189E+02  0.30144950551E+02  0.90684364279E+01  0.37273407827E+02  0.51100000000E-03 0.  1.
         12    1    3    3    0    0 -0.16510473855E+02 -0.38419536104E+02 -0.77364107634E+01  0.42526562909E+02  0.00000000000E+00 0. -1.
</event>
<event>
 7    1  0.1971192E-015  0.9000773E+02  0.7816164E-02  0.1186339E+00
        -11   -1    0    0    0    0  0.00000000000E+00  0.00000000000E+00  0.45593999997E+02  0.45594000000E+02  0.51100000000E-03 0.  1.
         11   -1    0    0    0    0 -0.00000000000E+00 -0.00000000000E+00 -0.45593999997E+02  0.45594000000E+02  0.51100000000E-03 0. -1.
    9900012    2    1    2    0    0 -0.76563769499E+00 -0.69854332168E+00 -0.56468660562E+00  0.90007731041E+02  0.89999992291E+02 0.  0.
         12    1    1    2    0    0  0.76563769499E+00  0.69854332168E+00  0.56468660562E+00  0.11802689587E+01  0.00000000000E+00 0. -1.
         11    1    3    3    0    0  0.13385372511E+01  0.15900306001E+01  0.99453453194E+01  0.10160205365E+02  0.51100000000E-03 0. -1.
        -11    1    3    3    0    0  0.18212431552E+02  0.32368166814E+02  0.34932357939E+01  0.37304069248E+02  0.51100000000E-03 0.  1.
         12    1    3    3    0    0 -0.20316606498E+02 -0.34656740736E+02 -0.14003267719E+02  0.42543456428E+02  0.00000000000E+00 0. -1.
</event>
<event>
 7    1  0.1971192E-015  0.9000770E+02  0.7816164E-02  0.1186339E+00
        -11   -1    0    0    0    0  0.00000000000E+00  0.00000000000E+00  0.45593999997E+02  0.45594000000E+02  0.51100000000E-03 0.  1.
         11   -1    0    0    0    0 -0.00000000000E+00 -0.00000000000E+00 -0.45593999997E+02  0.45594000000E+02  0.51100000000E-03 0. -1.
    9900012    2    1    2    0    0 -0.44812668414E+00  0.46261408715E+00  0.98908557179E+00  0.90007695130E+02  0.89999955905E+02 0.  0.
         12    1    1    2    0    0  0.44812668414E+00 -0.46261408715E+00 -0.98908557179E+00  0.11803048704E+01  0.00000000000E+00 0. -1.
         11    1    3    3    0    0 -0.60262643712E+00 -0.29497489970E+01  0.93757651752E+01  0.98472915388E+01  0.51100000000E-03 0. -1.
        -11    1    3    3    0    0  0.33817480206E+02 -0.12583324070E+02  0.11558808726E+02  0.37888891136E+02  0.51100000000E-03 0.  1.
         12    1    3    3    0    0 -0.33662980453E+02  0.15995687154E+02 -0.19945488329E+02  0.42271512455E+02  0.00000000000E+00 0. -1.
</event>
<event>
 7    1  0.2142567E-015  0.9000836E+02  0.7816164E-02  0.1186338E+00
        -11   -1    0    0    0    0  0.00000000000E+00  0.00000000000E+00  0.45593999997E+02  0.45594000000E+02  0.51100000000E-03 0. -1.
         11   -1    0    0    0    0 -0.00000000000E+00 -0.00000000000E+00 -0.45593999997E+02  0.45594000000E+02  0.51100000000E-03 0.  1.
    9900012    2    1    2    0    0  0.65851471227E+00 -0.86666246070E+00 -0.45476622461E+00  0.90008356933E+02  0.90000626442E+02 0.  0.
         12    1    1    2    0    0 -0.65851471227E+00  0.86666246070E+00  0.45476622461E+00  0.11796430672E+01  0.00000000000E+00 0. -1.
         11    1    3    3    0    0 -0.22777830205E+01 -0.22256385374E+01  0.35045225743E+02  0.35189623613E+02  0.51100000000E-03 0. -1.
        -11    1    3    3    0    0  0.11237771091E+01  0.21670243979E+01  0.94829190747E+01  0.97920694529E+01  0.51100000000E-03 0.  1.
        -12    1    3    3    0    0  0.18125206237E+01 -0.80804832122E+00 -0.44982911043E+02  0.45026663867E+02  0.00000000000E+00 0.  1.
</event>
<event>
 7    1  0.1971192E-015  0.9000769E+02  0.7816164E-02  0.1186339E+00
        -11   -1    0    0    0    0  0.00000000000E+00  0.00000000000E+00  0.45593999997E+02  0.45594000000E+02  0.51100000000E-03 0.  1.
         11   -1    0    0    0    0 -0.00000000000E+00 -0.00000000000E+00 -0.45593999997E+02  0.45594000000E+02  0.51100000000E-03 0. -1.
    9900012    2    1    2    0    0 -0.60173707616E+00 -0.10128408949E+01 -0.72022933210E-01  0.90007694323E+02  0.89999955089E+02 0.  0.
         12    1    1    2    0    0  0.60173707616E+00  0.10128408949E+01  0.72022933210E-01  0.11803056765E+01  0.00000000000E+00 0. -1.
         11    1    3    3    0    0 -0.74839447540E+01 -0.22057850641E+02 -0.31968822980E+02  0.39554567966E+02  0.51100000000E-03 0. -1.
        -11    1    3    3    0    0  0.10809250324E+02  0.45533172472E+00 -0.16021760422E+01  0.10936827139E+02  0.51100000000E-03 0.  1.
        -12    1    3    3    0    0 -0.39270426459E+01  0.20589678021E+02  0.33498976089E+02  0.39516299219E+02  0.00000000000E+00 0.  1.
</event>
<event>
 7    1  0.1971192E-015  0.9000771E+02  0.7816164E-02  0.1186339E+00
        -11   -1    0    0    0    0  0.00000000000E+00  0.00000000000E+00  0.45593999997E+02  0.45594000000E+02  0.51100000000E-03 0. -1.
         11   -1    0    0    0    0 -0.00000000000E+00 -0.00000000000E+00 -0.45593999997E+02  0.45594000000E+02  0.51100000000E-03 0.  1.
    9900012    2    1    2    0    0 -0.10345441056E+01 -0.54422905747E+00  0.16312630327E+00  0.90007713186E+02  0.89999974200E+02 0.  0.
         12    1    1    2    0    0  0.10345441056E+01  0.54422905747E+00 -0.16312630327E+00  0.11802868144E+01  0.00000000000E+00 0. -1.
         11    1    3    3    0    0  0.39938051383E+02  0.13122301064E+02  0.42852680855E+01  0.42256434496E+02  0.51100000000E-03 0. -1.
        -11    1    3    3    0    0 -0.36852091211E+01  0.46932026191E+01  0.15705139645E+00  0.59692195882E+01  0.51100000000E-03 0.  1.
        -12    1    3    3    0    0 -0.37287386368E+02 -0.18359732741E+02 -0.42791931786E+01  0.41782059101E+02  0.00000000000E+00 0.  1.
</event>
<event>
 7    1  0.1971192E-015  0.9000777E+02  0.7816164E-02  0.1186339E+00
        -11   -1    0    0    0    0  0.00000000000E+00  0.00000000000E+00  0.45593999997E+02  0.45594000000E+02  0.51100000000E-03 0. -1.
         11   -1    0    0    0    0 -0.00000000000E+00 -0.00000000000E+00 -0.45593999997E+02  0.45594000000E+02  0.51100000000E-03 0.  1.
    9900012    2    1    2    0    0 -0.77055979602E+00  0.72157591637E+00 -0.52774902917E+00  0.90007765599E+02  0.90000027305E+02 0.  0.
         12    1    1    2    0    0  0.77055979602E+00 -0.72157591637E+00  0.52774902917E+00  0.11802344005E+01  0.00000000000E+00 0. -1.
         11    1    3    3    0    0  0.79648383755E+01  0.35526751816E+01  0.52289555718E+01  0.10168683687E+02  0.51100000000E-03 0. -1.
        -11    1    3    3    0    0  0.29792855171E+02 -0.19734183637E+02 -0.11118962166E+02  0.37425706980E+02  0.51100000000E-03 0.  1.
         12    1    3    3    0    0 -0.38528253343E+02  0.16903084371E+02  0.53622575653E+01  0.42413374932E+02  0.00000000000E+00 0. -1.
</event>
<event>
 7    1  0.1971192E-015  0.9000768E+02  0.7816164E-02  0.1186339E+00
        -11   -1    0    0    0    0  0.00000000000E+00  0.00000000000E+00  0.45593999997E+02  0.45594000000E+02  0.51100000000E-03 0.  1.
         11   -1    0    0    0    0 -0.00000000000E+00 -0.00000000000E+00 -0.45593999997E+02  0.45594000000E+02  0.51100000000E-03 0. -1.
    9900012    2    1    2    0    0  0.19241719784E+00  0.10816457484E+01  0.43147358026E+00  0.90007681673E+02  0.89999942271E+02 0.  0.
         12    1    1    2    0    0 -0.19241719784E+00 -0.10816457484E+01 -0.43147358026E+00  0.11803183272E+01  0.00000000000E+00 0. -1.
         11    1    3    3    0    0  0.84596220945E+01  0.21065151656E+01  0.23875372539E+01  0.90389682224E+01  0.51100000000E-03 0. -1.
        -11    1    3    3    0    0 -0.63235596924E+01 -0.82919692288E+01  0.38465068676E+02  0.39853552782E+02  0.51100000000E-03 0.  1.
         12    1    3    3    0    0 -0.19436452043E+01  0.72670998116E+01 -0.40421132349E+02  0.41115160668E+02  0.00000000000E+00 0. -1.
</event>
<event>
 7    1  0.1971192E-015  0.9000832E+02  0.7816164E-02  0.1186338E+00
        -11   -1    0    0    0    0  0.00000000000E+00  0.00000000000E+00  0.45593999997E+02  0.45594000000E+02  0.51100000000E-03 0. -1.
         11   -1    0    0    0    0 -0.00000000000E+00 -0.00000000000E+00 -0.45593999997E+02  0.45594000000E+02  0.51100000000E-03 0.  1.
    9900012    2    1    2    0    0  0.66708782560E+00 -0.15461956332E+00 -0.96059050723E+00  0.90008318899E+02  0.90000587907E+02 0.  0.
         12    1    1    2    0    0 -0.66708782560E+00  0.15461956332E+00  0.96059050723E+00  0.11796811006E+01  0.00000000000E+00 0. -1.
         11    1    3    3    0    0  0.37062105043E+01 -0.12540729926E+02  0.24893081782E+02  0.28118880210E+02  0.51100000000E-03 0. -1.
        -11    1    3    3    0    0 -0.96725077506E+01  0.10224083967E+02  0.14927178627E+02  0.20516090299E+02  0.51100000000E-03 0.  1.
        -12    1    3    3    0    0  0.66333850719E+01  0.21620263961E+01 -0.40780850916E+02  0.41373348391E+02  0.00000000000E+00 0.  1.
</event>
<event>
 7    1  0.1971192E-015  0.9000764E+02  0.7816164E-02  0.1186339E+00
        -11   -1    0    0    0    0  0.00000000000E+00  0.00000000000E+00  0.45593999997E+02  0.45594000000E+02  0.51100000000E-03 0. -1.
         11   -1    0    0    0    0 -0.00000000000E+00 -0.00000000000E+00 -0.45593999997E+02  0.45594000000E+02  0.51100000000E-03 0.  1.
    9900012    2    1    2    0    0 -0.96878790934E+00 -0.53149653951E+00  0.41499208521E+00  0.90007636914E+02  0.89999896921E+02 0.  0.
         12    1    1    2    0    0  0.96878790934E+00  0.53149653951E+00 -0.41499208521E+00  0.11803630863E+01  0.00000000000E+00 0. -1.
         11    1    3    3    0    0  0.19148589029E+02 -0.27367077960E+02  0.23764791722E+02  0.40992569372E+02  0.51100000000E-03 0. -1.
        -11    1    3    3    0    0 -0.74994002949E+01 -0.42744233715E+01 -0.10121010874E+01  0.86911477271E+01  0.51100000000E-03 0.  1.
        -12    1    3    3    0    0 -0.12617976643E+02  0.31110004792E+02 -0.22337698550E+02  0.40323919815E+02  0.00000000000E+00 0.  1.
</event>
<event>
 7    1  0.1971192E-015  0.9000781E+02  0.7816164E-02  0.1186339E+00
        -11   -1    0    0    0    0  0.00000000000E+00  0.00000000000E+00  0.45593999997E+02  0.45594000000E+02  0.51100000000E-03 0.  1.
         11   -1    0    0    0    0 -0.00000000000E+00 -0.00000000000E+00 -0.45593999997E+02  0.45594000000E+02  0.51100000000E-03 0. -1.
    9900012    2    1    2    0    0  0.22600950499E+00 -0.92931826563E+00  0.69147808753E+00  0.90007807354E+02  0.90000069611E+02 0.  0.
         12    1    1    2    0    0 -0.22600950499E+00  0.92931826563E+00 -0.69147808753E+00  0.11801926456E+01  0.00000000000E+00 0. -1.
         11    1    3    3    0    0  0.18447319772E+02 -0.65484812233E+01  0.18101577628E+02  0.26661832757E+02  0.51100000000E-03 0. -1.
        -11    1    3    3    0    0 -0.93465752567E+00  0.16499942501E+02  0.16759121169E+02  0.23536988547E+02  0.51100000000E-03 0.  1.
         12    1    3    3    0    0 -0.17286652741E+02 -0.10880779544E+02 -0.34169220710E+02  0.39808986050E+02  0.00000000000E+00 0. -1.
</event>
<event>
 7    1  0.1971192E-015  0.9000771E+02  0.7816164E-02  0.1186339E+00
        -11   -1    0    0    0    0  0.00000000000E+00  0.00000000000E+00  0.45593999997E+02  0.45594000000E+02  0.51100000000E-03 0. -1.
         11   -1    0    0    0    0 -0.00000000000E+00 -0.00000000000E+00 -0.45593999997E+02  0.45594000000E+02  0.51100000000E-03 0.  1.
    9900012    2    1    2    0    0  0.32020809107E+00 -0.10976681364E+01  0.29270516418E+00  0.90007709836E+02  0.89999970805E+02 0.  0.
         12    1    1    2    0    0 -0.32020809107E+00  0.10976681364E+01 -0.29270516418E+00  0.11802901645E+01  0.00000000000E+00 0. -1.
         11    1    3    3    0    0  0.18632971089E+01 -0.89902198889E+01  0.89936425221E+00  0.92252255304E+01  0.51100000000E-03 0. -1.
        -11    1    3    3    0    0  0.15367651364E+01 -0.35304517135E+02  0.89068060921E+01  0.36443130659E+02  0.51100000000E-03 0.  1.
         12    1    3    3    0    0 -0.30798541542E+01  0.43197068887E+02 -0.95134651802E+01  0.44339353646E+02  0.00000000000E+00 0. -1.
</event>
<event>
 7    1  0.1971192E-015  0.9000797E+02  0.7816164E-02  0.1186339E+00
        -11   -1    0    0    0    0  0.00000000000E+00  0.00000000000E+00  0.45593999997E+02  0.45594000000E+02  0.51100000000E-03 0.  1.
         11   -1    0    0    0    0 -0.00000000000E+00 -0.00000000000E+00 -0.45593999997E+02  0.45594000000E+02  0.51100000000E-03 0. -1.
    9900012    2    1    2    0    0 -0.78294279276E+00 -0.55802158290E+00 -0.68416798547E+00  0.90007968926E+02  0.90000233315E+02 0.  0.
         12    1    1    2    0    0  0.78294279276E+00  0.55802158290E+00  0.68416798547E+00  0.11800310742E+01  0.00000000000E+00 0. -1.
         11    1    3    3    0    0 -0.66281746028E+01  0.79535855113E+01  0.62800270899E+01  0.12109127201E+02  0.51100000000E-03 0. -1.
        -11    1    3    3    0    0 -0.11903613581E+01  0.12579435924E+02  0.31238533094E+02  0.33697256839E+02  0.51100000000E-03 0.  1.
         12    1    3    3    0    0  0.70355931682E+01 -0.21091043018E+02 -0.38202728170E+02  0.44201584886E+02  0.00000000000E+00 0. -1.
</event>
<event>
 7    1  0.1971192E-015  0.9000774E+02  0.7816164E-02  0.1186339E+00
        -11   -1    0    0    0    0  0.00000000000E+00  0.00000000000E+00  0.45593999997E+02  0.45594000000E+02  0.51100000000E-03 0. -1.
         11   -1    0    0    0    0 -0.00000000000E+00 -0.00000000000E+00 -0.45593999997E+02  0.45594000000E+02  0.51100000000E-03 0.  1.
    9900012    2    1    2    0    0 -0.10908759247E+01 -0.22662576949E+00  0.38941517714E+00  0.90007739985E+02  0.90000001353E+02 0.  0.
         12    1    1    2    0    0  0.10908759247E+01  0.22662576949E+00 -0.38941517714E+00  0.11802600148E+01  0.00000000000E+00 0. -1.
         11    1    3    3    0    0  0.33960868591E+00 -0.22204691207E+01  0.92330700629E+01  0.95023891850E+01  0.51100000000E-03 0. -1.
        -11    1    3    3    0    0 -0.24256946769E+02 -0.27589921420E+02 -0.19577405872E+02  0.41627851872E+02  0.51100000000E-03 0.  1.
         12    1    3    3    0    0  0.22826462158E+02  0.29583764771E+02  0.10733750987E+02  0.38877498928E+02  0.00000000000E+00 0. -1.
</event>
<event>
 7    1  0.1971192E-015  0.9000773E+02  0.7816164E-02  0.1186339E+00
        -11   -1    0    0    0    0  0.00000000000E+00  0.00000000000E+00  0.45593999997E+02  0.45594000000E+02  0.51100000000E-03 0. -1.
         11   -1    0    0    0    0 -0.00000000000E+00 -0.00000000000E+00 -0.45593999997E+02  0.45594000000E+02  0.51100000000E-03 0.  1.
    9900012    2    1    2    0    0 -0.85579443421E-01  0.11750637264E+01 -0.70207355263E-01  0.90007734066E+02  0.89999995356E+02 0.  0.
         12    1    1    2    0    0  0.85579443421E-01 -0.11750637264E+01  0.70207355263E-01  0.11802659340E+01  0.00000000000E+00 0. -1.
         11    1    3    3    0    0  0.98312370686E+01 -0.29880157118E-01  0.85472634907E+01  0.13027272491E+02  0.51100000000E-03 0. -1.
        -11    1    3    3    0    0  0.25355428324E+02  0.14995290657E+02  0.14267363276E+02  0.32730935558E+02  0.51100000000E-03 0.  1.
         12    1    3    3    0    0 -0.35272244836E+02 -0.13790346774E+02 -0.22884834122E+02  0.44249526017E+02  0.00000000000E+00 0. -1.
</event>
<event>
 7    1  0.1971192E-015  0.9000783E+02  0.7816164E-02  0.1186339E+00
        -11   -1    0    0    0    0  0.00000000000E+00  0.00000000000E+00  0.45593999997E+02  0.45594000000E+02  0.51100000000E-03 0.  1.
         11   -1    0    0    0    0 -0.00000000000E+00 -0.00000000000E+00 -0.45593999997E+02  0.45594000000E+02  0.51100000000E-03 0. -1.
    9900012    2    1    2    0    0  0.12658043568E+00  0.39970453128E+00  0.11031793753E+01  0.90007834311E+02  0.90000096924E+02 0.  0.
         12    1    1    2    0    0 -0.12658043568E+00 -0.39970453128E+00 -0.11031793753E+01  0.11801656889E+01  0.00000000000E+00 0. -1.
         11    1    3    3    0    0 -0.11325219799E+02  0.23235034637E+02 -0.29279003406E+02  0.39056209221E+02  0.51100000000E-03 0. -1.
        -11    1    3    3    0    0  0.17587834707E+01 -0.77265446613E+01 -0.62930181303E+01  0.10119035979E+02  0.51100000000E-03 0.  1.
        -12    1    3    3    0    0  0.96930167638E+01 -0.15108785444E+02  0.36675200911E+02  0.40832589110E+02  0.00000000000E+00 0.  1.
</event>
<event>
 7    1  0.1971192E-015  0.9000772E+02  0.7816164E-02  0.1186339E+00
        -11   -1    0    0    0    0  0.00000000000E+00  0.00000000000E+00  0.45593999997E+02  0.45594000000E+02  0.51100000000E-03 0.  1.
         11   -1    0    0    0    0 -0.00000000000E+00 -0.00000000000E+00 -0.45593999997E+02  0.45594000000E+02  0.51100000000E-03 0. -1.
    9900012    2    1    2    0    0 -0.90641824084E+00  0.24334518762E+00  0.71572124830E+00  0.90007717062E+02  0.89999978128E+02 0.  0.
         12    1    1    2    0    0  0.90641824084E+00 -0.24334518762E+00 -0.71572124830E+00  0.11802829377E+01  0.00000000000E+00 0. -1.
         11    1    3    3    0    0  0.32946967728E+02 -0.33289053270E+01 -0.27132145301E+02  0.42810484721E+02  0.51100000000E-03 0. -1.
        -11    1    3    3    0    0 -0.95020036679E+01 -0.99947720385E+00 -0.47528910847E+00  0.95662389884E+01  0.51100000000E-03 0.  1.
        -12    1    3    3    0    0 -0.24351382301E+02  0.45717277185E+01  0.28323155657E+02  0.37630993353E+02  0.00000000000E+00 0.  1.
</event>
<event>
 7    1  0.1971192E-015  0.9000776E+02  0.7816164E-02  0.1186339E+00
        -11   -1    0    0    0    0  0.00000000000E+00  0.00000000000E+00  0.45593999997E+02  0.45594000000E+02  0.51100000000E-03 0. -1.
         11   -1    0    0    0    0 -0.00000000000E+00 -0.00000000000E+00 -0.45593999997E+02  0.45594000000E+02  0.51100000000E-03 0.  1.
    9900012    2    1    2    0    0 -0.43168834246E+00 -0.75417017748E+00  0.79864489892E+00  0.90007762246E+02  0.90000023908E+02 0.  0.
         12    1    1    2    0    0  0.43168834246E+00  0.75417017748E+00 -0.79864489892E+00  0.11802377541E+01  0.00000000000E+00 0. -1.
         11    1    3    3    0    0 -0.21675726022E+02  0.28878740172E+02  0.66993797451E-01  0.36108492366E+02  0.51100000000E-03 0. -1.
        -11    1    3    3    0    0 -0.68323340591E+01  0.49949716808E+01  0.36649130781E+01  0.92229127134E+01  0.51100000000E-03 0.  1.
        -12    1    3    3    0    0  0.28076371739E+02 -0.34627882030E+02 -0.29332619767E+01  0.44676357167E+02  0.00000000000E+00 0.  1.
</event>
<event>
 7    1  0.1971192E-015  0.9000787E+02  0.7816164E-02  0.1186339E+00
        -11   -1    0    0    0    0  0.00000000000E+00  0.00000000000E+00  0.45593999997E+02  0.45594000000E+02  0.51100000000E-03 0.  1.
         11   -1    0    0    0    0 -0.00000000000E+00 -0.00000000000E+00 -0.45593999997E+02  0.45594000000E+02  0.51100000000E-03 0. -1.
    9900012    2    1    2    0    0  0.11153731017E+01  0.37782769095E+00  0.76832350810E-01  0.90007866902E+02  0.90000129945E+02 0.  0.
         12    1    1    2    0    0 -0.11153731017E+01 -0.37782769095E+00 -0.76832350810E-01  0.11801330985E+01  0.00000000000E+00 0. -1.
         11    1    3    3    0    0 -0.24937865073E+01 -0.58164965171E+01 -0.58709375688E+01  0.86324105020E+01  0.51100000000E-03 0. -1.
        -11    1    3    3    0    0 -0.33354195982E+02 -0.17012410219E+02  0.44436722297E+01  0.37705048923E+02  0.51100000000E-03 0.  1.
         12    1    3    3    0    0  0.36963355591E+02  0.23206734427E+02  0.15040976899E+01  0.43670407477E+02  0.00000000000E+00 0. -1.
</event>
<event>
 7    1  0.1971192E-015  0.9000770E+02  0.7816164E-02  0.1186339E+00
        -11   -1    0    0    0    0  0.00000000000E+00  0.00000000000E+00  0.45593999997E+02  0.45594000000E+02  0.51100000000E-03 0.  1.
         11   -1    0    0    0    0 -0.00000000000E+00 -0.00000000000E+00 -0.45593999997E+02  0.45594000000E+02  0.51100000000E-03 0. -1.
    9900012    2    1    2    0    0 -0.26340305096E+00 -0.87044018186E+00  0.75237077982E+00  0.90007699586E+02  0.89999960420E+02 0.  0.
         12    1    1    2    0    0  0.26340305096E+00  0.87044018186E+00 -0.75237077982E+00  0.11803004142E+01  0.00000000000E+00 0. -1.
         11    1    3    3    0    0 -0.13041790694E+02  0.41683810261E+00  0.19197118672E+02  0.23211881097E+02  0.51100000000E-03 0. -1.
        -11    1    3    3    0    0  0.45668768399E+01 -0.96375480023E+01  0.22129449387E+02  0.24565244269E+02  0.51100000000E-03 0.  1.
         12    1    3    3    0    0  0.82115108034E+01  0.83502697178E+01 -0.40574197279E+02  0.42230574219E+02  0.00000000000E+00 0. -1.
</event>
<event>
 7    1  0.1971192E-015  0.9000770E+02  0.7816164E-02  0.1186339E+00
        -11   -1    0    0    0    0  0.00000000000E+00  0.00000000000E+00  0.45593999997E+02  0.45594000000E+02  0.51100000000E-03 0. -1.
         11   -1    0    0    0    0 -0.00000000000E+00 -0.00000000000E+00 -0.45593999997E+02  0.45594000000E+02  0.51100000000E-03 0.  1.
    9900012    2    1    2    0    0 -0.35777400816E-01 -0.11734484454E+01 -0.12187316801E+00  0.90007697350E+02  0.89999958155E+02 0.  0.
         12    1    1    2    0    0  0.35777400816E-01  0.11734484454E+01  0.12187316801E+00  0.11803026500E+01  0.00000000000E+00 0. -1.
         11    1    3    3    0    0  0.54672055392E+01 -0.58430854757E+01 -0.12023675225E+02  0.14443017360E+02  0.51100000000E-03 0. -1.
        -11    1    3    3    0    0 -0.39035633637E+02  0.10755394744E+02  0.78510217947E+01  0.41244366319E+02  0.51100000000E-03 0.  1.
         12    1    3    3    0    0  0.33532650697E+02 -0.60857577139E+01  0.40507802628E+01  0.34320313671E+02  0.00000000000E+00 0. -1.
</event>
<event>
 7    1  0.1971192E-015  0.9000772E+02  0.7816164E-02  0.1186339E+00
        -11   -1    0    0    0    0  0.00000000000E+00  0.00000000000E+00  0.45593999997E+02  0.45594000000E+02  0.51100000000E-03 0.  1.
         11   -1    0    0    0    0 -0.00000000000E+00 -0.00000000000E+00 -0.45593999997E+02  0.45594000000E+02  0.51100000000E-03 0. -1.
    9900012    2    1    2    0    0 -0.11617704750E+01  0.86271452271E-01  0.18950330078E+00  0.90007718296E+02  0.89999979377E+02 0.  0.
         12    1    1    2    0    0  0.11617704750E+01 -0.86271452271E-01 -0.18950330078E+00  0.11802817041E+01  0.00000000000E+00 0. -1.
         11    1    3    3    0    0  0.74307701122E+01 -0.45196623934E+01  0.39441153828E+01  0.95498554452E+01  0.51100000000E-03 0. -1.
        -11    1    3    3    0    0 -0.31542860173E+02 -0.10820569096E+02 -0.28105505345E+02  0.43611422523E+02  0.51100000000E-03 0.  1.
         12    1    3    3    0    0  0.22950319586E+02  0.15426502941E+02  0.24350893263E+02  0.36846440328E+02  0.00000000000E+00 0. -1.
</event>
<event>
 7    1  0.1971192E-015  0.9000777E+02  0.7816164E-02  0.1186339E+00
        -11   -1    0    0    0    0  0.00000000000E+00  0.00000000000E+00  0.45593999997E+02  0.45594000000E+02  0.51100000000E-03 0.  1.
         11   -1    0    0    0    0 -0.00000000000E+00 -0.00000000000E+00 -0.45593999997E+02  0.45594000000E+02  0.51100000000E-03 0. -1.
    9900012    2    1    2    0    0  0.70787100697E+00  0.84846586487E+00  0.41468844756E+00  0.90007770279E+02  0.90000032046E+02 0.  0.
         12    1    1    2    0    0 -0.70787100697E+00 -0.84846586487E+00 -0.41468844756E+00  0.11802297212E+01  0.00000000000E+00 0. -1.
         11    1    3    3    0    0  0.15133009109E+01 -0.83855023233E+01 -0.57425848006E+01  0.10275407988E+02  0.51100000000E-03 0. -1.
        -11    1    3    3    0    0 -0.49654576863E+01  0.11882901512E+02  0.41805684566E+02  0.43744421138E+02  0.51100000000E-03 0.  1.
         12    1    3    3    0    0  0.41600277824E+01 -0.26489333237E+01 -0.35648411318E+02  0.35987941153E+02  0.00000000000E+00 0. -1.
</event>
<event>
 7    1  0.1971192E-015  0.9000764E+02  0.7816164E-02  0.1186339E+00
        -11   -1    0    0    0    0  0.00000000000E+00  0.00000000000E+00  0.45593999997E+02  0.45594000000E+02  0.51100000000E-03 0. -1.
         11   -1    0    0    0    0 -0.00000000000E+00 -0.00000000000E+00 -0.45593999997E+02  0.45594000000E+02  0.51100000000E-03 0.  1.
    9900012    2    1    2    0    0 -0.62566574644E-02 -0.85893993235E+00 -0.80959213454E+00  0.90007637184E+02  0.89999897195E+02 0.  0.
         12    1    1    2    0    0  0.62566574644E-02  0.85893993235E+00  0.80959213454E+00  0.11803628160E+01  0.00000000000E+00 0. -1.
         11    1    3    3    0    0 -0.56704837786E+00  0.19267961703E+01  0.91940914813E+01  0.94109194967E+01  0.51100000000E-03 0. -1.
        -11    1    3    3    0    0 -0.19694274495E+01  0.36580483766E+02 -0.17246030405E+02  0.40489949395E+02  0.51100000000E-03 0.  1.
         12    1    3    3    0    0  0.25302191699E+01 -0.39366219869E+02  0.72423467893E+01  0.40106768292E+02  0.00000000000E+00 0. -1.
</event>
<event>
 7    1  0.1971192E-015  0.9000788E+02  0.7816164E-02  0.1186339E+00
        -11   -1    0    0    0    0  0.00000000000E+00  0.00000000000E+00  0.45593999997E+02  0.45594000000E+02  0.51100000000E-03 0. -1.
         11   -1    0    0    0    0 -0.00000000000E+00 -0.00000000000E+00 -0.45593999997E+02  0.45594000000E+02  0.51100000000E-03 0.  1.
    9900012    2    1    2    0    0 -0.73894286483E+00 -0.90006185689E+00 -0.19111793258E+00  0.90007883918E+02  0.90000147185E+02 0.  0.
         12    1    1    2    0    0  0.73894286483E+00  0.90006185689E+00  0.19111793258E+00  0.11801160824E+01  0.00000000000E+00 0. -1.
         11    1    3    3    0    0 -0.11701365783E+02  0.41634964137E+01  0.44151874211E+01  0.13181446954E+02  0.51100000000E-03 0. -1.
        -11    1    3    3    0    0 -0.54557381977E+01 -0.32963472983E+02  0.17411192730E+02  0.37676322312E+02  0.51100000000E-03 0.  1.
         12    1    3    3    0    0  0.16418161116E+02  0.27899914713E+02 -0.22017498084E+02  0.39150114652E+02  0.00000000000E+00 0. -1.
</event>
<event>
 7    1  0.1971192E-015  0.9000758E+02  0.7816164E-02  0.1186339E+00
        -11   -1    0    0    0    0  0.00000000000E+00  0.00000000000E+00  0.45593999997E+02  0.45594000000E+02  0.51100000000E-03 0.  1.
         11   -1    0    0    0    0 -0.00000000000E+00 -0.00000000000E+00 -0.45593999997E+02  0.45594000000E+02  0.51100000000E-03 0. -1.
    9900012    2    1    2    0    0 -0.87214232686E+00  0.76260306862E+00  0.22625169623E+00  0.90007582485E+02  0.89999841774E+02 0.  0.
         12    1    1    2    0    0  0.87214232686E+00 -0.76260306862E+00 -0.22625169623E+00  0.11804175145E+01  0.00000000000E+00 0. -1.
         11    1    3    3    0    0  0.10815283497E+02 -0.74297584823E+01  0.80008525279E+01  0.15368321628E+02  0.51100000000E-03 0. -1.
        -11    1    3    3    0    0 -0.21705314168E+02 -0.22601401145E+02  0.15305051620E+02  0.34873895713E+02  0.51100000000E-03 0.  1.
         12    1    3    3    0    0  0.10017888345E+02  0.30793762695E+02 -0.23079652451E+02  0.39765365145E+02  0.00000000000E+00 0. -1.
</event>
<event>
 7    1  0.1971192E-015  0.9000770E+02  0.7816164E-02  0.1186339E+00
        -11   -1    0    0    0    0  0.00000000000E+00  0.00000000000E+00  0.45593999997E+02  0.45594000000E+02  0.51100000000E-03 0. -1.
         11   -1    0    0    0    0 -0.00000000000E+00 -0.00000000000E+00 -0.45593999997E+02  0.45594000000E+02  0.51100000000E-03 0.  1.
    9900012    2    1    2    0    0  0.11168858487E-01  0.79425279709E+00 -0.87300406062E+00  0.90007704131E+02  0.89999965025E+02 0.  0.
         12    1    1    2    0    0 -0.11168858487E-01 -0.79425279709E+00  0.87300406062E+00  0.11802958692E+01  0.00000000000E+00 0. -1.
         11    1    3    3    0    0 -0.69836629662E+01 -0.50864160082E+01 -0.94123394658E+00  0.86907478295E+01  0.51100000000E-03 0. -1.
        -11    1    3    3    0    0 -0.16846559192E+02 -0.32227077548E+02 -0.17112192426E+00  0.36365098197E+02  0.51100000000E-03 0.  1.
         12    1    3    3    0    0  0.23841391017E+02  0.38107746353E+02  0.23935181022E+00  0.44951858104E+02  0.00000000000E+00 0. -1.
</event>
<event>
 7    1  0.1971192E-015  0.9000774E+02  0.7816164E-02  0.1186339E+00
        -11   -1    0    0    0    0  0.00000000000E+00  0.00000000000E+00  0.45593999997E+02  0.45594000000E+02  0.51100000000E-03 0.  1.
         11   -1    0    0    0    0 -0.00000000000E+00 -0.00000000000E+00 -0.45593999997E+02  0.45594000000E+02  0.51100000000E-03 0. -1.
    9900012    2    1    2    0    0  0.23928999188E+00  0.29389250141E+00  0.11177534868E+01  0.90007743519E+02  0.90000004934E+02 0.  0.
         12    1    1    2    0    0 -0.23928999188E+00 -0.29389250141E+00 -0.11177534868E+01  0.11802564805E+01  0.00000000000E+00 0. -1.
         11    1    3    3    0    0  0.67416148084E+01 -0.12029360892E+02 -0.25976278109E+02  0.29409554882E+02  0.51100000000E-03 0. -1.
        -11    1    3    3    0    0  0.55760274009E+01  0.23954325894E-01 -0.14520616356E+02  0.15554451292E+02  0.51100000000E-03 0.  1.
        -12    1    3    3    0    0 -0.12078352217E+02  0.12299299067E+02  0.41614647952E+02  0.45043737345E+02  0.00000000000E+00 0.  1.
</event>
<event>
 7    1  0.1971192E-015  0.9000770E+02  0.7816164E-02  0.1186339E+00
        -11   -1    0    0    0    0  0.00000000000E+00  0.00000000000E+00  0.45593999997E+02  0.45594000000E+02  0.51100000000E-03 0.  1.
         11   -1    0    0    0    0 -0.00000000000E+00 -0.00000000000E+00 -0.45593999997E+02  0.45594000000E+02  0.51100000000E-03 0. -1.
    9900012    2    1    2    0    0 -0.10298793473E+01 -0.40219065247E+00  0.41316339115E+00  0.90007698014E+02  0.89999958828E+02 0.  0.
         12    1    1    2    0    0  0.10298793473E+01  0.40219065247E+00 -0.41316339115E+00  0.11803019862E+01  0.00000000000E+00 0. -1.
         11    1    3    3    0    0  0.73091206903E+01  0.49107503851E+01  0.27326427798E+01  0.92198726365E+01  0.51100000000E-03 0. -1.
        -11    1    3    3    0    0  0.26663876279E+02 -0.28109323984E+02  0.19857043190E+01  0.38794837479E+02  0.51100000000E-03 0.  1.
         12    1    3    3    0    0 -0.35002876317E+02  0.22796382946E+02 -0.43051837076E+01  0.41992987899E+02  0.00000000000E+00 0. -1.
</event>
<event>
 7    1  0.1971192E-015  0.9000776E+02  0.7816164E-02  0.1186339E+00
        -11   -1    0    0    0    0  0.00000000000E+00  0.00000000000E+00  0.45593999997E+02  0.45594000000E+02  0.51100000000E-03 0.  1.
         11   -1    0    0    0    0 -0.00000000000E+00 -0.00000000000E+00 -0.45593999997E+02  0.45594000000E+02  0.51100000000E-03 0. -1.
    9900012    2    1    2    0    0  0.48447282473E+00 -0.10455038434E+01  0.25528157567E+00  0.90007762360E+02  0.90000024023E+02 0.  0.
         12    1    1    2    0    0 -0.48447282473E+00  0.10455038434E+01 -0.25528157567E+00  0.11802376402E+01  0.00000000000E+00 0. -1.
         11    1    3    3    0    0  0.58369556789E+01 -0.66372978905E+01 -0.35240059189E+02  0.36331605343E+02  0.51100000000E-03 0. -1.
        -11    1    3    3    0    0  0.44535665348E+00 -0.86514781809E+01 -0.52471059921E+01  0.10128106379E+02  0.51100000000E-03 0.  1.
        -12    1    3    3    0    0 -0.57978395076E+01  0.14243272228E+02  0.40742446756E+02  0.43548050639E+02  0.00000000000E+00 0.  1.
</event>
<event>
 7    1  0.1971192E-015  0.9000769E+02  0.7816164E-02  0.1186339E+00
        -11   -1    0    0    0    0  0.00000000000E+00  0.00000000000E+00  0.45593999997E+02  0.45594000000E+02  0.51100000000E-03 0.  1.
         11   -1    0    0    0    0 -0.00000000000E+00 -0.00000000000E+00 -0.45593999997E+02  0.45594000000E+02  0.51100000000E-03 0. -1.
    9900012    2    1    2    0    0  0.11609312547E+01 -0.21084453943E+00  0.30081740669E-01  0.90007694231E+02  0.89999954995E+02 0.  0.
         12    1    1    2    0    0 -0.11609312547E+01  0.21084453943E+00 -0.30081740669E-01  0.11803057693E+01  0.00000000000E+00 0. -1.
         11    1    3    3    0    0 -0.74326359202E+01  0.46452520893E+01 -0.11415393054E+01  0.88388662136E+01  0.51100000000E-03 0. -1.
        -11    1    3    3    0    0  0.34216373809E+01 -0.25402721618E+02  0.33705132835E+02  0.42344324858E+02  0.51100000000E-03 0.  1.
         12    1    3    3    0    0  0.51719297941E+01  0.20546624989E+02 -0.32533511789E+02  0.38824503159E+02  0.00000000000E+00 0. -1.
</event>
<event>
 7    1  0.1971192E-015  0.9000769E+02  0.7816164E-02  0.1186339E+00
        -11   -1    0    0    0    0  0.00000000000E+00  0.00000000000E+00  0.45593999997E+02  0.45594000000E+02  0.51100000000E-03 0. -1.
         11   -1    0    0    0    0 -0.00000000000E+00 -0.00000000000E+00 -0.45593999997E+02  0.45594000000E+02  0.51100000000E-03 0.  1.
    9900012    2    1    2    0    0 -0.73738065335E+00  0.18390775211E+00 -0.90310088576E+00  0.90007685000E+02  0.89999945642E+02 0.  0.
         12    1    1    2    0    0  0.73738065335E+00 -0.18390775211E+00  0.90310088576E+00  0.11803149999E+01  0.00000000000E+00 0. -1.
         11    1    3    3    0    0  0.24058342123E+01  0.75510772533E+01  0.44522784327E+01  0.90900819273E+01  0.51100000000E-03 0. -1.
        -11    1    3    3    0    0 -0.40806667847E+02 -0.56988758720E+01 -0.11364705368E+02  0.42741289819E+02  0.51100000000E-03 0.  1.
         12    1    3    3    0    0  0.37663452981E+02 -0.16682936291E+01  0.60093260496E+01  0.38176313254E+02  0.00000000000E+00 0. -1.
</event>
<event>
 7    1  0.1971192E-015  0.9000773E+02  0.7816164E-02  0.1186339E+00
        -11   -1    0    0    0    0  0.00000000000E+00  0.00000000000E+00  0.45593999997E+02  0.45594000000E+02  0.51100000000E-03 0.  1.
         11   -1    0    0    0    0 -0.00000000000E+00 -0.00000000000E+00 -0.45593999997E+02  0.45594000000E+02  0.51100000000E-03 0. -1.
    9900012    2    1    2    0    0  0.11673110097E+01  0.17135309964E+00  0.32670595509E-01  0.90007727046E+02  0.89999988243E+02 0.  0.
         12    1    1    2    0    0 -0.11673110097E+01 -0.17135309964E+00 -0.32670595509E-01  0.11802729540E+01  0.00000000000E+00 0. -1.
         11    1    3    3    0    0 -0.36731370337E+02  0.10429119008E+02  0.68935083105E+01  0.38800522512E+02  0.51100000000E-03 0. -1.
        -11    1    3    3    0    0 -0.43916361370E+01 -0.67955342277E+01  0.64458296964E+00  0.81167259942E+01  0.51100000000E-03 0.  1.
        -12    1    3    3    0    0  0.42290317484E+02 -0.34622316805E+01 -0.75054206846E+01  0.43090478540E+02  0.00000000000E+00 0.  1.
</event>
<event>
 7    1  0.1971192E-015  0.9000772E+02  0.7816164E-02  0.1186339E+00
        -11   -1    0    0    0    0  0.00000000000E+00  0.00000000000E+00  0.45593999997E+02  0.45594000000E+02  0.51100000000E-03 0. -1.
         11   -1    0    0    0    0 -0.00000000000E+00 -0.00000000000E+00 -0.45593999997E+02  0.45594000000E+02  0.51100000000E-03 0.  1.
    9900012    2    1    2    0    0  0.41651213330E+00  0.57289944698E+00 -0.94412580296E+00  0.90007716278E+02  0.89999977332E+02 0.  0.
         12    1    1    2    0    0 -0.41651213330E+00 -0.57289944698E+00  0.94412580296E+00  0.11802837224E+01  0.00000000000E+00 0. -1.
         11    1    3    3    0    0 -0.12883862491E+02 -0.12991912011E+02  0.50041611222E+01  0.18969062159E+02  0.51100000000E-03 0. -1.
        -11    1    3    3    0    0 -0.78489850957E+01 -0.92808078186E+00 -0.32902376144E+02  0.33838354824E+02  0.51100000000E-03 0.  1.
         12    1    3    3    0    0  0.21149359720E+02  0.14492892240E+02  0.26954089219E+02  0.37200299295E+02  0.00000000000E+00 0. -1.
</event>
<event>
 7    1  0.1971192E-015  0.9000779E+02  0.7816164E-02  0.1186339E+00
        -11   -1    0    0    0    0  0.00000000000E+00  0.00000000000E+00  0.45593999997E+02  0.45594000000E+02  0.51100000000E-03 0.  1.
         11   -1    0    0    0    0 -0.00000000000E+00 -0.00000000000E+00 -0.45593999997E+02  0.45594000000E+02  0.51100000000E-03 0. -1.
    9900012    2    1    2    0    0  0.93990660507E+00 -0.65868440175E+00  0.27496823431E+00  0.90007789384E+02  0.90000051404E+02 0.  0.
         12    1    1    2    0    0 -0.93990660507E+00  0.65868440175E+00 -0.27496823431E+00  0.11802106156E+01  0.00000000000E+00 0. -1.
         11    1    3    3    0    0  0.71400271068E+01  0.21085769245E+01 -0.45301452193E+01  0.87148321672E+01  0.51100000000E-03 0. -1.
        -11    1    3    3    0    0  0.77005659977E+01 -0.24717911732E+02  0.33659595983E+02  0.42464600306E+02  0.51100000000E-03 0.  1.
         12    1    3    3    0    0 -0.13900686499E+02  0.21950650406E+02 -0.28854482530E+02  0.38828356912E+02  0.00000000000E+00 0. -1.
</event>
<event>
 7    1  0.1971192E-015  0.9000738E+02  0.7816164E-02  0.1186340E+00
        -11   -1    0    0    0    0  0.00000000000E+00  0.00000000000E+00  0.45593999997E+02  0.45594000000E+02  0.51100000000E-03 0. -1.
         11   -1    0    0    0    0 -0.00000000000E+00 -0.00000000000E+00 -0.45593999997E+02  0.45594000000E+02  0.51100000000E-03 0.  1.
    9900012    2    1    2    0    0 -0.49536002748E+00 -0.10255395561E+00 -0.10667590461E+01  0.90007375702E+02  0.89999632261E+02 0.  0.
         12    1    1    2    0    0  0.49536002748E+00  0.10255395561E+00  0.10667590461E+01  0.11806242980E+01  0.00000000000E+00 0. -1.
         11    1    3    3    0    0 -0.17402270325E+01  0.68169246407E+01  0.31077804248E+01  0.76913686111E+01  0.51100000000E-03 0. -1.
        -11    1    3    3    0    0 -0.34624981047E+02  0.93813610034E+01 -0.18537160446E+02  0.40379766771E+02  0.51100000000E-03 0.  1.
         12    1    3    3    0    0  0.35869848052E+02 -0.16300839600E+02  0.14362620975E+02  0.41936240320E+02  0.00000000000E+00 0. -1.
</event>
<event>
 7    1  0.1971192E-015  0.9000774E+02  0.7816164E-02  0.1186339E+00
        -11   -1    0    0    0    0  0.00000000000E+00  0.00000000000E+00  0.45593999997E+02  0.45594000000E+02  0.51100000000E-03 0.  1.
         11   -1    0    0    0    0 -0.00000000000E+00 -0.00000000000E+00 -0.45593999997E+02  0.45594000000E+02  0.51100000000E-03 0. -1.
    9900012    2    1    2    0    0 -0.15541951965E+00 -0.11009098138E+01 -0.39604251974E+00  0.90007742688E+02  0.90000004091E+02 0.  0.
         12    1    1    2    0    0  0.15541951965E+00  0.11009098138E+01  0.39604251974E+00  0.11802573121E+01  0.00000000000E+00 0. -1.
         11    1    3    3    0    0 -0.47203699040E+01  0.10833906391E+02  0.45199746381E+01  0.12652493458E+02  0.51100000000E-03 0. -1.
        -11    1    3    3    0    0  0.56085586952E+00  0.28148896434E+02  0.15558485246E+02  0.32167396432E+02  0.51100000000E-03 0.  1.
         12    1    3    3    0    0  0.40040945149E+01 -0.40083712639E+02 -0.20474502404E+02  0.45187852798E+02  0.00000000000E+00 0. -1.
</event>
<event>
 7    1  0.1971192E-015  0.9000776E+02  0.7816164E-02  0.1186339E+00
        -11   -1    0    0    0    0  0.00000000000E+00  0.00000000000E+00  0.45593999997E+02  0.45594000000E+02  0.51100000000E-03 0.  1.
         11   -1    0    0    0    0 -0.00000000000E+00 -0.00000000000E+00 -0.45593999997E+02  0.45594000000E+02  0.51100000000E-03 0. -1.
    9900012    2    1    2    0    0 -0.83478433046E+00 -0.71060475208E+00 -0.43720723894E+00  0.90007756736E+02  0.90000018325E+02 0.  0.
         12    1    1    2    0    0  0.83478433046E+00  0.71060475208E+00  0.43720723894E+00  0.11802432638E+01  0.00000000000E+00 0. -1.
         11    1    3    3    0    0 -0.26311808810E+02  0.27619986334E+01 -0.28747301621E+02  0.39068494597E+02  0.51100000000E-03 0. -1.
        -11    1    3    3    0    0 -0.70480725910E+01 -0.39379890999E+01  0.40885317954E+00  0.80839499369E+01  0.51100000000E-03 0.  1.
        -12    1    3    3    0    0  0.32525097070E+02  0.46538571445E+00  0.27901241203E+02  0.42855312202E+02  0.00000000000E+00 0.  1.
</event>
<event>
 7    1  0.1971192E-015  0.9000773E+02  0.7816164E-02  0.1186339E+00
        -11   -1    0    0    0    0  0.00000000000E+00  0.00000000000E+00  0.45593999997E+02  0.45594000000E+02  0.51100000000E-03 0.  1.
         11   -1    0    0    0    0 -0.00000000000E+00 -0.00000000000E+00 -0.45593999997E+02  0.45594000000E+02  0.51100000000E-03 0. -1.
    9900012    2    1    2    0    0 -0.11125610273E+01 -0.17072234732E+00  0.35510665522E+00  0.90007729312E+02  0.89999990539E+02 0.  0.
         12    1    1    2    0    0  0.11125610273E+01  0.17072234732E+00 -0.35510665522E+00  0.11802706875E+01  0.00000000000E+00 0. -1.
         11    1    3    3    0    0 -0.30756236955E+02 -0.24021048061E+02  0.11184050202E+02  0.40596056960E+02  0.51100000000E-03 0. -1.
        -11    1    3    3    0    0 -0.44343518645E+01  0.42901668049E+01 -0.78805016076E+01  0.10008562011E+02  0.51100000000E-03 0.  1.
        -12    1    3    3    0    0  0.34078027792E+02  0.19560158909E+02 -0.29484419388E+01  0.39403110341E+02  0.00000000000E+00 0.  1.
</event>
<event>
 7    1  0.1971192E-015  0.9000771E+02  0.7816164E-02  0.1186339E+00
        -11   -1    0    0    0    0  0.00000000000E+00  0.00000000000E+00  0.45593999997E+02  0.45594000000E+02  0.51100000000E-03 0. -1.
         11   -1    0    0    0    0 -0.00000000000E+00 -0.00000000000E+00 -0.45593999997E+02  0.45594000000E+02  0.51100000000E-03 0.  1.
    9900012    2    1    2    0    0  0.57557151421E+00 -0.22090943441E+00 -0.10064776323E+01  0.90007711573E+02  0.89999972566E+02 0.  0.
         12    1    1    2    0    0 -0.57557151421E+00  0.22090943441E+00  0.10064776323E+01  0.11802884268E+01  0.00000000000E+00 0. -1.
         11    1    3    3    0    0  0.20249722441E+01 -0.10334187642E+02  0.74293042855E+00  0.10556888400E+02  0.51100000000E-03 0. -1.
        -11    1    3    3    0    0  0.20869016224E+02 -0.27357639547E+02  0.66235590272E+01  0.35040374059E+02  0.51100000000E-03 0.  1.
         12    1    3    3    0    0 -0.22318416954E+02  0.37470917754E+02 -0.83729670880E+01  0.44410449114E+02  0.00000000000E+00 0. -1.
</event>
<event>
 7    1  0.1971192E-015  0.9000773E+02  0.7816164E-02  0.1186339E+00
        -11   -1    0    0    0    0  0.00000000000E+00  0.00000000000E+00  0.45593999997E+02  0.45594000000E+02  0.51100000000E-03 0.  1.
         11   -1    0    0    0    0 -0.00000000000E+00 -0.00000000000E+00 -0.45593999997E+02  0.45594000000E+02  0.51100000000E-03 0. -1.
    9900012    2    1    2    0    0  0.10412492198E+01 -0.21793107236E+00  0.51120750185E+00  0.90007734352E+02  0.89999995645E+02 0.  0.
         12    1    1    2    0    0 -0.10412492198E+01  0.21793107236E+00 -0.51120750185E+00  0.11802656480E+01  0.00000000000E+00 0. -1.
         11    1    3    3    0    0  0.56633434761E+00 -0.86334955416E+01 -0.40948447744E+01  0.95721331921E+01  0.51100000000E-03 0. -1.
        -11    1    3    3    0    0  0.14294920803E+02 -0.85759476226E+00  0.39369764806E+02  0.41893419658E+02  0.51100000000E-03 0.  1.
         12    1    3    3    0    0 -0.13820005931E+02  0.92731592315E+01 -0.34763712530E+02  0.38542181502E+02  0.00000000000E+00 0. -1.
</event>
<event>
 7    1  0.1971192E-015  0.9000810E+02  0.7816164E-02  0.1186338E+00
        -11   -1    0    0    0    0  0.00000000000E+00  0.00000000000E+00  0.45593999997E+02  0.45594000000E+02  0.51100000000E-03 0. -1.
         11   -1    0    0    0    0 -0.00000000000E+00 -0.00000000000E+00 -0.45593999997E+02  0.45594000000E+02  0.51100000000E-03 0.  1.
    9900012    2    1    2    0    0  0.40896249742E+00 -0.99934494314E+00 -0.47562385684E+00  0.90008102253E+02  0.90000368402E+02 0.  0.
         12    1    1    2    0    0 -0.40896249742E+00  0.99934494314E+00  0.47562385684E+00  0.11798977468E+01  0.00000000000E+00 0. -1.
         11    1    3    3    0    0  0.28593568546E+02 -0.58388472930E+01 -0.18191167924E+02  0.34388993742E+02  0.51100000000E-03 0. -1.
        -11    1    3    3    0    0  0.63914543659E+01 -0.11479056607E+02  0.10249487610E+02  0.16663475808E+02  0.51100000000E-03 0.  1.
        -12    1    3    3    0    0 -0.34576060415E+02  0.16318558957E+02  0.74660564570E+01  0.38955632702E+02  0.00000000000E+00 0.  1.
</event>
<event>
 7    1  0.1971192E-015  0.9000775E+02  0.7816164E-02  0.1186339E+00
        -11   -1    0    0    0    0  0.00000000000E+00  0.00000000000E+00  0.45593999997E+02  0.45594000000E+02  0.51100000000E-03 0.  1.
         11   -1    0    0    0    0 -0.00000000000E+00 -0.00000000000E+00 -0.45593999997E+02  0.45594000000E+02  0.51100000000E-03 0. -1.
    9900012    2    1    2    0    0 -0.14712235287E+00  0.27530415188E+00  0.11382267345E+01  0.90007746865E+02  0.90000008324E+02 0.  0.
         12    1    1    2    0    0  0.14712235287E+00 -0.27530415188E+00 -0.11382267345E+01  0.11802531347E+01  0.00000000000E+00 0. -1.
         11    1    3    3    0    0 -0.78106925812E+01 -0.13498308461E+01  0.84331818282E+01  0.11573569800E+02  0.51100000000E-03 0. -1.
        -11    1    3    3    0    0 -0.99310521585E+01  0.13033329641E+01  0.32988058089E+02  0.34475157006E+02  0.51100000000E-03 0.  1.
         12    1    3    3    0    0  0.17594622387E+02  0.32180203387E+00 -0.40283013183E+02  0.43959020060E+02  0.00000000000E+00 0. -1.
</event>
<event>
 7    1  0.1971192E-015  0.9000775E+02  0.7816164E-02  0.1186339E+00
        -11   -1    0    0    0    0  0.00000000000E+00  0.00000000000E+00  0.45593999997E+02  0.45594000000E+02  0.51100000000E-03 0. -1.
         11   -1    0    0    0    0 -0.00000000000E+00 -0.00000000000E+00 -0.45593999997E+02  0.45594000000E+02  0.51100000000E-03 0.  1.
    9900012    2    1    2    0    0 -0.97683380880E-01  0.54207728159E-01 -0.11749469155E+01  0.90007753935E+02  0.90000015487E+02 0.  0.
         12    1    1    2    0    0  0.97683380880E-01 -0.54207728159E-01  0.11749469155E+01  0.11802460654E+01  0.00000000000E+00 0. -1.
         11    1    3    3    0    0  0.17261348983E+02  0.23076037058E+01  0.26737501782E+02  0.31908826450E+02  0.51100000000E-03 0. -1.
        -11    1    3    3    0    0 -0.62554044431E+01 -0.19968717791E+02  0.26254669408E+01  0.21089638496E+02  0.51100000000E-03 0.  1.
         12    1    3    3    0    0 -0.11103627921E+02  0.17715321813E+02 -0.30537915639E+02  0.37009288989E+02  0.00000000000E+00 0. -1.
</event>
<event>
 7    1  0.2592277E-015  0.9000827E+02  0.7816164E-02  0.1186338E+00
        -11   -1    0    0    0    0  0.00000000000E+00  0.00000000000E+00  0.45593999997E+02  0.45594000000E+02  0.51100000000E-03 0. -1.
         11   -1    0    0    0    0 -0.00000000000E+00 -0.00000000000E+00 -0.45593999997E+02  0.45594000000E+02  0.51100000000E-03 0.  1.
    9900012    2    1    2    0    0  0.30711237583E+00 -0.53440079505E+00 -0.10059174678E+01  0.90008266058E+02  0.90000534369E+02 0.  0.
         12    1    1    2    0    0 -0.30711237583E+00  0.53440079505E+00  0.10059174678E+01  0.11797339417E+01  0.00000000000E+00 0. -1.
         11    1    3    3    0    0  0.20920655565E+02 -0.25888089764E+02  0.20756538802E+02  0.39226278490E+02  0.51100000000E-03 0. -1.
        -11    1    3    3    0    0  0.57379920807E+01 -0.26203660179E+01 -0.74751334730E+01  0.97810271386E+01  0.51100000000E-03 0.  1.
        -12    1    3    3    0    0 -0.26351535269E+02  0.27974054987E+02 -0.14287322797E+02  0.41000960430E+02  0.00000000000E+00 0.  1.
</event>
<event>
 7    1  0.1971192E-015  0.9000770E+02  0.7816164E-02  0.1186339E+00
        -11   -1    0    0    0    0  0.00000000000E+00  0.00000000000E+00  0.45593999997E+02  0.45594000000E+02  0.51100000000E-03 0.  1.
         11   -1    0    0    0    0 -0.00000000000E+00 -0.00000000000E+00 -0.45593999997E+02  0.45594000000E+02  0.51100000000E-03 0. -1.
    9900012    2    1    2    0    0 -0.10917878641E+01  0.32832401417E+00 -0.30547861806E+00  0.90007697249E+02  0.89999958052E+02 0.  0.
         12    1    1    2    0    0  0.10917878641E+01 -0.32832401417E+00  0.30547861806E+00  0.11803027513E+01  0.00000000000E+00 0. -1.
         11    1    3    3    0    0 -0.46274320969E+01 -0.44151497135E+01  0.60220215408E+01  0.87847264330E+01  0.51100000000E-03 0. -1.
        -11    1    3    3    0    0  0.97736558658E+01 -0.14461517775E+02  0.32820973844E+02  0.37173595060E+02  0.51100000000E-03 0.  1.
         12    1    3    3    0    0 -0.62380116331E+01  0.19204991502E+02 -0.39148474003E+02  0.44049375756E+02  0.00000000000E+00 0. -1.
</event>
<event>
 8    1  0.1971192E-015  0.9000773E+02  0.7816164E-02  0.1186339E+00
        -11   -1    0    0    0    0  0.00000000000E+00  0.00000000000E+00  0.45593999997E+02  0.45594000000E+02  0.51100000000E-03 0.  1.
         11   -1    0    0    0    0 -0.00000000000E+00 -0.00000000000E+00 -0.45593999997E+02  0.45594000000E+02  0.51100000000E-03 0. -1.
    9900012    2    1    2    0    0 -0.58037200802E+00  0.98436944108E+00  0.29534743347E+00  0.90007726739E+02  0.89999987932E+02 0.  0.
         23    2    3    3    0    0 -0.15177298618E+01 -0.25006303744E+02  0.10533430152E+02  0.62057555539E+02  0.55790396286E+02 0.  0.
         12    1    1    2    0    0  0.58037200802E+00 -0.98436944108E+00 -0.29534743347E+00  0.11802732610E+01  0.00000000000E+00 0. -1.
         11    1    4    4    0    0 -0.98144556749E+01 -0.36982207283E+02 -0.73799658405E+01  0.38967564612E+02  0.51100000000E-03 0. -1.
        -11    1    4    4    0    0  0.82967258131E+01  0.11975903538E+02  0.17913395992E+02  0.23089990927E+02  0.51100000000E-03 0.  1.
        -12    1    3    3    0    0  0.93735785379E+00  0.25990673185E+02 -0.10238082718E+02  0.27950171200E+02  0.00000000000E+00 0.  1.
</event>
<event>
 7    1  0.1971192E-015  0.9000802E+02  0.7816164E-02  0.1186338E+00
        -11   -1    0    0    0    0  0.00000000000E+00  0.00000000000E+00  0.45593999997E+02  0.45594000000E+02  0.51100000000E-03 0.  1.
         11   -1    0    0    0    0 -0.00000000000E+00 -0.00000000000E+00 -0.45593999997E+02  0.45594000000E+02  0.51100000000E-03 0. -1.
    9900012    2    1    2    0    0 -0.86522036464E+00 -0.68993710635E+00 -0.40956582669E+00  0.90008015400E+02  0.90000280403E+02 0.  0.
         12    1    1    2    0    0  0.86522036464E+00  0.68993710635E+00  0.40956582669E+00  0.11799846001E+01  0.00000000000E+00 0. -1.
         11    1    3    3    0    0  0.14231311350E+01  0.44785204691E+01  0.65445571453E+01  0.80569024016E+01  0.51100000000E-03 0. -1.
        -11    1    3    3    0    0 -0.15951118809E+02  0.85120193091E+01  0.32964149384E+02  0.37596912225E+02  0.51100000000E-03 0.  1.
         12    1    3    3    0    0  0.13662767309E+02 -0.13680476885E+02 -0.39918272356E+02  0.44354200773E+02  0.00000000000E+00 0. -1.
</event>
<event>
 7    1  0.1971192E-015  0.9000771E+02  0.7816164E-02  0.1186339E+00
        -11   -1    0    0    0    0  0.00000000000E+00  0.00000000000E+00  0.45593999997E+02  0.45594000000E+02  0.51100000000E-03 0.  1.
         11   -1    0    0    0    0 -0.00000000000E+00 -0.00000000000E+00 -0.45593999997E+02  0.45594000000E+02  0.51100000000E-03 0. -1.
    9900012    2    1    2    0    0 -0.34845423647E+00  0.10388861068E+01  0.43861053773E+00  0.90007710247E+02  0.89999971222E+02 0.  0.
         12    1    1    2    0    0  0.34845423647E+00 -0.10388861068E+01 -0.43861053773E+00  0.11802897532E+01  0.00000000000E+00 0. -1.
         11    1    3    3    0    0  0.15983360756E+02  0.34496563381E+02  0.10313414471E+02  0.39393492159E+02  0.51100000000E-03 0. -1.
        -11    1    3    3    0    0  0.22003131725E+01  0.35992925002E+01 -0.81129524701E+01  0.91441939285E+01  0.51100000000E-03 0.  1.
        -12    1    3    3    0    0 -0.18532128165E+02 -0.37056969775E+02 -0.17618514631E+01  0.41470024159E+02  0.00000000000E+00 0.  1.
</event>
<event>
 7    1  0.1971192E-015  0.9000771E+02  0.7816164E-02  0.1186339E+00
        -11   -1    0    0    0    0  0.00000000000E+00  0.00000000000E+00  0.45593999997E+02  0.45594000000E+02  0.51100000000E-03 0. -1.
         11   -1    0    0    0    0 -0.00000000000E+00 -0.00000000000E+00 -0.45593999997E+02  0.45594000000E+02  0.51100000000E-03 0.  1.
    9900012    2    1    2    0    0 -0.33615739690E+00 -0.10978965951E+01 -0.27330877077E+00  0.90007713419E+02  0.89999974436E+02 0.  0.
         12    1    1    2    0    0  0.33615739690E+00  0.10978965951E+01  0.27330877077E+00  0.11802865810E+01  0.00000000000E+00 0. -1.
         11    1    3    3    0    0  0.12220540046E+02  0.35038573448E+01  0.35170565644E+02  0.37397691149E+02  0.51100000000E-03 0. -1.
        -11    1    3    3    0    0 -0.64596361883E+00 -0.22178018446E+01  0.75696444706E+01  0.79142549675E+01  0.51100000000E-03 0.  1.
        -12    1    3    3    0    0 -0.11910733824E+02 -0.23839520952E+01 -0.43013518885E+02  0.44695767302E+02  0.00000000000E+00 0.  1.
</event>
<event>
 7    1  0.1971192E-015  0.9000805E+02  0.7816164E-02  0.1186338E+00
        -11   -1    0    0    0    0  0.00000000000E+00  0.00000000000E+00  0.45593999997E+02  0.45594000000E+02  0.51100000000E-03 0. -1.
         11   -1    0    0    0    0 -0.00000000000E+00 -0.00000000000E+00 -0.45593999997E+02  0.45594000000E+02  0.51100000000E-03 0.  1.
    9900012    2    1    2    0    0  0.65718588892E+00  0.64565805748E+00 -0.73723664070E+00  0.90008048525E+02  0.90000313965E+02 0.  0.
         12    1    1    2    0    0 -0.65718588892E+00 -0.64565805748E+00  0.73723664070E+00  0.11799514753E+01  0.00000000000E+00 0. -1.
         11    1    3    3    0    0  0.22760018753E+01 -0.35484374467E+01 -0.75990071425E+01  0.86900231681E+01  0.51100000000E-03 0. -1.
        -11    1    3    3    0    0 -0.95887024855E+01 -0.37394617280E+02  0.50555434919E+01  0.38934035716E+02  0.51100000000E-03 0.  1.
         12    1    3    3    0    0  0.79698864991E+01  0.41588712784E+02  0.18062270100E+01  0.42383989641E+02  0.00000000000E+00 0. -1.
</event>
<event>
 7    1  0.1971192E-015  0.9000776E+02  0.7816164E-02  0.1186339E+00
        -11   -1    0    0    0    0  0.00000000000E+00  0.00000000000E+00  0.45593999997E+02  0.45594000000E+02  0.51100000000E-03 0.  1.
         11   -1    0    0    0    0 -0.00000000000E+00 -0.00000000000E+00 -0.45593999997E+02  0.45594000000E+02  0.51100000000E-03 0. -1.
    9900012    2    1    2    0    0  0.87274860012E+00 -0.38914479910E+00 -0.69270647245E+00  0.90007760172E+02  0.90000021807E+02 0.  0.
         12    1    1    2    0    0 -0.87274860012E+00  0.38914479910E+00  0.69270647245E+00  0.11802398276E+01  0.00000000000E+00 0. -1.
         11    1    3    3    0    0  0.31062947368E+00  0.59002590610E+01  0.48849510024E+01  0.76663090346E+01  0.51100000000E-03 0. -1.
        -11    1    3    3    0    0 -0.11994249830E+02  0.34482805394E+02  0.83719629907E+01  0.37456850661E+02  0.51100000000E-03 0.  1.
         12    1    3    3    0    0  0.12556368956E+02 -0.40772209254E+02 -0.13949620466E+02  0.44884600477E+02  0.00000000000E+00 0. -1.
</event>
<event>
 7    1  0.1971192E-015  0.9000769E+02  0.7816164E-02  0.1186339E+00
        -11   -1    0    0    0    0  0.00000000000E+00  0.00000000000E+00  0.45593999997E+02  0.45594000000E+02  0.51100000000E-03 0.  1.
         11   -1    0    0    0    0 -0.00000000000E+00 -0.00000000000E+00 -0.45593999997E+02  0.45594000000E+02  0.51100000000E-03 0. -1.
    9900012    2    1    2    0    0 -0.58422674211E+00  0.96906526383E+00 -0.33572781364E+00  0.90007694304E+02  0.89999955069E+02 0.  0.
         12    1    1    2    0    0  0.58422674211E+00 -0.96906526383E+00  0.33572781364E+00  0.11803056962E+01  0.00000000000E+00 0. -1.
         11    1    3    3    0    0  0.18628628654E+02 -0.35978493520E+02 -0.14646969767E+02  0.43081452216E+02  0.51100000000E-03 0. -1.
        -11    1    3    3    0    0 -0.32242711076E+01  0.33906928962E+01  0.79354955741E+01  0.92122099823E+01  0.51100000000E-03 0.  1.
        -12    1    3    3    0    0 -0.15988584288E+02  0.33556865887E+02  0.63757463793E+01  0.37714032105E+02  0.00000000000E+00 0.  1.
</event>
<event>
 7    1  0.1971192E-015  0.9000666E+02  0.7816164E-02  0.1186341E+00
        -11   -1    0    0    0    0  0.00000000000E+00  0.00000000000E+00  0.45593999997E+02  0.45594000000E+02  0.51100000000E-03 0. -1.
         11   -1    0    0    0    0 -0.00000000000E+00 -0.00000000000E+00 -0.45593999997E+02  0.45594000000E+02  0.51100000000E-03 0.  1.
    9900012    2    1    2    0    0  0.66226182542E+00  0.18263268281E+00 -0.96105602580E+00  0.90006655805E+02  0.89998902855E+02 0.  0.
         12    1    1    2    0    0 -0.66226182542E+00 -0.18263268281E+00  0.96105602580E+00  0.11813441950E+01  0.00000000000E+00 0. -1.
         11    1    3    3    0    0 -0.33900914166E+01 -0.22095453575E+01 -0.19994570656E+02  0.20399942806E+02  0.51100000000E-03 0. -1.
        -11    1    3    3    0    0 -0.24472115839E+02 -0.17147744714E+02 -0.51766068726E+00  0.29886411214E+02  0.51100000000E-03 0.  1.
         12    1    3    3    0    0  0.28524469081E+02  0.19539922755E+02  0.19551175317E+02  0.39720301785E+02  0.00000000000E+00 0. -1.
</event>
<event>
 7    1  0.1971192E-015  0.9000765E+02  0.7816164E-02  0.1186339E+00
        -11   -1    0    0    0    0  0.00000000000E+00  0.00000000000E+00  0.45593999997E+02  0.45594000000E+02  0.51100000000E-03 0. -1.
         11   -1    0    0    0    0 -0.00000000000E+00 -0.00000000000E+00 -0.45593999997E+02  0.45594000000E+02  0.51100000000E-03 0.  1.
    9900012    2    1    2    0    0 -0.11017044777E+00  0.79408731806E+00 -0.86632573396E+00  0.90007647310E+02  0.89999907454E+02 0.  0.
         12    1    1    2    0    0  0.11017044777E+00 -0.79408731806E+00  0.86632573396E+00  0.11803526903E+01  0.00000000000E+00 0. -1.
         11    1    3    3    0    0 -0.10546229916E+01  0.88461398421E+01 -0.26071123447E+01  0.92824272041E+01  0.51100000000E-03 0. -1.
        -11    1    3    3    0    0 -0.25084466790E+02  0.84862508798E+01 -0.27535823220E+02  0.38202990574E+02  0.51100000000E-03 0.  1.
         12    1    3    3    0    0  0.26028919334E+02 -0.16538303404E+02  0.29276609831E+02  0.42522229532E+02  0.00000000000E+00 0. -1.
</event>
<event>
 7    1  0.1971192E-015  0.9000777E+02  0.7816164E-02  0.1186339E+00
        -11   -1    0    0    0    0  0.00000000000E+00  0.00000000000E+00  0.45593999997E+02  0.45594000000E+02  0.51100000000E-03 0. -1.
         11   -1    0    0    0    0 -0.00000000000E+00 -0.00000000000E+00 -0.45593999997E+02  0.45594000000E+02  0.51100000000E-03 0.  1.
    9900012    2    1    2    0    0 -0.91250644711E+00  0.74275632681E+00  0.92653623258E-01  0.90007771348E+02  0.90000033130E+02 0.  0.
         12    1    1    2    0    0  0.91250644711E+00 -0.74275632681E+00 -0.92653623258E-01  0.11802286520E+01  0.00000000000E+00 0. -1.
         11    1    3    3    0    0  0.12317016044E+02  0.34771884281E+02  0.54867142034E+01  0.37294729570E+02  0.51100000000E-03 0. -1.
        -11    1    3    3    0    0  0.46463389673E+01  0.61632380838E+01  0.23067195383E+01  0.80557386232E+01  0.51100000000E-03 0.  1.
        -12    1    3    3    0    0 -0.17875861459E+02 -0.40192366038E+02 -0.77007801184E+01  0.44657303155E+02  0.00000000000E+00 0.  1.
</event>
<event>
 7    1  0.1971192E-015  0.9000779E+02  0.7816164E-02  0.1186339E+00
        -11   -1    0    0    0    0  0.00000000000E+00  0.00000000000E+00  0.45593999997E+02  0.45594000000E+02  0.51100000000E-03 0. -1.
         11   -1    0    0    0    0 -0.00000000000E+00 -0.00000000000E+00 -0.45593999997E+02  0.45594000000E+02  0.51100000000E-03 0.  1.
    9900012    2    1    2    0    0  0.41882121340E+00 -0.80072884909E+00  0.75915591725E+00  0.90007790016E+02  0.90000052045E+02 0.  0.
         12    1    1    2    0    0 -0.41882121340E+00  0.80072884909E+00 -0.75915591725E+00  0.11802099835E+01  0.00000000000E+00 0. -1.
         11    1    3    3    0    0  0.40250465777E+01  0.38624610201E+01  0.91219713814E+01  0.10692519218E+02  0.51100000000E-03 0. -1.
        -11    1    3    3    0    0  0.27197243575E+02 -0.20649874974E+02  0.15188476344E+02  0.37373750259E+02  0.51100000000E-03 0.  1.
         12    1    3    3    0    0 -0.30803468939E+02  0.15986685105E+02 -0.23551291808E+02  0.41941520539E+02  0.00000000000E+00 0. -1.
</event>
<event>
 7    1  0.1971192E-015  0.9000774E+02  0.7816164E-02  0.1186339E+00
        -11   -1    0    0    0    0  0.00000000000E+00  0.00000000000E+00  0.45593999997E+02  0.45594000000E+02  0.51100000000E-03 0.  1.
         11   -1    0    0    0    0 -0.00000000000E+00 -0.00000000000E+00 -0.45593999997E+02  0.45594000000E+02  0.51100000000E-03 0. -1.
    9900012    2    1    2    0    0  0.11362915209E+01  0.27228630126E+00  0.16647880420E+00  0.90007740095E+02  0.90000001465E+02 0.  0.
         12    1    1    2    0    0 -0.11362915209E+01 -0.27228630126E+00 -0.16647880420E+00  0.11802599047E+01  0.00000000000E+00 0. -1.
         11    1    3    3    0    0 -0.32395602021E+02 -0.80277616515E+00 -0.25339887023E+02  0.41136715407E+02  0.51100000000E-03 0. -1.
        -11    1    3    3    0    0  0.34422909747E+01  0.53954362197E-01 -0.49605102980E+01  0.60381239558E+01  0.51100000000E-03 0.  1.
        -12    1    3    3    0    0  0.30089602567E+02  0.10211081042E+01  0.30466876125E+02  0.42832900733E+02  0.00000000000E+00 0.  1.
</event>
<event>
 7    1  0.1971192E-015  0.9000765E+02  0.7816164E-02  0.1186339E+00
        -11   -1    0    0    0    0  0.00000000000E+00  0.00000000000E+00  0.45593999997E+02  0.45594000000E+02  0.51100000000E-03 0.  1.
         11   -1    0    0    0    0 -0.00000000000E+00 -0.00000000000E+00 -0.45593999997E+02  0.45594000000E+02  0.51100000000E-03 0. -1.
    9900012    2    1    2    0    0 -0.79629053501E+00 -0.72214026377E+00  0.48749699783E+00  0.90007653229E+02  0.89999913452E+02 0.  0.
         12    1    1    2    0    0  0.79629053501E+00  0.72214026377E+00 -0.48749699783E+00  0.11803467709E+01  0.00000000000E+00 0. -1.
         11    1    3    3    0    0  0.94154549134E+00 -0.14288288491E+02  0.85158918959E+01  0.16660195406E+02  0.51100000000E-03 0. -1.
        -11    1    3    3    0    0  0.31776983692E+02 -0.51668316644E+01  0.54563558765E+01  0.32653401994E+02  0.51100000000E-03 0.  1.
         12    1    3    3    0    0 -0.33514819719E+02  0.18732979892E+02 -0.13484750775E+02  0.40694055830E+02  0.00000000000E+00 0. -1.
</event>
<event>
 7    1  0.1971192E-015  0.9000779E+02  0.7816164E-02  0.1186339E+00
        -11   -1    0    0    0    0  0.00000000000E+00  0.00000000000E+00  0.45593999997E+02  0.45594000000E+02  0.51100000000E-03 0.  1.
         11   -1    0    0    0    0 -0.00000000000E+00 -0.00000000000E+00 -0.45593999997E+02  0.45594000000E+02  0.51100000000E-03 0. -1.
    9900012    2    1    2    0    0  0.68932231444E+00  0.30285819233E+00  0.90884777877E+00  0.90007791280E+02  0.90000053325E+02 0.  0.
         12    1    1    2    0    0 -0.68932231444E+00 -0.30285819233E+00 -0.90884777877E+00  0.11802087200E+01  0.00000000000E+00 0. -1.
         11    1    3    3    0    0 -0.11872509031E+02 -0.14495891184E+01  0.13584143371E+00  0.11961447758E+02  0.51100000000E-03 0. -1.
        -11    1    3    3    0    0 -0.23837440196E+02  0.53298634869E+00  0.24809683781E+02  0.34409708501E+02  0.51100000000E-03 0.  1.
         12    1    3    3    0    0  0.36399271541E+02  0.12194609621E+01 -0.24036677436E+02  0.43636635021E+02  0.00000000000E+00 0. -1.
</event>
<event>
 7    1  0.1971192E-015  0.9000775E+02  0.7816164E-02  0.1186339E+00
        -11   -1    0    0    0    0  0.00000000000E+00  0.00000000000E+00  0.45593999997E+02  0.45594000000E+02  0.51100000000E-03 0.  1.
         11   -1    0    0    0    0 -0.00000000000E+00 -0.00000000000E+00 -0.45593999997E+02  0.45594000000E+02  0.51100000000E-03 0. -1.
    9900012    2    1    2    0    0  0.88270642168E+00 -0.54385011225E+00  0.56396592427E+00  0.90007745309E+02  0.90000006747E+02 0.  0.
         12    1    1    2    0    0 -0.88270642168E+00  0.54385011225E+00 -0.56396592427E+00  0.11802546908E+01  0.00000000000E+00 0. -1.
         11    1    3    3    0    0 -0.12547498409E+02 -0.18838979209E+02 -0.33376567061E+02  0.40327931797E+02  0.51100000000E-03 0. -1.
        -11    1    3    3    0    0 -0.78337623728E+01 -0.36891625561E+00  0.56227772004E+01  0.96498474508E+01  0.51100000000E-03 0.  1.
        -12    1    3    3    0    0  0.21263967204E+02  0.18664045353E+02  0.28317755785E+02  0.40029966061E+02  0.00000000000E+00 0.  1.
</event>
<event>
 7    1  0.1971192E-015  0.9000772E+02  0.7816164E-02  0.1186339E+00
        -11   -1    0    0    0    0  0.00000000000E+00  0.00000000000E+00  0.45593999997E+02  0.45594000000E+02  0.51100000000E-03 0. -1.
         11   -1    0    0    0    0 -0.00000000000E+00 -0.00000000000E+00 -0.45593999997E+02  0.45594000000E+02  0.51100000000E-03 0.  1.
    9900012    2    1    2    0    0 -0.10375143967E+01 -0.15517254472E+00  0.54087076649E+00  0.90007722139E+02  0.89999983272E+02 0.  0.
         12    1    1    2    0    0  0.10375143967E+01  0.15517254472E+00 -0.54087076649E+00  0.11802778605E+01  0.00000000000E+00 0. -1.
         11    1    3    3    0    0 -0.47125224698E+01  0.54996353002E+01 -0.87629001321E+01  0.11368477270E+02  0.51100000000E-03 0. -1.
        -11    1    3    3    0    0 -0.12295244404E+02  0.30717388444E+02 -0.98735767196E+01  0.34528517276E+02  0.51100000000E-03 0.  1.
         12    1    3    3    0    0  0.15970252478E+02 -0.36372196289E+02  0.19177347618E+02  0.44110727593E+02  0.00000000000E+00 0. -1.
</event>
<event>
 7    1  0.1971192E-015  0.9000776E+02  0.7816164E-02  0.1186339E+00
        -11   -1    0    0    0    0  0.00000000000E+00  0.00000000000E+00  0.45593999997E+02  0.45594000000E+02  0.51100000000E-03 0. -1.
         11   -1    0    0    0    0 -0.00000000000E+00 -0.00000000000E+00 -0.45593999997E+02  0.45594000000E+02  0.51100000000E-03 0.  1.
    9900012    2    1    2    0    0  0.38128172075E+00 -0.10106851254E+01 -0.47550336804E+00  0.90007761199E+02  0.90000022847E+02 0.  0.
         12    1    1    2    0    0 -0.38128172075E+00  0.10106851254E+01  0.47550336804E+00  0.11802388005E+01  0.00000000000E+00 0. -1.
         11    1    3    3    0    0  0.32583312092E+01 -0.26160550461E+00 -0.11719720093E+02  0.12167045616E+02  0.51100000000E-03 0. -1.
        -11    1    3    3    0    0  0.28722655964E+02  0.45907656634E+01 -0.18207052351E+02  0.34315635658E+02  0.51100000000E-03 0.  1.
         12    1    3    3    0    0 -0.31599705453E+02 -0.53398452841E+01  0.29451269076E+02  0.43525079926E+02  0.00000000000E+00 0. -1.
</event>
<event>
 7    1  0.1971192E-015  0.9000772E+02  0.7816164E-02  0.1186339E+00
        -11   -1    0    0    0    0  0.00000000000E+00  0.00000000000E+00  0.45593999997E+02  0.45594000000E+02  0.51100000000E-03 0.  1.
         11   -1    0    0    0    0 -0.00000000000E+00 -0.00000000000E+00 -0.45593999997E+02  0.45594000000E+02  0.51100000000E-03 0. -1.
    9900012    2    1    2    0    0 -0.42567109858E+00 -0.10531888690E+01  0.32040280690E+00  0.90007720102E+02  0.89999981208E+02 0.  0.
         12    1    1    2    0    0  0.42567109858E+00  0.10531888690E+01 -0.32040280690E+00  0.11802798976E+01  0.00000000000E+00 0. -1.
         11    1    3    3    0    0  0.11792291182E+02 -0.23720303421E+01 -0.44966294132E+00  0.12036895625E+02  0.51100000000E-03 0. -1.
        -11    1    3    3    0    0 -0.17539583037E+02 -0.28795842080E+02  0.22429773063E+02  0.40496076527E+02  0.51100000000E-03 0.  1.
         12    1    3    3    0    0  0.53216207565E+01  0.30114683553E+02 -0.21659707315E+02  0.37474747950E+02  0.00000000000E+00 0. -1.
</event>
<event>
 7    1  0.1971192E-015  0.9000782E+02  0.7816164E-02  0.1186339E+00
        -11   -1    0    0    0    0  0.00000000000E+00  0.00000000000E+00  0.45593999997E+02  0.45594000000E+02  0.51100000000E-03 0.  1.
         11   -1    0    0    0    0 -0.00000000000E+00 -0.00000000000E+00 -0.45593999997E+02  0.45594000000E+02  0.51100000000E-03 0. -1.
    9900012    2    1    2    0    0 -0.58963484859E+00  0.98306989623E+00  0.28059820989E+00  0.90007817374E+02  0.90000079763E+02 0.  0.
         12    1    1    2    0    0  0.58963484859E+00 -0.98306989623E+00 -0.28059820989E+00  0.11801826261E+01  0.00000000000E+00 0. -1.
         11    1    3    3    0    0  0.19565416050E+02  0.32080183733E+02  0.10810354638E+02  0.39099967535E+02  0.51100000000E-03 0. -1.
        -11    1    3    3    0    0  0.40320850666E+01  0.24113085139E+01 -0.82808930702E+01  0.95207830053E+01  0.51100000000E-03 0.  1.
        -12    1    3    3    0    0 -0.24187135965E+02 -0.33508422351E+02 -0.22488633578E+01  0.41387066833E+02  0.00000000000E+00 0.  1.
</event>
<event>
 7    1  0.1971192E-015  0.9000736E+02  0.7816164E-02  0.1186340E+00
        -11   -1    0    0    0    0  0.00000000000E+00  0.00000000000E+00  0.45593999997E+02  0.45594000000E+02  0.51100000000E-03 0.  1.
         11   -1    0    0    0    0 -0.00000000000E+00 -0.00000000000E+00 -0.45593999997E+02  0.45594000000E+02  0.51100000000E-03 0. -1.
    9900012    2    1    2    0    0 -0.18192347808E+00  0.78208292849E+00  0.86553967009E+00  0.90007360860E+02  0.89999617222E+02 0.  0.
         12    1    1    2    0    0  0.18192347808E+00 -0.78208292849E+00 -0.86553967009E+00  0.11806391402E+01  0.00000000000E+00 0. -1.
         11    1    3    3    0    0 -0.49542376967E+01 -0.74712666241E+01  0.17134242099E+01  0.91268898814E+01  0.51100000000E-03 0. -1.
        -11    1    3    3    0    0  0.18142390922E+02 -0.28192856046E+02  0.17638184155E+02  0.37882568827E+02  0.51100000000E-03 0.  1.
         12    1    3    3    0    0 -0.13370076703E+02  0.36446205599E+02 -0.18486068695E+02  0.42997902151E+02  0.00000000000E+00 0. -1.
</event>
<event>
 7    1  0.2522300E-015  0.9000772E+02  0.7816164E-02  0.1186339E+00
        -11   -1    0    0    0    0  0.00000000000E+00  0.00000000000E+00  0.45593999997E+02  0.45594000000E+02  0.51100000000E-03 0.  1.
         11   -1    0    0    0    0 -0.00000000000E+00 -0.00000000000E+00 -0.45593999997E+02  0.45594000000E+02  0.51100000000E-03 0. -1.
    9900012    2    1    2    0    0  0.42597863001E+00  0.10131754855E+01  0.43020709285E+00  0.90007720160E+02  0.89999981266E+02 0.  0.
         12    1    1    2    0    0 -0.42597863001E+00 -0.10131754855E+01 -0.43020709285E+00  0.11802798399E+01  0.00000000000E+00 0. -1.
         11    1    3    3    0    0  0.18792127812E+02  0.24295235034E+02 -0.22892713737E+02  0.38307686638E+02  0.51100000000E-03 0. -1.
        -11    1    3    3    0    0 -0.48084964364E+01  0.82931314799E+01 -0.94355838366E+00  0.96326512657E+01  0.51100000000E-03 0.  1.
        -12    1    3    3    0    0 -0.13557652745E+02 -0.31575191029E+02  0.24266479214E+02  0.42067382256E+02  0.00000000000E+00 0.  1.
</event>
<event>
 7    1  0.1971192E-015  0.9000771E+02  0.7816164E-02  0.1186339E+00
        -11   -1    0    0    0    0  0.00000000000E+00  0.00000000000E+00  0.45593999997E+02  0.45594000000E+02  0.51100000000E-03 0. -1.
         11   -1    0    0    0    0 -0.00000000000E+00 -0.00000000000E+00 -0.45593999997E+02  0.45594000000E+02  0.51100000000E-03 0.  1.
    9900012    2    1    2    0    0  0.11090558146E+01 -0.97180301360E-02 -0.40370492911E+00  0.90007713209E+02  0.89999974223E+02 0.  0.
         12    1    1    2    0    0 -0.11090558146E+01  0.97180301360E-02  0.40370492911E+00  0.11802867913E+01  0.00000000000E+00 0. -1.
         11    1    3    3    0    0  0.61080732575E+01  0.59309963354E+01  0.64953666439E+01  0.10708644384E+02  0.51100000000E-03 0. -1.
        -11    1    3    3    0    0  0.26813527624E+02 -0.29060723352E+02 -0.11773800289E+01  0.39558527896E+02  0.51100000000E-03 0.  1.
         12    1    3    3    0    0 -0.31812545066E+02  0.23120008986E+02 -0.57216915442E+01  0.39740540928E+02  0.00000000000E+00 0. -1.
</event>
<event>
 7    1  0.2305585E-015  0.9000779E+02  0.7816164E-02  0.1186339E+00
        -11   -1    0    0    0    0  0.00000000000E+00  0.00000000000E+00  0.45593999997E+02  0.45594000000E+02  0.51100000000E-03 0. -1.
         11   -1    0    0    0    0 -0.00000000000E+00 -0.00000000000E+00 -0.45593999997E+02  0.45594000000E+02  0.51100000000E-03 0.  1.
    9900012    2    1    2    0    0  0.36554151544E+00 -0.20952202911E+00 -0.11024443409E+01  0.90007786627E+02  0.90000048611E+02 0.  0.
         12    1    1    2    0    0 -0.36554151544E+00  0.20952202911E+00  0.11024443409E+01  0.11802133727E+01  0.00000000000E+00 0. -1.
         11    1    3    3    0    0  0.22493443879E+02  0.25660015206E+02  0.10774792444E+02  0.35783900715E+02  0.51100000000E-03 0. -1.
        -11    1    3    3    0    0  0.67388698121E+01  0.41959101140E+01  0.48610700584E+01  0.93084923808E+01  0.51100000000E-03 0.  1.
        -12    1    3    3    0    0 -0.28866772176E+02 -0.30065447349E+02 -0.16738306844E+02  0.44915393532E+02  0.00000000000E+00 0.  1.
</event>
<event>
 7    1  0.1971192E-015  0.9000773E+02  0.7816164E-02  0.1186339E+00
        -11   -1    0    0    0    0  0.00000000000E+00  0.00000000000E+00  0.45593999997E+02  0.45594000000E+02  0.51100000000E-03 0. -1.
         11   -1    0    0    0    0 -0.00000000000E+00 -0.00000000000E+00 -0.45593999997E+02  0.45594000000E+02  0.51100000000E-03 0.  1.
    9900012    2    1    2    0    0 -0.84936429741E+00  0.78815015933E+00 -0.22457222892E+00  0.90007731781E+02  0.89999993040E+02 0.  0.
         12    1    1    2    0    0  0.84936429741E+00 -0.78815015933E+00  0.22457222892E+00  0.11802682192E+01  0.00000000000E+00 0. -1.
         11    1    3    3    0    0 -0.79801563699E+01  0.52073606817E+01  0.21578896954E+01  0.97701580927E+01  0.51100000000E-03 0. -1.
        -11    1    3    3    0    0 -0.77134584383E+01  0.32471997953E+02 -0.17512142202E+02  0.37690890370E+02  0.51100000000E-03 0.  1.
         12    1    3    3    0    0  0.14844250511E+02 -0.36891208476E+02  0.15129680278E+02  0.42546683318E+02  0.00000000000E+00 0. -1.
</event>
<event>
 7    1  0.1971192E-015  0.9000776E+02  0.7816164E-02  0.1186339E+00
        -11   -1    0    0    0    0  0.00000000000E+00  0.00000000000E+00  0.45593999997E+02  0.45594000000E+02  0.51100000000E-03 0.  1.
         11   -1    0    0    0    0 -0.00000000000E+00 -0.00000000000E+00 -0.45593999997E+02  0.45594000000E+02  0.51100000000E-03 0. -1.
    9900012    2    1    2    0    0  0.10724735142E+01 -0.47562724378E+00  0.12859453179E+00  0.90007763893E+02  0.90000025577E+02 0.  0.
         12    1    1    2    0    0 -0.10724735142E+01  0.47562724378E+00 -0.12859453179E+00  0.11802361066E+01  0.00000000000E+00 0. -1.
         11    1    3    3    0    0 -0.15798468125E+02  0.33773613169E+02  0.14519425023E+02  0.40013275858E+02  0.51100000000E-03 0. -1.
        -11    1    3    3    0    0 -0.79231572319E+01 -0.43774754781E+01 -0.24246637461E+01  0.93711102131E+01  0.51100000000E-03 0.  1.
        -12    1    3    3    0    0  0.24794098872E+02 -0.29871764934E+02 -0.11966166745E+02  0.40623377823E+02  0.00000000000E+00 0.  1.
</event>
<event>
 7    1  0.1971192E-015  0.9000772E+02  0.7816164E-02  0.1186339E+00
        -11   -1    0    0    0    0  0.00000000000E+00  0.00000000000E+00  0.45593999997E+02  0.45594000000E+02  0.51100000000E-03 0.  1.
         11   -1    0    0    0    0 -0.00000000000E+00 -0.00000000000E+00 -0.45593999997E+02  0.45594000000E+02  0.51100000000E-03 0. -1.
    9900012    2    1    2    0    0  0.52487841039E+00 -0.67716943214E+00  0.81179635889E+00  0.90007716511E+02  0.89999977569E+02 0.  0.
         12    1    1    2    0    0 -0.52487841039E+00  0.67716943214E+00 -0.81179635889E+00  0.11802834888E+01  0.00000000000E+00 0. -1.
         11    1    3    3    0    0 -0.56149235233E+01  0.55898132920E+00 -0.22852166635E+01  0.60878601954E+01  0.51100000000E-03 0. -1.
        -11    1    3    3    0    0 -0.22537548693E+02  0.73708254547E+01  0.33634620854E+02  0.41152860038E+02  0.51100000000E-03 0.  1.
         12    1    3    3    0    0  0.28677350627E+02 -0.86069762160E+01 -0.30537607832E+02  0.42766996278E+02  0.00000000000E+00 0. -1.
</event>
<event>
 7    1  0.1971192E-015  0.9000771E+02  0.7816164E-02  0.1186339E+00
        -11   -1    0    0    0    0  0.00000000000E+00  0.00000000000E+00  0.45593999997E+02  0.45594000000E+02  0.51100000000E-03 0.  1.
         11   -1    0    0    0    0 -0.00000000000E+00 -0.00000000000E+00 -0.45593999997E+02  0.45594000000E+02  0.51100000000E-03 0. -1.
    9900012    2    1    2    0    0  0.55001458826E+00 -0.69364027925E+00  0.78066438180E+00  0.90007707764E+02  0.89999968707E+02 0.  0.
         12    1    1    2    0    0 -0.55001458826E+00  0.69364027925E+00 -0.78066438180E+00  0.11802922356E+01  0.00000000000E+00 0. -1.
         11    1    3    3    0    0 -0.32872499967E+02 -0.18064426692E+02  0.18580484412E+02  0.41858800354E+02  0.51100000000E-03 0. -1.
        -11    1    3    3    0    0  0.42337821312E+01  0.70803593952E+01  0.50551006930E+01  0.96752490189E+01  0.51100000000E-03 0.  1.
        -12    1    3    3    0    0  0.29188732425E+02  0.10290427018E+02 -0.22854920724E+02  0.38473658392E+02  0.00000000000E+00 0.  1.
</event>
<event>
 7    1  0.1971192E-015  0.9000775E+02  0.7816164E-02  0.1186339E+00
        -11   -1    0    0    0    0  0.00000000000E+00  0.00000000000E+00  0.45593999997E+02  0.45594000000E+02  0.51100000000E-03 0.  1.
         11   -1    0    0    0    0 -0.00000000000E+00 -0.00000000000E+00 -0.45593999997E+02  0.45594000000E+02  0.51100000000E-03 0. -1.
    9900012    2    1    2    0    0  0.10704504596E+01 -0.36312747702E+00  0.33949242710E+00  0.90007753899E+02  0.90000015450E+02 0.  0.
         12    1    1    2    0    0 -0.10704504596E+01  0.36312747702E+00 -0.33949242710E+00  0.11802461011E+01  0.00000000000E+00 0. -1.
         11    1    3    3    0    0  0.30228672120E+01  0.45354451031E+01 -0.27197401854E+01  0.60913853434E+01  0.51100000000E-03 0. -1.
        -11    1    3    3    0    0 -0.12443072140E+02  0.25121153077E+02  0.30849479177E+02  0.41684442444E+02  0.51100000000E-03 0.  1.
         12    1    3    3    0    0  0.10490655388E+02 -0.30019725657E+02 -0.27790246564E+02  0.42231926111E+02  0.00000000000E+00 0. -1.
</event>
<event>
 7    1  0.1971192E-015  0.9000766E+02  0.7816164E-02  0.1186339E+00
        -11   -1    0    0    0    0  0.00000000000E+00  0.00000000000E+00  0.45593999997E+02  0.45594000000E+02  0.51100000000E-03 0.  1.
         11   -1    0    0    0    0 -0.00000000000E+00 -0.00000000000E+00 -0.45593999997E+02  0.45594000000E+02  0.51100000000E-03 0. -1.
    9900012    2    1    2    0    0 -0.66193767389E+00 -0.81929244332E+00 -0.53272729060E+00  0.90007661083E+02  0.89999921410E+02 0.  0.
         12    1    1    2    0    0  0.66193767389E+00  0.81929244332E+00  0.53272729060E+00  0.11803389166E+01  0.00000000000E+00 0. -1.
         11    1    3    3    0    0 -0.16328203709E+01 -0.23856269961E+01  0.86966188998E+01  0.91645239417E+01  0.51100000000E-03 0. -1.
        -11    1    3    3    0    0  0.37361840056E+01 -0.18100786771E+02  0.30935566181E+02  0.36036187477E+02  0.51100000000E-03 0.  1.
         12    1    3    3    0    0 -0.27653013086E+01  0.19667121324E+02 -0.40164912371E+02  0.44806949665E+02  0.00000000000E+00 0. -1.
</event>
<event>
 7    1  0.1971192E-015  0.9000777E+02  0.7816164E-02  0.1186339E+00
        -11   -1    0    0    0    0  0.00000000000E+00  0.00000000000E+00  0.45593999997E+02  0.45594000000E+02  0.51100000000E-03 0. -1.
         11   -1    0    0    0    0 -0.00000000000E+00 -0.00000000000E+00 -0.45593999997E+02  0.45594000000E+02  0.51100000000E-03 0.  1.
    9900012    2    1    2    0    0  0.26448718266E+00  0.43951428850E+00 -0.10629258468E+01  0.90007772210E+02  0.90000034004E+02 0.  0.
         12    1    1    2    0    0 -0.26448718266E+00 -0.43951428850E+00  0.10629258468E+01  0.11802277896E+01  0.00000000000E+00 0. -1.
         11    1    3    3    0    0  0.60332487000E+01 -0.12089266096E+01  0.66769752685E+01  0.90798453963E+01  0.51100000000E-03 0. -1.
        -11    1    3    3    0    0  0.33314452217E+01  0.39704281416E+02  0.40818183020E+01  0.40052337397E+02  0.51100000000E-03 0.  1.
         12    1    3    3    0    0 -0.91002067390E+01 -0.38055840518E+02 -0.11821719417E+02  0.40875589417E+02  0.00000000000E+00 0. -1.
</event>
<event>
 7    1  0.1971192E-015  0.9000781E+02  0.7816164E-02  0.1186339E+00
        -11   -1    0    0    0    0  0.00000000000E+00  0.00000000000E+00  0.45593999997E+02  0.45594000000E+02  0.51100000000E-03 0. -1.
         11   -1    0    0    0    0 -0.00000000000E+00 -0.00000000000E+00 -0.45593999997E+02  0.45594000000E+02  0.51100000000E-03 0.  1.
    9900012    2    1    2    0    0  0.48278459270E-01  0.93903244046E+00 -0.71325123168E+00  0.90007813551E+02  0.90000075890E+02 0.  0.
         12    1    1    2    0    0 -0.48278459270E-01 -0.93903244046E+00  0.71325123168E+00  0.11801864486E+01  0.00000000000E+00 0. -1.
         11    1    3    3    0    0  0.25828304526E+02 -0.16945855077E+02  0.23271156033E+02  0.38675703256E+02  0.51100000000E-03 0. -1.
        -11    1    3    3    0    0  0.79201320431E+01  0.39720473170E+01 -0.36213965587E+01  0.95718422869E+01  0.51100000000E-03 0.  1.
         12    1    3    3    0    0 -0.33700158110E+02  0.13912840201E+02 -0.20363010706E+02  0.41760268008E+02  0.00000000000E+00 0. -1.
</event>
<event>
 7    1  0.1971192E-015  0.9000768E+02  0.7816164E-02  0.1186339E+00
        -11   -1    0    0    0    0  0.00000000000E+00  0.00000000000E+00  0.45593999997E+02  0.45594000000E+02  0.51100000000E-03 0.  1.
         11   -1    0    0    0    0 -0.00000000000E+00 -0.00000000000E+00 -0.45593999997E+02  0.45594000000E+02  0.51100000000E-03 0. -1.
    9900012    2    1    2    0    0 -0.28870145838E-01  0.24707817987E-01  0.11797121097E+01  0.90007676052E+02  0.89999936575E+02 0.  0.
         12    1    1    2    0    0  0.28870145838E-01 -0.24707817987E-01 -0.11797121097E+01  0.11803239485E+01  0.00000000000E+00 0. -1.
         11    1    3    3    0    0 -0.49431104670E+01  0.86111738569E+01  0.18674062115E+01  0.10103161015E+02  0.51100000000E-03 0. -1.
        -11    1    3    3    0    0  0.38464586312E+02  0.95305616896E+01 -0.95424123801E+01  0.40760442105E+02  0.51100000000E-03 0.  1.
         12    1    3    3    0    0 -0.33550345991E+02 -0.18117027729E+02  0.88547182783E+01  0.39144072931E+02  0.00000000000E+00 0. -1.
</event>
<event>
 7    1  0.2855275E-015  0.9000797E+02  0.7816164E-02  0.1186339E+00
        -11   -1    0    0    0    0  0.00000000000E+00  0.00000000000E+00  0.45593999997E+02  0.45594000000E+02  0.51100000000E-03 0. -1.
         11   -1    0    0    0    0 -0.00000000000E+00 -0.00000000000E+00 -0.45593999997E+02  0.45594000000E+02  0.51100000000E-03 0.  1.
    9900012    2    1    2    0    0 -0.64581720834E+00  0.67839252950E+00 -0.71775523086E+00  0.90007970822E+02  0.90000235236E+02 0.  0.
         12    1    1    2    0    0  0.64581720834E+00 -0.67839252950E+00  0.71775523086E+00  0.11800291785E+01  0.00000000000E+00 0. -1.
         11    1    3    3    0    0 -0.83459974366E+01  0.78927675778E+01  0.33485635737E+02  0.35401119392E+02  0.51100000000E-03 0. -1.
        -11    1    3    3    0    0 -0.49411454664E+01  0.31510287696E+01  0.76716663648E+01  0.96539300754E+01  0.51100000000E-03 0.  1.
        -12    1    3    3    0    0  0.12641325695E+02 -0.10365403818E+02 -0.41875057333E+02  0.44952921354E+02  0.00000000000E+00 0.  1.
</event>
<event>
 7    1  0.1971192E-015  0.9000770E+02  0.7816164E-02  0.1186339E+00
        -11   -1    0    0    0    0  0.00000000000E+00  0.00000000000E+00  0.45593999997E+02  0.45594000000E+02  0.51100000000E-03 0.  1.
         11   -1    0    0    0    0 -0.00000000000E+00 -0.00000000000E+00 -0.45593999997E+02  0.45594000000E+02  0.51100000000E-03 0. -1.
    9900012    2    1    2    0    0 -0.20209823053E+00 -0.71449516324E+00  0.91747388074E+00  0.90007701159E+02  0.89999962014E+02 0.  0.
         12    1    1    2    0    0  0.20209823053E+00  0.71449516324E+00 -0.91747388074E+00  0.11802988414E+01  0.00000000000E+00 0. -1.
         11    1    3    3    0    0  0.15270231104E+01 -0.65875429191E+01 -0.66909558385E+01  0.95129601904E+01  0.51100000000E-03 0. -1.
        -11    1    3    3    0    0  0.24454471962E+02 -0.64762111780E+01 -0.25905503772E+02  0.36208529880E+02  0.51100000000E-03 0.  1.
         12    1    3    3    0    0 -0.26183593303E+02  0.12349258934E+02  0.33513933491E+02  0.44286211088E+02  0.00000000000E+00 0. -1.
</event>
<event>
 7    1  0.1971192E-015  0.9000773E+02  0.7816164E-02  0.1186339E+00
        -11   -1    0    0    0    0  0.00000000000E+00  0.00000000000E+00  0.45593999997E+02  0.45594000000E+02  0.51100000000E-03 0.  1.
         11   -1    0    0    0    0 -0.00000000000E+00 -0.00000000000E+00 -0.45593999997E+02  0.45594000000E+02  0.51100000000E-03 0. -1.
    9900012    2    1    2    0    0 -0.77419690468E+00  0.83952844263E+00 -0.29806637386E+00  0.90007732057E+02  0.89999993321E+02 0.  0.
         12    1    1    2    0    0  0.77419690469E+00 -0.83952844263E+00  0.29806637386E+00  0.11802679426E+01  0.00000000000E+00 0. -1.
         11    1    3    3    0    0  0.11680122475E+02 -0.33287213098E+02 -0.98743468074E+01  0.36632861504E+02  0.51100000000E-03 0. -1.
        -11    1    3    3    0    0  0.10008065006E+02 -0.17682767503E+01  0.20252772182E+01  0.10362910590E+02  0.51100000000E-03 0.  1.
        -12    1    3    3    0    0 -0.22462384385E+02  0.35895018291E+02  0.75510032153E+01  0.43011959964E+02  0.00000000000E+00 0.  1.
</event>
<event>
 7    1  0.1971192E-015  0.9000769E+02  0.7816164E-02  0.1186339E+00
        -11   -1    0    0    0    0  0.00000000000E+00  0.00000000000E+00  0.45593999997E+02  0.45594000000E+02  0.51100000000E-03 0.  1.
         11   -1    0    0    0    0 -0.00000000000E+00 -0.00000000000E+00 -0.45593999997E+02  0.45594000000E+02  0.51100000000E-03 0. -1.
    9900012    2    1    2    0    0  0.44483757187E+00  0.95243945871E+00  0.53676858107E+00  0.90007685679E+02  0.89999946329E+02 0.  0.
         12    1    1    2    0    0 -0.44483757187E+00 -0.95243945871E+00 -0.53676858107E+00  0.11803143215E+01  0.00000000000E+00 0. -1.
         11    1    3    3    0    0  0.14544940841E+01 -0.77447048564E+01  0.54041040792E+01  0.95551215332E+01  0.51100000000E-03 0. -1.
        -11    1    3    3    0    0  0.23874620422E+02 -0.10099103054E+02  0.25900123952E+02  0.36644314754E+02  0.51100000000E-03 0.  1.
         12    1    3    3    0    0 -0.24884276934E+02  0.18796247369E+02 -0.30767459450E+02  0.43808249391E+02  0.00000000000E+00 0. -1.
</event>
<event>
 7    1  0.1971192E-015  0.9000775E+02  0.7816164E-02  0.1186339E+00
        -11   -1    0    0    0    0  0.00000000000E+00  0.00000000000E+00  0.45593999997E+02  0.45594000000E+02  0.51100000000E-03 0.  1.
         11   -1    0    0    0    0 -0.00000000000E+00 -0.00000000000E+00 -0.45593999997E+02  0.45594000000E+02  0.51100000000E-03 0. -1.
    9900012    2    1    2    0    0 -0.35578714223E+00  0.10138432569E+01 -0.48840117000E+00  0.90007746492E+02  0.90000007946E+02 0.  0.
         12    1    1    2    0    0  0.35578714223E+00 -0.10138432569E+01  0.48840117000E+00  0.11802535079E+01  0.00000000000E+00 0. -1.
         11    1    3    3    0    0 -0.23669848761E+02 -0.12660553572E+02 -0.33436887067E+02  0.42878628407E+02  0.51100000000E-03 0. -1.
        -11    1    3    3    0    0  0.96948332603E+01  0.60034600471E+01  0.85938842798E+00  0.11435465588E+02  0.51100000000E-03 0.  1.
        -12    1    3    3    0    0  0.13619228359E+02  0.76709367819E+01  0.32089097469E+02  0.35693652497E+02  0.00000000000E+00 0.  1.
</event>
<event>
 7    1  0.1971192E-015  0.9000769E+02  0.7816164E-02  0.1186339E+00
        -11   -1    0    0    0    0  0.00000000000E+00  0.00000000000E+00  0.45593999997E+02  0.45594000000E+02  0.51100000000E-03 0.  1.
         11   -1    0    0    0    0 -0.00000000000E+00 -0.00000000000E+00 -0.45593999997E+02  0.45594000000E+02  0.51100000000E-03 0. -1.
    9900012    2    1    2    0    0  0.29316526085E+00  0.58621637812E+00  0.98160114288E+00  0.90007688043E+02  0.89999948725E+02 0.  0.
         12    1    1    2    0    0 -0.29316526085E+00 -0.58621637812E+00 -0.98160114288E+00  0.11803119570E+01  0.00000000000E+00 0. -1.
         11    1    3    3    0    0 -0.37625270522E+02  0.20055335154E+01  0.22459920406E+02  0.43864919599E+02  0.51100000000E-03 0. -1.
        -11    1    3    3    0    0  0.88293129599E+01 -0.46606601705E+01 -0.25217543741E+00  0.99870973402E+01  0.51100000000E-03 0.  1.
        -12    1    3    3    0    0  0.29089122823E+02  0.32413430333E+01 -0.21226143825E+02  0.36155671104E+02  0.00000000000E+00 0.  1.
</event>
<event>
 7    1  0.1971192E-015  0.9000752E+02  0.7816164E-02  0.1186339E+00
        -11   -1    0    0    0    0  0.00000000000E+00  0.00000000000E+00  0.45593999997E+02  0.45594000000E+02  0.51100000000E-03 0. -1.
         11   -1    0    0    0    0 -0.00000000000E+00 -0.00000000000E+00 -0.45593999997E+02  0.45594000000E+02  0.51100000000E-03 0.  1.
    9900012    2    1    2    0    0  0.11042215288E+01  0.20618319094E-01 -0.41690220940E+00  0.90007518000E+02  0.89999776437E+02 0.  0.
         12    1    1    2    0    0 -0.11042215288E+01 -0.20618319094E-01  0.41690220940E+00  0.11804819998E+01  0.00000000000E+00 0. -1.
         11    1    3    3    0    0 -0.28770510245E+01 -0.28199023058E+02  0.15585546969E+02  0.32347667591E+02  0.51100000000E-03 0. -1.
        -11    1    3    3    0    0  0.75376207553E+01 -0.12305418616E+02 -0.16639944820E+01  0.14526112070E+02  0.51100000000E-03 0.  1.
        -12    1    3    3    0    0 -0.35563482020E+01  0.40525059993E+02 -0.14338454697E+02  0.43133738339E+02  0.00000000000E+00 0.  1.
</event>
<event>
 7    1  0.1971192E-015  0.9000773E+02  0.7816164E-02  0.1186339E+00
        -11   -1    0    0    0    0  0.00000000000E+00  0.00000000000E+00  0.45593999997E+02  0.45594000000E+02  0.51100000000E-03 0. -1.
         11   -1    0    0    0    0 -0.00000000000E+00 -0.00000000000E+00 -0.45593999997E+02  0.45594000000E+02  0.51100000000E-03 0.  1.
    9900012    2    1    2    0    0  0.11125478373E+01 -0.98064922932E-01  0.38165124344E+00  0.90007730077E+02  0.89999991314E+02 0.  0.
         12    1    1    2    0    0 -0.11125478373E+01  0.98064922932E-01 -0.38165124344E+00  0.11802699229E+01  0.00000000000E+00 0. -1.
         11    1    3    3    0    0 -0.25486844734E+01  0.51519388906E+01  0.85115453558E+01  0.10270573084E+02  0.51100000000E-03 0. -1.
        -11    1    3    3    0    0  0.82136880308E+01 -0.41284023915E+02  0.16417703074E+01  0.42125179070E+02  0.51100000000E-03 0.  1.
         12    1    3    3    0    0 -0.45524557201E+01  0.36034020101E+02 -0.97716644198E+01  0.37611977923E+02  0.00000000000E+00 0. -1.
</event>
<event>
 7    1  0.1971192E-015  0.9000790E+02  0.7816164E-02  0.1186339E+00
        -11   -1    0    0    0    0  0.00000000000E+00  0.00000000000E+00  0.45593999997E+02  0.45594000000E+02  0.51100000000E-03 0.  1.
         11   -1    0    0    0    0 -0.00000000000E+00 -0.00000000000E+00 -0.45593999997E+02  0.45594000000E+02  0.51100000000E-03 0. -1.
    9900012    2    1    2    0    0 -0.85374071277E+00 -0.58783201764E+00  0.56411455077E+00  0.90007896228E+02  0.90000159658E+02 0.  0.
         12    1    1    2    0    0  0.85374071277E+00  0.58783201764E+00 -0.56411455077E+00  0.11801037717E+01  0.00000000000E+00 0. -1.
         11    1    3    3    0    0 -0.26493679687E+01  0.60798578061E+01  0.25475300018E+00  0.66369210428E+01  0.51100000000E-03 0. -1.
        -11    1    3    3    0    0 -0.28155641553E+01  0.26912695316E+02  0.28488820342E+02  0.39291646128E+02  0.51100000000E-03 0.  1.
         12    1    3    3    0    0  0.46111914112E+01 -0.33580385140E+02 -0.28179458792E+02  0.44079329058E+02  0.00000000000E+00 0. -1.
</event>
<event>
 7    1  0.1971192E-015  0.9000820E+02  0.7816164E-02  0.1186338E+00
        -11   -1    0    0    0    0  0.00000000000E+00  0.00000000000E+00  0.45593999997E+02  0.45594000000E+02  0.51100000000E-03 0. -1.
         11   -1    0    0    0    0 -0.00000000000E+00 -0.00000000000E+00 -0.45593999997E+02  0.45594000000E+02  0.51100000000E-03 0.  1.
    9900012    2    1    2    0    0 -0.10458018308E+01 -0.53684802784E+00  0.10004711854E+00  0.90008204806E+02  0.90000472308E+02 0.  0.
         12    1    1    2    0    0  0.10458018308E+01  0.53684802784E+00 -0.10004711854E+00  0.11797951942E+01  0.00000000000E+00 0. -1.
         11    1    3    3    0    0 -0.72456401454E+01 -0.20792424273E+01 -0.56857231519E+01  0.94419276745E+01  0.51100000000E-03 0. -1.
        -11    1    3    3    0    0 -0.34515246712E+02  0.36013385764E+01 -0.11108505266E+02  0.36437217026E+02  0.51100000000E-03 0.  1.
         12    1    3    3    0    0  0.40715085027E+02 -0.20589441770E+01  0.16894275536E+02  0.44129060105E+02  0.00000000000E+00 0. -1.
</event>
<event>
 7    1  0.1971192E-015  0.9000767E+02  0.7816164E-02  0.1186339E+00
        -11   -1    0    0    0    0  0.00000000000E+00  0.00000000000E+00  0.45593999997E+02  0.45594000000E+02  0.51100000000E-03 0. -1.
         11   -1    0    0    0    0 -0.00000000000E+00 -0.00000000000E+00 -0.45593999997E+02  0.45594000000E+02  0.51100000000E-03 0.  1.
    9900012    2    1    2    0    0 -0.28692327232E+00  0.47160683562E-01 -0.11439487779E+01  0.90007674663E+02  0.89999935169E+02 0.  0.
         12    1    1    2    0    0  0.28692327232E+00 -0.47160683562E-01  0.11439487779E+01  0.11803253368E+01  0.00000000000E+00 0. -1.
         11    1    3    3    0    0  0.21862536006E+02 -0.24743539860E+02  0.15783918342E+02  0.36597067149E+02  0.51100000000E-03 0. -1.
        -11    1    3    3    0    0  0.88948777121E+01  0.28672984177E+01  0.38372167969E+01  0.10102696805E+02  0.51100000000E-03 0.  1.
        -12    1    3    3    0    0 -0.31044336990E+02  0.21923402126E+02 -0.20765083917E+02  0.43307910709E+02  0.00000000000E+00 0.  1.
</event>
<event>
 7    1  0.1971192E-015  0.9000773E+02  0.7816164E-02  0.1186339E+00
        -11   -1    0    0    0    0  0.00000000000E+00  0.00000000000E+00  0.45593999997E+02  0.45594000000E+02  0.51100000000E-03 0. -1.
         11   -1    0    0    0    0 -0.00000000000E+00 -0.00000000000E+00 -0.45593999997E+02  0.45594000000E+02  0.51100000000E-03 0.  1.
    9900012    2    1    2    0    0 -0.83786383510E-01 -0.11479075018E+01  0.26140568990E+00  0.90007726843E+02  0.89999988037E+02 0.  0.
         12    1    1    2    0    0  0.83786383510E-01  0.11479075018E+01 -0.26140568990E+00  0.11802731571E+01  0.00000000000E+00 0. -1.
         11    1    3    3    0    0  0.34603751600E+02 -0.50138703697E+01  0.14704933861E+02  0.37931432889E+02  0.51100000000E-03 0. -1.
        -11    1    3    3    0    0  0.54836435126E+01 -0.52079239284E+00  0.48110345203E+01  0.73135233853E+01  0.51100000000E-03 0.  1.
        -12    1    3    3    0    0 -0.40171181496E+02  0.43867552608E+01 -0.19254562692E+02  0.44762770569E+02  0.00000000000E+00 0.  1.
</event>
<event>
 7    1  0.1971192E-015  0.9000772E+02  0.7816164E-02  0.1186339E+00
        -11   -1    0    0    0    0  0.00000000000E+00  0.00000000000E+00  0.45593999997E+02  0.45594000000E+02  0.51100000000E-03 0.  1.
         11   -1    0    0    0    0 -0.00000000000E+00 -0.00000000000E+00 -0.45593999997E+02  0.45594000000E+02  0.51100000000E-03 0. -1.
    9900012    2    1    2    0    0 -0.64505171922E+00 -0.27466966681E-02  0.98841416042E+00  0.90007719602E+02  0.89999980701E+02 0.  0.
         12    1    1    2    0    0  0.64505171922E+00  0.27466966681E-02 -0.98841416042E+00  0.11802803978E+01  0.00000000000E+00 0. -1.
         11    1    3    3    0    0  0.27250975670E+02  0.16603691260E+02 -0.16436774939E+02  0.35895205935E+02  0.51100000000E-03 0. -1.
        -11    1    3    3    0    0  0.75088847995E+01  0.35778629639E+01 -0.25857961659E+01  0.87103843998E+01  0.51100000000E-03 0.  1.
        -12    1    3    3    0    0 -0.35404912189E+02 -0.20184300921E+02  0.20010985265E+02  0.45402129268E+02  0.00000000000E+00 0.  1.
</event>
<event>
 7    1  0.1971192E-015  0.9000772E+02  0.7816164E-02  0.1186339E+00
        -11   -1    0    0    0    0  0.00000000000E+00  0.00000000000E+00  0.45593999997E+02  0.45594000000E+02  0.51100000000E-03 0. -1.
         11   -1    0    0    0    0 -0.00000000000E+00 -0.00000000000E+00 -0.45593999997E+02  0.45594000000E+02  0.51100000000E-03 0.  1.
    9900012    2    1    2    0    0  0.11378031489E+01 -0.12452504574E+00 -0.28803296986E+00  0.90007718049E+02  0.89999979127E+02 0.  0.
         12    1    1    2    0    0 -0.11378031489E+01  0.12452504574E+00  0.28803296986E+00  0.11802819512E+01  0.00000000000E+00 0. -1.
         11    1    3    3    0    0 -0.13522012468E+02  0.26694795779E+02 -0.23023701938E+02  0.37756427188E+02  0.51100000000E-03 0. -1.
        -11    1    3    3    0    0  0.15274966105E+01 -0.26417879782E+01 -0.94370356784E+01  0.99181617387E+01  0.51100000000E-03 0.  1.
        -12    1    3    3    0    0  0.13132319006E+02 -0.24177532846E+02  0.32172704646E+02  0.42333129122E+02  0.00000000000E+00 0.  1.
</event>
<event>
 7    1  0.1971192E-015  0.9000771E+02  0.7816164E-02  0.1186339E+00
        -11   -1    0    0    0    0  0.00000000000E+00  0.00000000000E+00  0.45593999997E+02  0.45594000000E+02  0.51100000000E-03 0.  1.
         11   -1    0    0    0    0 -0.00000000000E+00 -0.00000000000E+00 -0.45593999997E+02  0.45594000000E+02  0.51100000000E-03 0. -1.
    9900012    2    1    2    0    0 -0.11312143890E+01  0.23690242286E+00  0.23939225430E+00  0.90007713000E+02  0.89999974011E+02 0.  0.
         12    1    1    2    0    0  0.11312143890E+01 -0.23690242286E+00 -0.23939225430E+00  0.11802870004E+01  0.00000000000E+00 0. -1.
         11    1    3    3    0    0 -0.34801071714E+01 -0.25039250424E+01 -0.88116439054E+01  0.97992782958E+01  0.51100000000E-03 0. -1.
        -11    1    3    3    0    0 -0.11425075119E+02 -0.94133343892E+01  0.40869542504E+02  0.43467950383E+02  0.51100000000E-03 0.  1.
         12    1    3    3    0    0  0.13773967901E+02  0.12154161854E+02 -0.31818506344E+02  0.36740484320E+02  0.00000000000E+00 0. -1.
</event>
<event>
 7    1  0.1971192E-015  0.9000772E+02  0.7816164E-02  0.1186339E+00
        -11   -1    0    0    0    0  0.00000000000E+00  0.00000000000E+00  0.45593999997E+02  0.45594000000E+02  0.51100000000E-03 0.  1.
         11   -1    0    0    0    0 -0.00000000000E+00 -0.00000000000E+00 -0.45593999997E+02  0.45594000000E+02  0.51100000000E-03 0. -1.
    9900012    2    1    2    0    0 -0.17771318412E+00 -0.38375661280E+00  0.11019152064E+01  0.90007716883E+02  0.89999977946E+02 0.  0.
         12    1    1    2    0    0  0.17771318412E+00  0.38375661280E+00 -0.11019152064E+01  0.11802831168E+01  0.00000000000E+00 0. -1.
         11    1    3    3    0    0  0.17085441862E+02 -0.11103519952E+02 -0.27301357508E+02  0.34067060351E+02  0.51100000000E-03 0. -1.
        -11    1    3    3    0    0  0.91977167240E+01 -0.78224585198E+01 -0.11807638552E+01  0.12131902315E+02  0.51100000000E-03 0.  1.
        -12    1    3    3    0    0 -0.26460871770E+02  0.18542221859E+02  0.29584036570E+02  0.43808754217E+02  0.00000000000E+00 0.  1.
</event>
<event>
 7    1  0.1971192E-015  0.9000780E+02  0.7816164E-02  0.1186339E+00
        -11   -1    0    0    0    0  0.00000000000E+00  0.00000000000E+00  0.45593999997E+02  0.45594000000E+02  0.51100000000E-03 0.  1.
         11   -1    0    0    0    0 -0.00000000000E+00 -0.00000000000E+00 -0.45593999997E+02  0.45594000000E+02  0.51100000000E-03 0. -1.
    9900012    2    1    2    0    0 -0.32986114642E+00  0.11327834797E+01  0.29265513589E-01  0.90007803721E+02  0.90000065930E+02 0.  0.
         12    1    1    2    0    0  0.32986114642E+00 -0.11327834797E+01 -0.29265513589E-01  0.11801962794E+01  0.00000000000E+00 0. -1.
         11    1    3    3    0    0  0.22716191046E+02  0.20526460735E+02 -0.26758152280E+02  0.40661525299E+02  0.51100000000E-03 0. -1.
        -11    1    3    3    0    0  0.49246792749E+01  0.15240024758E+01  0.84488967051E+01  0.98974191233E+01  0.51100000000E-03 0.  1.
        -12    1    3    3    0    0 -0.27970731468E+02 -0.20917679731E+02  0.18338521089E+02  0.39448859298E+02  0.00000000000E+00 0.  1.
</event>
<event>
 7    1  0.1971192E-015  0.9000769E+02  0.7816164E-02  0.1186339E+00
        -11   -1    0    0    0    0  0.00000000000E+00  0.00000000000E+00  0.45593999997E+02  0.45594000000E+02  0.51100000000E-03 0.  1.
         11   -1    0    0    0    0 -0.00000000000E+00 -0.00000000000E+00 -0.45593999997E+02  0.45594000000E+02  0.51100000000E-03 0. -1.
    9900012    2    1    2    0    0  0.23628207091E+00 -0.75242583978E-01  0.11539634125E+01  0.90007694014E+02  0.89999954775E+02 0.  0.
         12    1    1    2    0    0 -0.23628207091E+00  0.75242583978E-01 -0.11539634125E+01  0.11803059861E+01  0.00000000000E+00 0. -1.
         11    1    3    3    0    0 -0.13474603141E+02 -0.31437315032E+02 -0.17248930070E+02  0.38306595973E+02  0.51100000000E-03 0. -1.
        -11    1    3    3    0    0 -0.38161792138E+01  0.45497267522E+01 -0.81569131432E+01  0.10089522764E+02  0.51100000000E-03 0.  1.
        -12    1    3    3    0    0  0.17527064425E+02  0.26812345696E+02  0.26559806626E+02  0.41611575277E+02  0.00000000000E+00 0.  1.
</event>
<event>
 7    1  0.1971192E-015  0.9000769E+02  0.7816164E-02  0.1186339E+00
        -11   -1    0    0    0    0  0.00000000000E+00  0.00000000000E+00  0.45593999997E+02  0.45594000000E+02  0.51100000000E-03 0.  1.
         11   -1    0    0    0    0 -0.00000000000E+00 -0.00000000000E+00 -0.45593999997E+02  0.45594000000E+02  0.51100000000E-03 0. -1.
    9900012    2    1    2    0    0  0.95891845083E+00  0.49607211573E+00  0.47698656902E+00  0.90007691427E+02  0.89999952154E+02 0.  0.
         12    1    1    2    0    0 -0.95891845083E+00 -0.49607211573E+00 -0.47698656902E+00  0.11803085725E+01  0.00000000000E+00 0. -1.
         11    1    3    3    0    0 -0.65727157647E+01 -0.30904054128E+01 -0.62603641049E+01  0.95887098780E+01  0.51100000000E-03 0. -1.
        -11    1    3    3    0    0 -0.31862845667E+02  0.16550086060E+02  0.13577338309E+02  0.38386070370E+02  0.51100000000E-03 0.  1.
         12    1    3    3    0    0  0.39394479883E+02 -0.12963608531E+02 -0.68399876355E+01  0.42032911180E+02  0.00000000000E+00 0. -1.
</event>
<event>
 7    1  0.1971192E-015  0.9000744E+02  0.7816164E-02  0.1186340E+00
        -11   -1    0    0    0    0  0.00000000000E+00  0.00000000000E+00  0.45593999997E+02  0.45594000000E+02  0.51100000000E-03 0. -1.
         11   -1    0    0    0    0 -0.00000000000E+00 -0.00000000000E+00 -0.45593999997E+02  0.45594000000E+02  0.51100000000E-03 0.  1.
    9900012    2    1    2    0    0  0.40437172605E+00  0.68602902092E+00 -0.87153057093E+00  0.90007441723E+02  0.89999699153E+02 0.  0.
         12    1    1    2    0    0 -0.40437172605E+00 -0.68602902092E+00  0.87153057093E+00  0.11805582774E+01  0.00000000000E+00 0. -1.
         11    1    3    3    0    0 -0.31356636688E+01 -0.22399203520E+01  0.73940906599E+01  0.83379977678E+01  0.51100000000E-03 0. -1.
        -11    1    3    3    0    0  0.12498910004E+02 -0.19521120838E+02  0.29078446246E+02  0.37186730784E+02  0.51100000000E-03 0.  1.
         12    1    3    3    0    0 -0.89588746088E+01  0.22447070211E+02 -0.37344067477E+02  0.44482713171E+02  0.00000000000E+00 0. -1.
</event>
<event>
 7    1  0.1971192E-015  0.9000749E+02  0.7816164E-02  0.1186340E+00
        -11   -1    0    0    0    0  0.00000000000E+00  0.00000000000E+00  0.45593999997E+02  0.45594000000E+02  0.51100000000E-03 0.  1.
         11   -1    0    0    0    0 -0.00000000000E+00 -0.00000000000E+00 -0.45593999997E+02  0.45594000000E+02  0.51100000000E-03 0. -1.
    9900012    2    1    2    0    0  0.25481545679E+00  0.10294869352E+01  0.51849524434E+00  0.90007486728E+02  0.89999744753E+02 0.  0.
         12    1    1    2    0    0 -0.25481545679E+00 -0.10294869352E+01 -0.51849524434E+00  0.11805132719E+01  0.00000000000E+00 0. -1.
         11    1    3    3    0    0  0.40755146836E+01  0.40847184778E+00 -0.90223124535E+01  0.99085211539E+01  0.51100000000E-03 0. -1.
        -11    1    3    3    0    0  0.16891853082E+02 -0.34252925142E+02 -0.94911107567E+00  0.38203381963E+02  0.51100000000E-03 0.  1.
         12    1    3    3    0    0 -0.20712552309E+02  0.34873940229E+02  0.10489918774E+02  0.41895583611E+02  0.00000000000E+00 0. -1.
</event>
<event>
 7    1  0.1971192E-015  0.9000778E+02  0.7816164E-02  0.1186339E+00
        -11   -1    0    0    0    0  0.00000000000E+00  0.00000000000E+00  0.45593999997E+02  0.45594000000E+02  0.51100000000E-03 0. -1.
         11   -1    0    0    0    0 -0.00000000000E+00 -0.00000000000E+00 -0.45593999997E+02  0.45594000000E+02  0.51100000000E-03 0.  1.
    9900012    2    1    2    0    0  0.10032420227E+01 -0.35600791480E+00 -0.50960162853E+00  0.90007775440E+02  0.90000037276E+02 0.  0.
         12    1    1    2    0    0 -0.10032420227E+01  0.35600791480E+00  0.50960162853E+00  0.11802245597E+01  0.00000000000E+00 0. -1.
         11    1    3    3    0    0  0.17078236480E+01  0.87023445790E+01 -0.12860983343E+02  0.15622175124E+02  0.51100000000E-03 0. -1.
        -11    1    3    3    0    0 -0.21165410458E+02 -0.34634047185E+02  0.62054786511E+01  0.41060927776E+02  0.51100000000E-03 0.  1.
         12    1    3    3    0    0  0.20460828832E+02  0.25575694692E+02  0.61459030633E+01  0.33324672541E+02  0.00000000000E+00 0. -1.
</event>
<event>
 7    1  0.1971192E-015  0.9000780E+02  0.7816164E-02  0.1186339E+00
        -11   -1    0    0    0    0  0.00000000000E+00  0.00000000000E+00  0.45593999997E+02  0.45594000000E+02  0.51100000000E-03 0. -1.
         11   -1    0    0    0    0 -0.00000000000E+00 -0.00000000000E+00 -0.45593999997E+02  0.45594000000E+02  0.51100000000E-03 0.  1.
    9900012    2    1    2    0    0  0.31398512996E+00 -0.25191870147E+00 -0.11094224755E+01  0.90007801744E+02  0.90000063927E+02 0.  0.
         12    1    1    2    0    0 -0.31398512996E+00  0.25191870147E+00  0.11094224755E+01  0.11801982558E+01  0.00000000000E+00 0. -1.
         11    1    3    3    0    0  0.25983869970E+02  0.32722886295E+02 -0.25451653535E+01  0.41861995330E+02  0.51100000000E-03 0. -1.
        -11    1    3    3    0    0  0.45394321675E+01 -0.65278098281E+01  0.79174455660E+00  0.79903445019E+01  0.51100000000E-03 0.  1.
        -12    1    3    3    0    0 -0.30209317007E+02 -0.26446995169E+02  0.64399832140E+00  0.40155461912E+02  0.00000000000E+00 0.  1.
</event>
<event>
 7    1  0.1971192E-015  0.9000756E+02  0.7816164E-02  0.1186339E+00
        -11   -1    0    0    0    0  0.00000000000E+00  0.00000000000E+00  0.45593999997E+02  0.45594000000E+02  0.51100000000E-03 0. -1.
         11   -1    0    0    0    0 -0.00000000000E+00 -0.00000000000E+00 -0.45593999997E+02  0.45594000000E+02  0.51100000000E-03 0.  1.
    9900012    2    1    2    0    0 -0.15810230903E+00 -0.58904774163E+00 -0.10106700897E+01  0.90007564651E+02  0.89999823705E+02 0.  0.
         12    1    1    2    0    0  0.15810230903E+00  0.58904774163E+00  0.10106700897E+01  0.11804353486E+01  0.00000000000E+00 0. -1.
         11    1    3    3    0    0 -0.33495185401E+02  0.16886723020E+02 -0.17403342308E+02  0.41351725275E+02  0.51100000000E-03 0. -1.
        -11    1    3    3    0    0 -0.29552004538E+01 -0.69095158604E+01  0.55187537848E+01  0.93236936214E+01  0.51100000000E-03 0.  1.
        -12    1    3    3    0    0  0.36292283546E+02 -0.10566254902E+02  0.10873918434E+02  0.39332145755E+02  0.00000000000E+00 0.  1.
</event>
<event>
 7    1  0.1971192E-015  0.9000777E+02  0.7816164E-02  0.1186339E+00
        -11   -1    0    0    0    0  0.00000000000E+00  0.00000000000E+00  0.45593999997E+02  0.45594000000E+02  0.51100000000E-03 0.  1.
         11   -1    0    0    0    0 -0.00000000000E+00 -0.00000000000E+00 -0.45593999997E+02  0.45594000000E+02  0.51100000000E-03 0. -1.
    9900012    2    1    2    0    0  0.40287653336E+00 -0.88429974660E+00  0.66981783420E+00  0.90007766348E+02  0.90000028063E+02 0.  0.
         12    1    1    2    0    0 -0.40287653336E+00  0.88429974660E+00 -0.66981783420E+00  0.11802336523E+01  0.00000000000E+00 0. -1.
         11    1    3    3    0    0  0.22260721813E+01 -0.72143184411E+01  0.19990877052E+01  0.78101305905E+01  0.51100000000E-03 0. -1.
        -11    1    3    3    0    0 -0.12444038991E+02 -0.34024134226E+02 -0.13608647323E+02  0.38700014192E+02  0.51100000000E-03 0.  1.
         12    1    3    3    0    0  0.10620843343E+02  0.40354152920E+02  0.12279377452E+02  0.43497621565E+02  0.00000000000E+00 0. -1.
</event>
<event>
 7    1  0.1971192E-015  0.9000772E+02  0.7816164E-02  0.1186339E+00
        -11   -1    0    0    0    0  0.00000000000E+00  0.00000000000E+00  0.45593999997E+02  0.45594000000E+02  0.51100000000E-03 0.  1.
         11   -1    0    0    0    0 -0.00000000000E+00 -0.00000000000E+00 -0.45593999997E+02  0.45594000000E+02  0.51100000000E-03 0. -1.
    9900012    2    1    2    0    0 -0.19886473019E+00 -0.95289867020E+00  0.66746032596E+00  0.90007717685E+02  0.89999978758E+02 0.  0.
         12    1    1    2    0    0  0.19886473019E+00  0.95289867020E+00 -0.66746032596E+00  0.11802823151E+01  0.00000000000E+00 0. -1.
         11    1    3    3    0    0 -0.55284491180E+01  0.11348305509E+02  0.28317281744E+02  0.31003487436E+02  0.51100000000E-03 0. -1.
        -11    1    3    3    0    0 -0.13956185063E+02  0.52487735659E+01  0.63078361298E+01  0.16189920394E+02  0.51100000000E-03 0.  1.
        -12    1    3    3    0    0  0.19285769451E+02 -0.17549977745E+02 -0.33957657548E+02  0.42814309855E+02  0.00000000000E+00 0.  1.
</event>
<event>
 7    1  0.1971192E-015  0.9000766E+02  0.7816164E-02  0.1186339E+00
        -11   -1    0    0    0    0  0.00000000000E+00  0.00000000000E+00  0.45593999997E+02  0.45594000000E+02  0.51100000000E-03 0. -1.
         11   -1    0    0    0    0 -0.00000000000E+00 -0.00000000000E+00 -0.45593999997E+02  0.45594000000E+02  0.51100000000E-03 0.  1.
    9900012    2    1    2    0    0  0.62843694265E+00 -0.85968635875E+00 -0.50912957322E+00  0.90007658292E+02  0.89999918581E+02 0.  0.
         12    1    1    2    0    0 -0.62843694265E+00  0.85968635875E+00  0.50912957322E+00  0.11803417084E+01  0.00000000000E+00 0. -1.
         11    1    3    3    0    0  0.44685024845E+01 -0.62173645057E+01  0.45579319401E+01  0.89105487868E+01  0.51100000000E-03 0. -1.
        -11    1    3    3    0    0 -0.24233122422E+02  0.13746763174E+02 -0.34484277364E+02  0.44332641537E+02  0.51100000000E-03 0.  1.
         12    1    3    3    0    0  0.20393056881E+02 -0.83890850271E+01  0.29417215851E+02  0.36764467967E+02  0.00000000000E+00 0. -1.
</event>
<event>
 7    1  0.1971192E-015  0.9000771E+02  0.7816164E-02  0.1186339E+00
        -11   -1    0    0    0    0  0.00000000000E+00  0.00000000000E+00  0.45593999997E+02  0.45594000000E+02  0.51100000000E-03 0.  1.
         11   -1    0    0    0    0 -0.00000000000E+00 -0.00000000000E+00 -0.45593999997E+02  0.45594000000E+02  0.51100000000E-03 0. -1.
    9900012    2    1    2    0    0 -0.58356445845E+00  0.30585313048E+00  0.97927588169E+00  0.90007714074E+02  0.89999975100E+02 0.  0.
         12    1    1    2    0    0  0.58356445845E+00 -0.30585313048E+00 -0.97927588169E+00  0.11802859260E+01  0.00000000000E+00 0. -1.
         11    1    3    3    0    0 -0.42021436974E+01  0.38035767701E+02  0.77213578501E+01  0.39038404214E+02  0.51100000000E-03 0. -1.
        -11    1    3    3    0    0 -0.26275572250E+01 -0.60267691386E+00  0.95670769034E+01  0.99396296294E+01  0.51100000000E-03 0.  1.
        -12    1    3    3    0    0  0.62461364639E+01 -0.37127237657E+02 -0.16309158872E+02  0.41029680231E+02  0.00000000000E+00 0.  1.
</event>
<event>
 7    1  0.1971192E-015  0.9000767E+02  0.7816164E-02  0.1186339E+00
        -11   -1    0    0    0    0  0.00000000000E+00  0.00000000000E+00  0.45593999997E+02  0.45594000000E+02  0.51100000000E-03 0.  1.
         11   -1    0    0    0    0 -0.00000000000E+00 -0.00000000000E+00 -0.45593999997E+02  0.45594000000E+02  0.51100000000E-03 0. -1.
    9900012    2    1    2    0    0  0.80418565055E+00  0.10758764685E+00  0.85726247506E+00  0.90007665889E+02  0.89999926279E+02 0.  0.
         12    1    1    2    0    0 -0.80418565055E+00 -0.10758764685E+00 -0.85726247506E+00  0.11803341109E+01  0.00000000000E+00 0. -1.
         11    1    3    3    0    0  0.23684664686E+00  0.86161638216E+01 -0.23024215183E+01  0.89216321626E+01  0.51100000000E-03 0. -1.
        -11    1    3    3    0    0  0.17003763181E+02  0.10922064806E+02 -0.31900103501E+02  0.37762892707E+02  0.51100000000E-03 0.  1.
         12    1    3    3    0    0 -0.16436424177E+02 -0.19430640981E+02  0.35059787494E+02  0.43323141020E+02  0.00000000000E+00 0. -1.
</event>
<event>
 7    1  0.1971192E-015  0.9000781E+02  0.7816164E-02  0.1186339E+00
        -11   -1    0    0    0    0  0.00000000000E+00  0.00000000000E+00  0.45593999997E+02  0.45594000000E+02  0.51100000000E-03 0.  1.
         11   -1    0    0    0    0 -0.00000000000E+00 -0.00000000000E+00 -0.45593999997E+02  0.45594000000E+02  0.51100000000E-03 0. -1.
    9900012    2    1    2    0    0 -0.51162869029E+00 -0.92037169361E+00 -0.53290638314E+00  0.90007814767E+02  0.90000077122E+02 0.  0.
         12    1    1    2    0    0  0.51162869029E+00  0.92037169361E+00  0.53290638314E+00  0.11801852331E+01  0.00000000000E+00 0. -1.
         11    1    3    3    0    0  0.48234477717E+01 -0.14091129554E+02 -0.32891697128E+02  0.36106638181E+02  0.51100000000E-03 0. -1.
        -11    1    3    3    0    0 -0.80093170062E+00 -0.86982108134E+01 -0.52277036180E+01  0.10179845201E+02  0.51100000000E-03 0.  1.
        -12    1    3    3    0    0 -0.45341447614E+01  0.21868968673E+02  0.37586494363E+02  0.43721331385E+02  0.00000000000E+00 0.  1.
</event>
<event>
 7    1  0.3272036E-015  0.9000775E+02  0.7816164E-02  0.1186339E+00
        -11   -1    0    0    0    0  0.00000000000E+00  0.00000000000E+00  0.45593999997E+02  0.45594000000E+02  0.51100000000E-03 0. -1.
         11   -1    0    0    0    0 -0.00000000000E+00 -0.00000000000E+00 -0.45593999997E+02  0.45594000000E+02  0.51100000000E-03 0.  1.
    9900012    2    1    2    0    0  0.65354569837E+00  0.70805791603E+00 -0.68156112157E+00  0.90007748521E+02  0.90000010001E+02 0.  0.
         12    1    1    2    0    0 -0.65354569837E+00 -0.70805791603E+00  0.68156112157E+00  0.11802514794E+01  0.00000000000E+00 0. -1.
         11    1    3    3    0    0 -0.13218866977E+02  0.25586510661E+01  0.37100668145E+02  0.39468274810E+02  0.51100000000E-03 0. -1.
        -11    1    3    3    0    0 -0.48636915001E+01 -0.75502992159E+01 -0.12213917967E+01  0.90639015573E+01  0.51100000000E-03 0.  1.
        -12    1    3    3    0    0  0.18736104175E+02  0.56997060659E+01 -0.36560837470E+02  0.41475572153E+02  0.00000000000E+00 0.  1.
</event>
<event>
 7    1  0.1971192E-015  0.9000774E+02  0.7816164E-02  0.1186339E+00
        -11   -1    0    0    0    0  0.00000000000E+00  0.00000000000E+00  0.45593999997E+02  0.45594000000E+02  0.51100000000E-03 0.  1.
         11   -1    0    0    0    0 -0.00000000000E+00 -0.00000000000E+00 -0.45593999997E+02  0.45594000000E+02  0.51100000000E-03 0. -1.
    9900012    2    1    2    0    0  0.69360768591E+00 -0.83843603846E+00 -0.45710842527E+00  0.90007739552E+02  0.90000000914E+02 0.  0.
         12    1    1    2    0    0 -0.69360768591E+00  0.83843603846E+00  0.45710842527E+00  0.11802604480E+01  0.00000000000E+00 0. -1.
         11    1    3    3    0    0 -0.73521290549E+01 -0.36876809892E+01  0.47947663226E+01  0.95206395304E+01  0.51100000000E-03 0. -1.
        -11    1    3    3    0    0 -0.33824712833E+02 -0.19250929257E+01  0.10543899644E+02  0.35482263189E+02  0.51100000000E-03 0.  1.
         12    1    3    3    0    0  0.41870449574E+02  0.47743378765E+01 -0.15795774392E+02  0.45004836833E+02  0.00000000000E+00 0. -1.
</event>
<event>
 7    1  0.1971192E-015  0.9000834E+02  0.7816164E-02  0.1186338E+00
        -11   -1    0    0    0    0  0.00000000000E+00  0.00000000000E+00  0.45593999997E+02  0.45594000000E+02  0.51100000000E-03 0.  1.
         11   -1    0    0    0    0 -0.00000000000E+00 -0.00000000000E+00 -0.45593999997E+02  0.45594000000E+02  0.51100000000E-03 0. -1.
    9900012    2    1    2    0    0 -0.58028482377E+00  0.30195615332E+00  0.98167344183E+00  0.90008342956E+02  0.90000612281E+02 0.  0.
         12    1    1    2    0    0  0.58028482377E+00 -0.30195615332E+00 -0.98167344183E+00  0.11796570441E+01  0.00000000000E+00 0. -1.
         11    1    3    3    0    0 -0.28250991476E+02 -0.13027947628E+02 -0.26523856590E+02  0.40882281094E+02  0.51100000000E-03 0. -1.
        -11    1    3    3    0    0  0.14181131134E+01  0.95086928689E+01 -0.15978901497E+01  0.97457446134E+01  0.51100000000E-03 0.  1.
        -12    1    3    3    0    0  0.26252593539E+02  0.38212109121E+01  0.29103420181E+02  0.39380317249E+02  0.00000000000E+00 0.  1.
</event>
<event>
 7    1  0.1971192E-015  0.9000777E+02  0.7816164E-02  0.1186339E+00
        -11   -1    0    0    0    0  0.00000000000E+00  0.00000000000E+00  0.45593999997E+02  0.45594000000E+02  0.51100000000E-03 0.  1.
         11   -1    0    0    0    0 -0.00000000000E+00 -0.00000000000E+00 -0.45593999997E+02  0.45594000000E+02  0.51100000000E-03 0. -1.
    9900012    2    1    2    0    0 -0.38850011394E+00 -0.41757972452E+00  0.10332658081E+01  0.90007769770E+02  0.90000031531E+02 0.  0.
         12    1    1    2    0    0  0.38850011394E+00  0.41757972452E+00 -0.10332658081E+01  0.11802302297E+01  0.00000000000E+00 0. -1.
         11    1    3    3    0    0  0.11274468862E+02 -0.38898173771E+01  0.26696371375E+01  0.12221754786E+02  0.51100000000E-03 0. -1.
        -11    1    3    3    0    0 -0.96165985353E+01 -0.36098333951E+02  0.47258149742E+01  0.37655039621E+02  0.51100000000E-03 0.  1.
         12    1    3    3    0    0 -0.20463704405E+01  0.39570571604E+02 -0.63621863037E+01  0.40130975363E+02  0.00000000000E+00 0. -1.
</event>
<event>
 7    1  0.1971192E-015  0.9000773E+02  0.7816164E-02  0.1186339E+00
        -11   -1    0    0    0    0  0.00000000000E+00  0.00000000000E+00  0.45593999997E+02  0.45594000000E+02  0.51100000000E-03 0.  1.
         11   -1    0    0    0    0 -0.00000000000E+00 -0.00000000000E+00 -0.45593999997E+02  0.45594000000E+02  0.51100000000E-03 0. -1.
    9900012    2    1    2    0    0  0.10654119821E+01  0.48315155849E+00 -0.15650881942E+00  0.90007731755E+02  0.89999993014E+02 0.  0.
         12    1    1    2    0    0 -0.10654119821E+01 -0.48315155849E+00  0.15650881942E+00  0.11802682452E+01  0.00000000000E+00 0. -1.
         11    1    3    3    0    0  0.22181417436E+01  0.47088322522E+01  0.66818324352E+01  0.84699550724E+01  0.51100000000E-03 0. -1.
        -11    1    3    3    0    0  0.31887658019E+02  0.76256805114E+01 -0.25728068304E+02  0.41676219072E+02  0.51100000000E-03 0.  1.
         12    1    3    3    0    0 -0.33040387781E+02 -0.11851361205E+02  0.18889727050E+02  0.39861557610E+02  0.00000000000E+00 0. -1.
</event>
<event>
 7    1  0.1971192E-015  0.9000778E+02  0.7816164E-02  0.1186339E+00
        -11   -1    0    0    0    0  0.00000000000E+00  0.00000000000E+00  0.45593999997E+02  0.45594000000E+02  0.51100000000E-03 0.  1.
         11   -1    0    0    0    0 -0.00000000000E+00 -0.00000000000E+00 -0.45593999997E+02  0.45594000000E+02  0.51100000000E-03 0. -1.
    9900012    2    1    2    0    0  0.87013175567E+00 -0.77648382821E+00  0.18128605216E+00  0.90007779241E+02  0.90000041127E+02 0.  0.
         12    1    1    2    0    0 -0.87013175567E+00  0.77648382821E+00 -0.18128605216E+00  0.11802207592E+01  0.00000000000E+00 0. -1.
         11    1    3    3    0    0 -0.92421296696E+01  0.94392593514E+00 -0.52469516105E+01  0.10669510695E+02  0.51100000000E-03 0. -1.
        -11    1    3    3    0    0  0.16219992556E+01 -0.16304610410E+02  0.38703198157E+02  0.42028665813E+02  0.51100000000E-03 0.  1.
         12    1    3    3    0    0  0.84902621697E+01  0.14584200647E+02 -0.33274960494E+02  0.37309602733E+02  0.00000000000E+00 0. -1.
</event>
<event>
 7    1  0.1971192E-015  0.9000772E+02  0.7816164E-02  0.1186339E+00
        -11   -1    0    0    0    0  0.00000000000E+00  0.00000000000E+00  0.45593999997E+02  0.45594000000E+02  0.51100000000E-03 0. -1.
         11   -1    0    0    0    0 -0.00000000000E+00 -0.00000000000E+00 -0.45593999997E+02  0.45594000000E+02  0.51100000000E-03 0.  1.
    9900012    2    1    2    0    0  0.33990770961E+00  0.10915230275E+01 -0.29342399140E+00  0.90007721470E+02  0.89999982593E+02 0.  0.
         12    1    1    2    0    0 -0.33990770961E+00 -0.10915230275E+01  0.29342399140E+00  0.11802785304E+01  0.00000000000E+00 0. -1.
         11    1    3    3    0    0 -0.24672801032E+02 -0.26971601925E+02 -0.28642854342E+01  0.36666313592E+02  0.51100000000E-03 0. -1.
        -11    1    3    3    0    0 -0.69280203439E+01 -0.27936087857E+01  0.47916761750E+01  0.88747888291E+01  0.51100000000E-03 0.  1.
        -12    1    3    3    0    0  0.31940729085E+02  0.30856733738E+02 -0.22208147322E+01  0.44466619048E+02  0.00000000000E+00 0.  1.
</event>
<event>
 7    1  0.1971192E-015  0.9000780E+02  0.7816164E-02  0.1186339E+00
        -11   -1    0    0    0    0  0.00000000000E+00  0.00000000000E+00  0.45593999997E+02  0.45594000000E+02  0.51100000000E-03 0.  1.
         11   -1    0    0    0    0 -0.00000000000E+00 -0.00000000000E+00 -0.45593999997E+02  0.45594000000E+02  0.51100000000E-03 0. -1.
    9900012    2    1    2    0    0 -0.27564134489E+00  0.37025480957E+00  0.10861845630E+01  0.90007803542E+02  0.90000065749E+02 0.  0.
         12    1    1    2    0    0  0.27564134489E+00 -0.37025480957E+00 -0.10861845630E+01  0.11801964582E+01  0.00000000000E+00 0. -1.
         11    1    3    3    0    0 -0.55807999820E+01 -0.97108892741E+01  0.92034931611E+01  0.14496585307E+02  0.51100000000E-03 0. -1.
        -11    1    3    3    0    0 -0.13006192339E+02  0.98854030605E+01  0.29472925448E+02  0.33697708639E+02  0.51100000000E-03 0.  1.
         12    1    3    3    0    0  0.18311350976E+02  0.19574102313E+00 -0.37590234046E+02  0.41813509596E+02  0.00000000000E+00 0. -1.
</event>
<event>
 7    1  0.1971192E-015  0.9000671E+02  0.7816164E-02  0.1186341E+00
        -11   -1    0    0    0    0  0.00000000000E+00  0.00000000000E+00  0.45593999997E+02  0.45594000000E+02  0.51100000000E-03 0. -1.
         11   -1    0    0    0    0 -0.00000000000E+00 -0.00000000000E+00 -0.45593999997E+02  0.45594000000E+02  0.51100000000E-03 0.  1.
    9900012    2    1    2    0    0 -0.28947555307E-01 -0.57570854625E+00 -0.10311021892E+01  0.90006708327E+02  0.89998956071E+02 0.  0.
         12    1    1    2    0    0  0.28947555307E-01  0.57570854625E+00  0.10311021892E+01  0.11812916726E+01  0.00000000000E+00 0. -1.
         11    1    3    3    0    0 -0.10751232134E+02 -0.35012433009E+02  0.90495599260E+01  0.37727363978E+02  0.51100000000E-03 0. -1.
        -11    1    3    3    0    0  0.86503620390E+01 -0.54417158378E+01 -0.66657528147E+01  0.12201364494E+02  0.51100000000E-03 0.  1.
        -12    1    3    3    0    0  0.20719225400E+01  0.39878440300E+02 -0.34149093005E+01  0.40077979856E+02  0.00000000000E+00 0.  1.
</event>
<event>
 7    1  0.1971192E-015  0.9000780E+02  0.7816164E-02  0.1186339E+00
        -11   -1    0    0    0    0  0.00000000000E+00  0.00000000000E+00  0.45593999997E+02  0.45594000000E+02  0.51100000000E-03 0.  1.
         11   -1    0    0    0    0 -0.00000000000E+00 -0.00000000000E+00 -0.45593999997E+02  0.45594000000E+02  0.51100000000E-03 0. -1.
    9900012    2    1    2    0    0  0.10957209196E+01 -0.22931133098E+00  0.37373887969E+00  0.90007801385E+02  0.90000063563E+02 0.  0.
         12    1    1    2    0    0 -0.10957209196E+01  0.22931133098E+00 -0.37373887969E+00  0.11801986148E+01  0.00000000000E+00 0. -1.
         11    1    3    3    0    0  0.20722316003E+02 -0.55646847420E+01  0.10597946101E+02  0.23931079345E+02  0.51100000000E-03 0. -1.
        -11    1    3    3    0    0  0.66306997500E+01  0.27418076012E+02 -0.14124300214E+02  0.31546995549E+02  0.51100000000E-03 0.  1.
         12    1    3    3    0    0 -0.26257294834E+02 -0.22082702601E+02  0.39000929931E+01  0.34529726490E+02  0.00000000000E+00 0. -1.
</event>
<event>
 7    1  0.1971192E-015  0.9000777E+02  0.7816164E-02  0.1186339E+00
        -11   -1    0    0    0    0  0.00000000000E+00  0.00000000000E+00  0.45593999997E+02  0.45594000000E+02  0.51100000000E-03 0.  1.
         11   -1    0    0    0    0 -0.00000000000E+00 -0.00000000000E+00 -0.45593999997E+02  0.45594000000E+02  0.51100000000E-03 0. -1.
    9900012    2    1    2    0    0  0.35529147003E+00  0.66333754575E+00  0.90923125930E+00  0.90007766883E+02  0.90000028606E+02 0.  0.
         12    1    1    2    0    0 -0.35529147003E+00 -0.66333754575E+00 -0.90923125930E+00  0.11802331173E+01  0.00000000000E+00 0. -1.
         11    1    3    3    0    0  0.34722278186E+02 -0.35655501913E+01  0.16937150018E+02  0.38797123625E+02  0.51100000000E-03 0. -1.
        -11    1    3    3    0    0 -0.91077974305E+00  0.41795624048E+01  0.86417215094E+01  0.96424899556E+01  0.51100000000E-03 0.  1.
        -12    1    3    3    0    0 -0.33456206973E+02  0.49325332221E-01 -0.24669640268E+02  0.41568153302E+02  0.00000000000E+00 0.  1.
</event>
<event>
 7    1  0.1971192E-015  0.9000773E+02  0.7816164E-02  0.1186339E+00
        -11   -1    0    0    0    0  0.00000000000E+00  0.00000000000E+00  0.45593999997E+02  0.45594000000E+02  0.51100000000E-03 0. -1.
         11   -1    0    0    0    0 -0.00000000000E+00 -0.00000000000E+00 -0.45593999997E+02  0.45594000000E+02  0.51100000000E-03 0.  1.
    9900012    2    1    2    0    0 -0.75202305491E+00 -0.16241498839E-01 -0.90952297157E+00  0.90007731176E+02  0.89999992427E+02 0.  0.
         12    1    1    2    0    0  0.75202305491E+00  0.16241498839E-01  0.90952297157E+00  0.11802688241E+01  0.00000000000E+00 0. -1.
         11    1    3    3    0    0  0.10622456396E+02  0.20043970173E+01  0.70314766098E+01  0.12895574856E+02  0.51100000000E-03 0. -1.
        -11    1    3    3    0    0  0.11049996766E+02 -0.11510287796E+02 -0.36348848190E+02  0.39696699091E+02  0.51100000000E-03 0.  1.
         12    1    3    3    0    0 -0.22424476217E+02  0.94896492798E+01  0.28407848609E+02  0.37415457229E+02  0.00000000000E+00 0. -1.
</event>
<event>
 7    1  0.1971192E-015  0.9000778E+02  0.7816164E-02  0.1186339E+00
        -11   -1    0    0    0    0  0.00000000000E+00  0.00000000000E+00  0.45593999997E+02  0.45594000000E+02  0.51100000000E-03 0. -1.
         11   -1    0    0    0    0 -0.00000000000E+00 -0.00000000000E+00 -0.45593999997E+02  0.45594000000E+02  0.51100000000E-03 0.  1.
    9900012    2    1    2    0    0 -0.42540419077E+00 -0.80794941062E+00 -0.74778112748E+00  0.90007776466E+02  0.90000038315E+02 0.  0.
         12    1    1    2    0    0  0.42540419077E+00  0.80794941062E+00  0.74778112748E+00  0.11802235340E+01  0.00000000000E+00 0. -1.
         11    1    3    3    0    0 -0.85568602794E+01 -0.18567453980E+01 -0.83660731328E+00  0.87958668346E+01  0.51100000000E-03 0. -1.
        -11    1    3    3    0    0 -0.15336685852E+02  0.20378225904E+02 -0.29355610461E+02  0.38887503002E+02  0.51100000000E-03 0.  1.
         12    1    3    3    0    0  0.23468141941E+02 -0.19329429917E+02  0.29444436647E+02  0.42324406629E+02  0.00000000000E+00 0. -1.
</event>
<event>
 7    1  0.1971192E-015  0.9000774E+02  0.7816164E-02  0.1186339E+00
        -11   -1    0    0    0    0  0.00000000000E+00  0.00000000000E+00  0.45593999997E+02  0.45594000000E+02  0.51100000000E-03 0.  1.
         11   -1    0    0    0    0 -0.00000000000E+00 -0.00000000000E+00 -0.45593999997E+02  0.45594000000E+02  0.51100000000E-03 0. -1.
    9900012    2    1    2    0    0 -0.22339453793E+00 -0.16127234440E+00  0.11476509515E+01  0.90007738760E+02  0.90000000111E+02 0.  0.
         12    1    1    2    0    0  0.22339453793E+00  0.16127234440E+00 -0.11476509515E+01  0.11802612402E+01  0.00000000000E+00 0. -1.
         11    1    3    3    0    0 -0.76178112085E+01 -0.14035135784E+00 -0.44001316084E+01  0.87984035225E+01  0.51100000000E-03 0. -1.
        -11    1    3    3    0    0  0.18772311120E+02  0.37015890970E+02  0.84511697194E+01  0.42355614964E+02  0.51100000000E-03 0.  1.
         12    1    3    3    0    0 -0.11377894450E+02 -0.37036811957E+02 -0.29033871595E+01  0.38853720273E+02  0.00000000000E+00 0. -1.
</event>
<event>
 7    1  0.1971192E-015  0.9000767E+02  0.7816164E-02  0.1186339E+00
        -11   -1    0    0    0    0  0.00000000000E+00  0.00000000000E+00  0.45593999997E+02  0.45594000000E+02  0.51100000000E-03 0.  1.
         11   -1    0    0    0    0 -0.00000000000E+00 -0.00000000000E+00 -0.45593999997E+02  0.45594000000E+02  0.51100000000E-03 0. -1.
    9900012    2    1    2    0    0 -0.45568434133E+00 -0.10783542858E+01  0.15060502321E+00  0.90007670361E+02  0.89999930809E+02 0.  0.
         12    1    1    2    0    0  0.45568434133E+00  0.10783542858E+01 -0.15060502321E+00  0.11803296394E+01  0.00000000000E+00 0. -1.
         11    1    3    3    0    0 -0.46450698049E+01 -0.85740355249E+01  0.40919574887E+01  0.10575200945E+02  0.51100000000E-03 0. -1.
        -11    1    3    3    0    0 -0.99589045834E+01 -0.60756622310E+01  0.34424637598E+02  0.36347615135E+02  0.51100000000E-03 0.  1.
         12    1    3    3    0    0  0.14148290047E+02  0.13571343470E+02 -0.38365990063E+02  0.43084854280E+02  0.00000000000E+00 0. -1.
</event>
<event>
 7    1  0.1971192E-015  0.9000787E+02  0.7816164E-02  0.1186339E+00
        -11   -1    0    0    0    0  0.00000000000E+00  0.00000000000E+00  0.45593999997E+02  0.45594000000E+02  0.51100000000E-03 0.  1.
         11   -1    0    0    0    0 -0.00000000000E+00 -0.00000000000E+00 -0.45593999997E+02  0.45594000000E+02  0.51100000000E-03 0. -1.
    9900012    2    1    2    0    0  0.11951446220E+00 -0.50783293213E+00 -0.10585525292E+01  0.90007868037E+02  0.90000131095E+02 0.  0.
         12    1    1    2    0    0 -0.11951446220E+00  0.50783293213E+00  0.10585525292E+01  0.11801319632E+01  0.00000000000E+00 0. -1.
         11    1    3    3    0    0 -0.16168871834E+01  0.77278291201E+01  0.37234464548E+01  0.87291305888E+01  0.51100000000E-03 0. -1.
        -11    1    3    3    0    0 -0.22386430958E+02  0.27964803034E+02  0.63391797584E+01  0.36378121173E+02  0.51100000000E-03 0.  1.
         12    1    3    3    0    0  0.24122832603E+02 -0.36200465087E+02 -0.11121178742E+02  0.44900616275E+02  0.00000000000E+00 0. -1.
</event>
<event>
 7    1  0.2944633E-015  0.9000759E+02  0.7816164E-02  0.1186339E+00
        -11   -1    0    0    0    0  0.00000000000E+00  0.00000000000E+00  0.45593999997E+02  0.45594000000E+02  0.51100000000E-03 0. -1.
         11   -1    0    0    0    0 -0.00000000000E+00 -0.00000000000E+00 -0.45593999997E+02  0.45594000000E+02  0.51100000000E-03 0.  1.
    9900012    2    1    2    0    0  0.98638036687E+00  0.21062189445E+00 -0.61323696390E+00  0.90007590163E+02  0.89999849553E+02 0.  0.
         12    1    1    2    0    0 -0.98638036687E+00 -0.21062189445E+00  0.61323696390E+00  0.11804098375E+01  0.00000000000E+00 0. -1.
         11    1    3    3    0    0 -0.55219775941E+01 -0.16302752928E+02  0.35347217245E+02  0.39315362860E+02  0.51100000000E-03 0. -1.
        -11    1    3    3    0    0 -0.63191996200E+01  0.65664793501E+01  0.20674637089E+01  0.93448029054E+01  0.51100000000E-03 0.  1.
        -12    1    3    3    0    0  0.12827557581E+02  0.99468954727E+01 -0.38027917918E+02  0.41347424397E+02  0.00000000000E+00 0.  1.
</event>
<event>
 7    1  0.1971192E-015  0.9000771E+02  0.7816164E-02  0.1186339E+00
        -11   -1    0    0    0    0  0.00000000000E+00  0.00000000000E+00  0.45593999997E+02  0.45594000000E+02  0.51100000000E-03 0.  1.
         11   -1    0    0    0    0 -0.00000000000E+00 -0.00000000000E+00 -0.45593999997E+02  0.45594000000E+02  0.51100000000E-03 0. -1.
    9900012    2    1    2    0    0 -0.10271983449E+01  0.57928475563E+00  0.48852320368E-01  0.90007706046E+02  0.89999966966E+02 0.  0.
         12    1    1    2    0    0  0.10271983449E+01 -0.57928475563E+00 -0.48852320368E-01  0.11802939537E+01  0.00000000000E+00 0. -1.
         11    1    3    3    0    0 -0.35963227885E+01 -0.29816056093E+02  0.23204126297E+02  0.37952104237E+02  0.51100000000E-03 0. -1.
        -11    1    3    3    0    0 -0.59786615228E+01  0.16033048663E+01  0.71033546969E+01  0.94219227502E+01  0.51100000000E-03 0.  1.
        -12    1    3    3    0    0  0.85477859664E+01  0.28792035982E+02 -0.30258628673E+02  0.42633679059E+02  0.00000000000E+00 0.  1.
</event>
<event>
 7    1  0.1971192E-015  0.9000741E+02  0.7816164E-02  0.1186340E+00
        -11   -1    0    0    0    0  0.00000000000E+00  0.00000000000E+00  0.45593999997E+02  0.45594000000E+02  0.51100000000E-03 0.  1.
         11   -1    0    0    0    0 -0.00000000000E+00 -0.00000000000E+00 -0.45593999997E+02  0.45594000000E+02  0.51100000000E-03 0. -1.
    9900012    2    1    2    0    0  0.18366656129E-01  0.10426527298E+01  0.55346330296E+00  0.90007413842E+02  0.89999670904E+02 0.  0.
         12    1    1    2    0    0 -0.18366656129E-01 -0.10426527298E+01 -0.55346330296E+00  0.11805861581E+01  0.00000000000E+00 0. -1.
         11    1    3    3    0    0 -0.64897504409E+00 -0.54566352228E+01  0.62312622918E+01  0.83081084835E+01  0.51100000000E-03 0. -1.
        -11    1    3    3    0    0  0.31232210002E+02 -0.21870137620E+02 -0.10940708195E+02  0.39666773970E+02  0.51100000000E-03 0.  1.
         12    1    3    3    0    0 -0.30564868302E+02  0.28369425572E+02  0.52629092061E+01  0.42032531388E+02  0.00000000000E+00 0. -1.
</event>
<event>
 7    1  0.1971192E-015  0.9000769E+02  0.7816164E-02  0.1186339E+00
        -11   -1    0    0    0    0  0.00000000000E+00  0.00000000000E+00  0.45593999997E+02  0.45594000000E+02  0.51100000000E-03 0. -1.
         11   -1    0    0    0    0 -0.00000000000E+00 -0.00000000000E+00 -0.45593999997E+02  0.45594000000E+02  0.51100000000E-03 0.  1.
    9900012    2    1    2    0    0 -0.10354349149E+01 -0.51773380195E+00 -0.23014516978E+00  0.90007686249E+02  0.89999946907E+02 0.  0.
         12    1    1    2    0    0  0.10354349149E+01  0.51773380195E+00  0.23014516978E+00  0.11803137514E+01  0.00000000000E+00 0. -1.
         11    1    3    3    0    0 -0.12959790919E+02  0.27385767665E+02  0.15430705302E+02  0.34000634077E+02  0.51100000000E-03 0. -1.
        -11    1    3    3    0    0 -0.41683482467E+01  0.10121016652E+02  0.19506869777E+01  0.11118241098E+02  0.51100000000E-03 0.  1.
        -12    1    3    3    0    0  0.16092704251E+02 -0.38024518119E+02 -0.17611537449E+02  0.44888811073E+02  0.00000000000E+00 0.  1.
</event>
<event>
 7    1  0.1971192E-015  0.9000760E+02  0.7816164E-02  0.1186339E+00
        -11   -1    0    0    0    0  0.00000000000E+00  0.00000000000E+00  0.45593999997E+02  0.45594000000E+02  0.51100000000E-03 0.  1.
         11   -1    0    0    0    0 -0.00000000000E+00 -0.00000000000E+00 -0.45593999997E+02  0.45594000000E+02  0.51100000000E-03 0. -1.
    9900012    2    1    2    0    0  0.57650066014E-01  0.90982587917E-01  0.11754768679E+01  0.90007598700E+02  0.89999858203E+02 0.  0.
         12    1    1    2    0    0 -0.57650066014E-01 -0.90982587917E-01 -0.11754768679E+01  0.11804012998E+01  0.00000000000E+00 0. -1.
         11    1    3    3    0    0 -0.29557025127E+01  0.37474552618E+02 -0.33322073997E+01  0.37738334325E+02  0.51100000000E-03 0. -1.
        -11    1    3    3    0    0 -0.21706269095E+01  0.45751037100E+01  0.84046882385E+01  0.98123381406E+01  0.51100000000E-03 0.  1.
        -12    1    3    3    0    0  0.51839794883E+01 -0.41958673740E+02 -0.38970039709E+01  0.42456926234E+02  0.00000000000E+00 0.  1.
</event>
<event>
 7    1  0.1971192E-015  0.9000774E+02  0.7816164E-02  0.1186339E+00
        -11   -1    0    0    0    0  0.00000000000E+00  0.00000000000E+00  0.45593999997E+02  0.45594000000E+02  0.51100000000E-03 0. -1.
         11   -1    0    0    0    0 -0.00000000000E+00 -0.00000000000E+00 -0.45593999997E+02  0.45594000000E+02  0.51100000000E-03 0.  1.
    9900012    2    1    2    0    0  0.11128705091E+01 -0.39054567071E+00 -0.44803958321E-01  0.90007739823E+02  0.90000001189E+02 0.  0.
         12    1    1    2    0    0 -0.11128705091E+01  0.39054567071E+00  0.44803958321E-01  0.11802601771E+01  0.00000000000E+00 0. -1.
         11    1    3    3    0    0  0.76461207928E+01  0.18496200272E+00  0.30917460127E+02  0.31849438223E+02  0.51100000000E-03 0. -1.
        -11    1    3    3    0    0  0.14101560459E+02  0.80897323529E+01  0.39112133304E+01  0.16721105433E+02  0.51100000000E-03 0.  1.
        -12    1    3    3    0    0 -0.20634810743E+02 -0.86652400264E+01 -0.34873477416E+02  0.41437196167E+02  0.00000000000E+00 0.  1.
</event>
<event>
 7    1  0.1971192E-015  0.9000774E+02  0.7816164E-02  0.1186339E+00
        -11   -1    0    0    0    0  0.00000000000E+00  0.00000000000E+00  0.45593999997E+02  0.45594000000E+02  0.51100000000E-03 0.  1.
         11   -1    0    0    0    0 -0.00000000000E+00 -0.00000000000E+00 -0.45593999997E+02  0.45594000000E+02  0.51100000000E-03 0. -1.
    9900012    2    1    2    0    0  0.63619295633E+00  0.24000902800E+00  0.96471364280E+00  0.90007738070E+02  0.89999999412E+02 0.  0.
         12    1    1    2    0    0 -0.63619295633E+00 -0.24000902800E+00 -0.96471364280E+00  0.11802619302E+01  0.00000000000E+00 0. -1.
         11    1    3    3    0    0  0.60965330775E+01 -0.64714760496E+01  0.35223861810E+01  0.95632067057E+01  0.51100000000E-03 0. -1.
        -11    1    3    3    0    0  0.23183689399E+02 -0.11151873963E+02  0.25742235401E+02  0.36393824074E+02  0.51100000000E-03 0.  1.
         12    1    3    3    0    0 -0.28644029520E+02  0.17863359040E+02 -0.28299907940E+02  0.44050707290E+02  0.00000000000E+00 0. -1.
</event>
<event>
 7    1  0.1971192E-015  0.9000754E+02  0.7816164E-02  0.1186339E+00
        -11   -1    0    0    0    0  0.00000000000E+00  0.00000000000E+00  0.45593999997E+02  0.45594000000E+02  0.51100000000E-03 0. -1.
         11   -1    0    0    0    0 -0.00000000000E+00 -0.00000000000E+00 -0.45593999997E+02  0.45594000000E+02  0.51100000000E-03 0.  1.
    9900012    2    1    2    0    0  0.10085623492E+01 -0.61005163755E+00 -0.64143547479E-01  0.90007544407E+02  0.89999803193E+02 0.  0.
         12    1    1    2    0    0 -0.10085623492E+01  0.61005163755E+00  0.64143547479E-01  0.11804555931E+01  0.00000000000E+00 0. -1.
         11    1    3    3    0    0 -0.20169017227E+02  0.52539920325E+01  0.17233699002E+02  0.27044298285E+02  0.51100000000E-03 0. -1.
        -11    1    3    3    0    0 -0.19456375476E+02 -0.28497344045E+01 -0.75836776846E+01  0.21075666071E+02  0.51100000000E-03 0.  1.
        -12    1    3    3    0    0  0.40633955052E+02 -0.30143092655E+01 -0.97141648650E+01  0.41887580051E+02  0.00000000000E+00 0.  1.
</event>
<event>
 7    1  0.1971192E-015  0.9000768E+02  0.7816164E-02  0.1186339E+00
        -11   -1    0    0    0    0  0.00000000000E+00  0.00000000000E+00  0.45593999997E+02  0.45594000000E+02  0.51100000000E-03 0.  1.
         11   -1    0    0    0    0 -0.00000000000E+00 -0.00000000000E+00 -0.45593999997E+02  0.45594000000E+02  0.51100000000E-03 0. -1.
    9900012    2    1    2    0    0  0.45602359646E+00 -0.18689341550E+00  0.10725096253E+01  0.90007676500E+02  0.89999937029E+02 0.  0.
         12    1    1    2    0    0 -0.45602359646E+00  0.18689341550E+00 -0.10725096253E+01  0.11803235004E+01  0.00000000000E+00 0. -1.
         11    1    3    3    0    0 -0.17950454629E+02 -0.32563178908E+02 -0.10138930192E+02  0.38540593504E+02  0.51100000000E-03 0. -1.
        -11    1    3    3    0    0  0.28333275237E+01 -0.57909862145E+01  0.77775844180E+01  0.10102182231E+02  0.51100000000E-03 0.  1.
        -12    1    3    3    0    0  0.15573150701E+02  0.38167271707E+02  0.34338553998E+01  0.41364900764E+02  0.00000000000E+00 0.  1.
</event>
<event>
 7    1  0.1971192E-015  0.9000788E+02  0.7816164E-02  0.1186339E+00
        -11   -1    0    0    0    0  0.00000000000E+00  0.00000000000E+00  0.45593999997E+02  0.45594000000E+02  0.51100000000E-03 0. -1.
         11   -1    0    0    0    0 -0.00000000000E+00 -0.00000000000E+00 -0.45593999997E+02  0.45594000000E+02  0.51100000000E-03 0.  1.
    9900012    2    1    2    0    0 -0.65632217017E+00  0.80741052538E+00 -0.55679546180E+00  0.90007876390E+02  0.90000139559E+02 0.  0.
         12    1    1    2    0    0  0.65632217017E+00 -0.80741052538E+00  0.55679546180E+00  0.11801236096E+01  0.00000000000E+00 0. -1.
         11    1    3    3    0    0 -0.42883103556E+01  0.94763152250E+01 -0.77644388380E+01  0.12979856189E+02  0.51100000000E-03 0. -1.
        -11    1    3    3    0    0 -0.51560910102E+01  0.31755483675E+02 -0.76567481498E+01  0.33069953287E+02  0.51100000000E-03 0.  1.
         12    1    3    3    0    0  0.87880791956E+01 -0.40424388375E+02  0.14864391526E+02  0.43958066914E+02  0.00000000000E+00 0. -1.
</event>
<event>
 7    1  0.1971192E-015  0.9000792E+02  0.7816164E-02  0.1186339E+00
        -11   -1    0    0    0    0  0.00000000000E+00  0.00000000000E+00  0.45593999997E+02  0.45594000000E+02  0.51100000000E-03 0.  1.
         11   -1    0    0    0    0 -0.00000000000E+00 -0.00000000000E+00 -0.45593999997E+02  0.45594000000E+02  0.51100000000E-03 0. -1.
    9900012    2    1    2    0    0 -0.25190330821E+00 -0.54173245495E+00  0.10176685079E+01  0.90007924358E+02  0.90000188159E+02 0.  0.
         12    1    1    2    0    0  0.25190330821E+00  0.54173245495E+00 -0.10176685079E+01  0.11800756422E+01  0.00000000000E+00 0. -1.
         11    1    3    3    0    0 -0.55360405769E+01  0.39903268523E+02 -0.13446554820E+02  0.42470324002E+02  0.51100000000E-03 0. -1.
        -11    1    3    3    0    0  0.42804259942E+01 -0.19602510636E+01  0.68216111221E+01  0.82884865619E+01  0.51100000000E-03 0.  1.
        -12    1    3    3    0    0  0.10037112745E+01 -0.38484749914E+02  0.76426122054E+01  0.39249113794E+02  0.00000000000E+00 0.  1.
</event>
<event>
 7    1  0.1971192E-015  0.9000776E+02  0.7816164E-02  0.1186339E+00
        -11   -1    0    0    0    0  0.00000000000E+00  0.00000000000E+00  0.45593999997E+02  0.45594000000E+02  0.51100000000E-03 0.  1.
         11   -1    0    0    0    0 -0.00000000000E+00 -0.00000000000E+00 -0.45593999997E+02  0.45594000000E+02  0.51100000000E-03 0. -1.
    9900012    2    1    2    0    0 -0.47686535884E+00 -0.10317762132E+01  0.31782794170E+00  0.90007755396E+02  0.90000016967E+02 0.  0.
         12    1    1    2    0    0  0.47686535884E+00  0.10317762132E+01 -0.31782794170E+00  0.11802446039E+01  0.00000000000E+00 0. -1.
         11    1    3    3    0    0 -0.13849321482E+02  0.10965065130E+02 -0.54555621735E+01  0.18487820794E+02  0.51100000000E-03 0. -1.
        -11    1    3    3    0    0 -0.13032759062E+02  0.16027311216E+02  0.21601686695E+02  0.29889134847E+02  0.51100000000E-03 0.  1.
         12    1    3    3    0    0  0.26405215185E+02 -0.28024152559E+02 -0.15828296580E+02  0.41630799755E+02  0.00000000000E+00 0. -1.
</event>
<event>
 7    1  0.1971192E-015  0.9000775E+02  0.7816164E-02  0.1186339E+00
        -11   -1    0    0    0    0  0.00000000000E+00  0.00000000000E+00  0.45593999997E+02  0.45594000000E+02  0.51100000000E-03 0.  1.
         11   -1    0    0    0    0 -0.00000000000E+00 -0.00000000000E+00 -0.45593999997E+02  0.45594000000E+02  0.51100000000E-03 0. -1.
    9900012    2    1    2    0    0  0.23681993827E+00 -0.94740544077E+00  0.66281862595E+00  0.90007750330E+02  0.90000011834E+02 0.  0.
         12    1    1    2    0    0 -0.23681993827E+00  0.94740544077E+00 -0.66281862595E+00  0.11802496699E+01  0.00000000000E+00 0. -1.
         11    1    3    3    0    0 -0.10491641925E+02 -0.37626972220E+01 -0.16723374698E+02  0.20097355603E+02  0.51100000000E-03 0. -1.
        -11    1    3    3    0    0 -0.14179727578E+02 -0.11839439645E+02 -0.16922504498E+02  0.25052108974E+02  0.51100000000E-03 0.  1.
        -12    1    3    3    0    0  0.24908189442E+02  0.14654731426E+02  0.34308697822E+02  0.44858285753E+02  0.00000000000E+00 0.  1.
</event>
<event>
 7    1  0.1971192E-015  0.9000778E+02  0.7816164E-02  0.1186339E+00
        -11   -1    0    0    0    0  0.00000000000E+00  0.00000000000E+00  0.45593999997E+02  0.45594000000E+02  0.51100000000E-03 0. -1.
         11   -1    0    0    0    0 -0.00000000000E+00 -0.00000000000E+00 -0.45593999997E+02  0.45594000000E+02  0.51100000000E-03 0.  1.
    9900012    2    1    2    0    0  0.60830404352E+00 -0.92939902770E+00 -0.39888114330E+00  0.90007778610E+02  0.90000040488E+02 0.  0.
         12    1    1    2    0    0 -0.60830404352E+00  0.92939902770E+00  0.39888114330E+00  0.11802213896E+01  0.00000000000E+00 0. -1.
         11    1    3    3    0    0 -0.25970396463E+02  0.22745610159E+02 -0.12381146381E+02  0.36675837549E+02  0.51100000000E-03 0. -1.
        -11    1    3    3    0    0 -0.38910739692E+01  0.70067575251E+01  0.52219002527E+01  0.95657383489E+01  0.51100000000E-03 0.  1.
        -12    1    3    3    0    0  0.30469774475E+02 -0.30681766712E+02  0.67603649846E+01  0.43766202713E+02  0.00000000000E+00 0.  1.
</event>
<event>
 7    1  0.1971192E-015  0.9000768E+02  0.7816164E-02  0.1186339E+00
        -11   -1    0    0    0    0  0.00000000000E+00  0.00000000000E+00  0.45593999997E+02  0.45594000000E+02  0.51100000000E-03 0. -1.
         11   -1    0    0    0    0 -0.00000000000E+00 -0.00000000000E+00 -0.45593999997E+02  0.45594000000E+02  0.51100000000E-03 0.  1.
    9900012    2    1    2    0    0  0.10501780323E+01 -0.27851697468E-01 -0.53806694089E+00  0.90007675617E+02  0.89999936135E+02 0.  0.
         12    1    1    2    0    0 -0.10501780323E+01  0.27851697468E-01  0.53806694089E+00  0.11803243832E+01  0.00000000000E+00 0. -1.
         11    1    3    3    0    0 -0.32316781570E+02  0.85433738988E+01 -0.15417913496E+02  0.36811352399E+02  0.51100000000E-03 0. -1.
        -11    1    3    3    0    0 -0.26123147416E+01  0.82538831133E+01 -0.36158021600E+01  0.93821532858E+01  0.51100000000E-03 0.  1.
        -12    1    3    3    0    0  0.35979274344E+02 -0.16825108710E+02  0.18495648715E+02  0.43814169932E+02  0.00000000000E+00 0.  1.
</event>
<event>
 7    1  0.1971192E-015  0.9000780E+02  0.7816164E-02  0.1186339E+00
        -11   -1    0    0    0    0  0.00000000000E+00  0.00000000000E+00  0.45593999997E+02  0.45594000000E+02  0.51100000000E-03 0. -1.
         11   -1    0    0    0    0 -0.00000000000E+00 -0.00000000000E+00 -0.45593999997E+02  0.45594000000E+02  0.51100000000E-03 0.  1.
    9900012    2    1    2    0    0 -0.82953722726E+00  0.73015767040E+00  0.41427072980E+00  0.90007795580E+02  0.90000057682E+02 0.  0.
         12    1    1    2    0    0  0.82953722726E+00 -0.73015767040E+00 -0.41427072980E+00  0.11802044198E+01  0.00000000000E+00 0. -1.
         11    1    3    3    0    0 -0.26276392502E+00  0.10750000840E+00  0.29246413558E+02  0.29247791496E+02  0.51100000000E-03 0. -1.
        -11    1    3    3    0    0 -0.13113212855E+02 -0.10187268052E+02  0.94097684611E+01  0.19086134352E+02  0.51100000000E-03 0.  1.
        -12    1    3    3    0    0  0.12546439553E+02  0.10809925714E+02 -0.38241911290E+02  0.41673869732E+02  0.00000000000E+00 0.  1.
</event>
<event>
 7    1  0.1971192E-015  0.9000758E+02  0.7816164E-02  0.1186339E+00
        -11   -1    0    0    0    0  0.00000000000E+00  0.00000000000E+00  0.45593999997E+02  0.45594000000E+02  0.51100000000E-03 0. -1.
         11   -1    0    0    0    0 -0.00000000000E+00 -0.00000000000E+00 -0.45593999997E+02  0.45594000000E+02  0.51100000000E-03 0.  1.
    9900012    2    1    2    0    0 -0.68243932437E+00  0.82331708592E+00  0.49982576441E+00  0.90007576241E+02  0.89999835447E+02 0.  0.
         12    1    1    2    0    0  0.68243932437E+00 -0.82331708592E+00 -0.49982576441E+00  0.11804237587E+01  0.00000000000E+00 0. -1.
         11    1    3    3    0    0 -0.86718159263E+01  0.87005504428E+01 -0.40549105072E+01  0.12936083988E+02  0.51100000000E-03 0. -1.
        -11    1    3    3    0    0  0.18347737202E+01 -0.29596794125E+02 -0.25756362925E+02  0.39277561641E+02  0.51100000000E-03 0.  1.
         12    1    3    3    0    0  0.61546028817E+01  0.21719560768E+02  0.30311099196E+02  0.37793930612E+02  0.00000000000E+00 0. -1.
</event>
<event>
 7    1  0.3110052E-015  0.9000776E+02  0.7816164E-02  0.1186339E+00
        -11   -1    0    0    0    0  0.00000000000E+00  0.00000000000E+00  0.45593999997E+02  0.45594000000E+02  0.51100000000E-03 0.  1.
         11   -1    0    0    0    0 -0.00000000000E+00 -0.00000000000E+00 -0.45593999997E+02  0.45594000000E+02  0.51100000000E-03 0. -1.
    9900012    2    1    2    0    0  0.66028423248E+00  0.13539814876E+00  0.96884744283E+00  0.90007757104E+02  0.90000018698E+02 0.  0.
         12    1    1    2    0    0 -0.66028423248E+00 -0.13539814876E+00 -0.96884744283E+00  0.11802428961E+01  0.00000000000E+00 0. -1.
         11    1    3    3    0    0  0.17464883814E+01  0.19318383429E+02 -0.31565438047E+02  0.37048981624E+02  0.51100000000E-03 0. -1.
        -11    1    3    3    0    0  0.68205018795E+01  0.72228842608E+01 -0.48546588197E+00  0.99461037757E+01  0.51100000000E-03 0.  1.
        -12    1    3    3    0    0 -0.79067060284E+01 -0.26405869542E+02  0.33019751372E+02  0.43012671704E+02  0.00000000000E+00 0.  1.
</event>
<event>
 7    1  0.2681135E-015  0.9000774E+02  0.7816164E-02  0.1186339E+00
        -11   -1    0    0    0    0  0.00000000000E+00  0.00000000000E+00  0.45593999997E+02  0.45594000000E+02  0.51100000000E-03 0.  1.
         11   -1    0    0    0    0 -0.00000000000E+00 -0.00000000000E+00 -0.45593999997E+02  0.45594000000E+02  0.51100000000E-03 0. -1.
    9900012    2    1    2    0    0 -0.53136746100E+00  0.10186764190E+01 -0.27012786336E+00  0.90007736433E+02  0.89999997754E+02 0.  0.
         12    1    1    2    0    0  0.53136746100E+00 -0.10186764190E+01  0.27012786336E+00  0.11802635671E+01  0.00000000000E+00 0. -1.
         11    1    3    3    0    0 -0.33471743534E+02  0.26768700103E+01  0.12164799008E+02  0.35714221025E+02  0.51100000000E-03 0. -1.
        -11    1    3    3    0    0 -0.93909869500E+01 -0.16515642550E+01  0.16573738371E+01  0.96780777368E+01  0.51100000000E-03 0.  1.
        -12    1    3    3    0    0  0.42331363023E+02 -0.66293362082E-02 -0.14092300709E+02  0.44615437671E+02  0.00000000000E+00 0.  1.
</event>
<event>
 7    1  0.1971192E-015  0.9000778E+02  0.7816164E-02  0.1186339E+00
        -11   -1    0    0    0    0  0.00000000000E+00  0.00000000000E+00  0.45593999997E+02  0.45594000000E+02  0.51100000000E-03 0. -1.
         11   -1    0    0    0    0 -0.00000000000E+00 -0.00000000000E+00 -0.45593999997E+02  0.45594000000E+02  0.51100000000E-03 0.  1.
    9900012    2    1    2    0    0 -0.27460143276E+00  0.96009479457E+00 -0.62907510225E+00  0.90007778222E+02  0.90000040094E+02 0.  0.
         12    1    1    2    0    0  0.27460143276E+00 -0.96009479457E+00  0.62907510225E+00  0.11802217782E+01  0.00000000000E+00 0. -1.
         11    1    3    3    0    0  0.29611205718E+00  0.11073484363E+02 -0.11551434033E+01  0.11137508466E+02  0.51100000000E-03 0. -1.
        -11    1    3    3    0    0 -0.23764577367E+01 -0.25343319942E+02 -0.33191668416E+02  0.41828438527E+02  0.51100000000E-03 0.  1.
         12    1    3    3    0    0  0.18057442467E+01  0.15229930374E+02  0.33717736717E+02  0.37041831229E+02  0.00000000000E+00 0. -1.
</event>
<event>
 7    1  0.1971192E-015  0.9000779E+02  0.7816164E-02  0.1186339E+00
        -11   -1    0    0    0    0  0.00000000000E+00  0.00000000000E+00  0.45593999997E+02  0.45594000000E+02  0.51100000000E-03 0. -1.
         11   -1    0    0    0    0 -0.00000000000E+00 -0.00000000000E+00 -0.45593999997E+02  0.45594000000E+02  0.51100000000E-03 0.  1.
    9900012    2    1    2    0    0 -0.61933763532E+00 -0.84343073578E+00 -0.54583650645E+00  0.90007791542E+02  0.90000053590E+02 0.  0.
         12    1    1    2    0    0  0.61933763532E+00  0.84343073578E+00  0.54583650645E+00  0.11802084580E+01  0.00000000000E+00 0. -1.
         11    1    3    3    0    0  0.16271975719E+02 -0.19653136335E+02  0.26152208932E+02  0.36537118029E+02  0.51100000000E-03 0. -1.
        -11    1    3    3    0    0  0.11199484790E+02 -0.18525815317E+01 -0.81393753975E+01  0.13968176331E+02  0.51100000000E-03 0.  1.
        -12    1    3    3    0    0 -0.28090798144E+02  0.20662287131E+02 -0.18558670041E+02  0.39502497181E+02  0.00000000000E+00 0.  1.
</event>
<event>
 7    1  0.1971192E-015  0.9000770E+02  0.7816164E-02  0.1186339E+00
        -11   -1    0    0    0    0  0.00000000000E+00  0.00000000000E+00  0.45593999997E+02  0.45594000000E+02  0.51100000000E-03 0.  1.
         11   -1    0    0    0    0 -0.00000000000E+00 -0.00000000000E+00 -0.45593999997E+02  0.45594000000E+02  0.51100000000E-03 0. -1.
    9900012    2    1    2    0    0 -0.67826981557E+00  0.46011880344E+00  0.84932078333E+00  0.90007701288E+02  0.89999962145E+02 0.  0.
         12    1    1    2    0    0  0.67826981557E+00 -0.46011880344E+00 -0.84932078333E+00  0.11802987118E+01  0.00000000000E+00 0. -1.
         11    1    3    3    0    0  0.93020410467E+00  0.17830095565E+01 -0.83523142023E+01  0.85910159790E+01  0.51100000000E-03 0. -1.
        -11    1    3    3    0    0  0.10493344615E+02 -0.34432099089E+02 -0.14640916318E+02  0.38859183725E+02  0.51100000000E-03 0.  1.
         12    1    3    3    0    0 -0.12101818535E+02  0.33109208336E+02  0.23842551304E+02  0.42557501585E+02  0.00000000000E+00 0. -1.
</event>
<event>
 7    1  0.1971192E-015  0.9000778E+02  0.7816164E-02  0.1186339E+00
        -11   -1    0    0    0    0  0.00000000000E+00  0.00000000000E+00  0.45593999997E+02  0.45594000000E+02  0.51100000000E-03 0.  1.
         11   -1    0    0    0    0 -0.00000000000E+00 -0.00000000000E+00 -0.45593999997E+02  0.45594000000E+02  0.51100000000E-03 0. -1.
    9900012    2    1    2    0    0 -0.66273008684E+00  0.96053898915E+00  0.17625234246E+00  0.90007783407E+02  0.90000045348E+02 0.  0.
         12    1    1    2    0    0  0.66273008684E+00 -0.96053898915E+00 -0.17625234246E+00  0.11802165928E+01  0.00000000000E+00 0. -1.
         11    1    3    3    0    0 -0.32286114645E+02  0.41335405310E+01 -0.26689752551E+02  0.42093018990E+02  0.51100000000E-03 0. -1.
        -11    1    3    3    0    0  0.10167640871E+02  0.58204381043E+01 -0.82909433411E+00  0.11745033771E+02  0.51100000000E-03 0.  1.
        -12    1    3    3    0    0  0.21455743686E+02 -0.89934396461E+01  0.27695099227E+02  0.36169730646E+02  0.00000000000E+00 0.  1.
</event>
<event>
 7    1  0.1971192E-015  0.9000769E+02  0.7816164E-02  0.1186339E+00
        -11   -1    0    0    0    0  0.00000000000E+00  0.00000000000E+00  0.45593999997E+02  0.45594000000E+02  0.51100000000E-03 0. -1.
         11   -1    0    0    0    0 -0.00000000000E+00 -0.00000000000E+00 -0.45593999997E+02  0.45594000000E+02  0.51100000000E-03 0.  1.
    9900012    2    1    2    0    0 -0.17290656905E+00 -0.68083379699E+00 -0.94852943366E+00  0.90007686725E+02  0.89999947390E+02 0.  0.
         12    1    1    2    0    0  0.17290656905E+00  0.68083379699E+00  0.94852943366E+00  0.11803132750E+01  0.00000000000E+00 0. -1.
         11    1    3    3    0    0  0.90764400898E+01  0.73165848410E+00 -0.57637500666E+01  0.10776729742E+02  0.51100000000E-03 0. -1.
        -11    1    3    3    0    0 -0.81208772201E+01 -0.39830072348E+02  0.22933875707E+01  0.40714161380E+02  0.51100000000E-03 0.  1.
         12    1    3    3    0    0 -0.11284694388E+01  0.38417580067E+02  0.25218330622E+01  0.38516795603E+02  0.00000000000E+00 0. -1.
</event>
<event>
 7    1  0.1971192E-015  0.9000773E+02  0.7816164E-02  0.1186339E+00
        -11   -1    0    0    0    0  0.00000000000E+00  0.00000000000E+00  0.45593999997E+02  0.45594000000E+02  0.51100000000E-03 0.  1.
         11   -1    0    0    0    0 -0.00000000000E+00 -0.00000000000E+00 -0.45593999997E+02  0.45594000000E+02  0.51100000000E-03 0. -1.
    9900012    2    1    2    0    0  0.10019749501E+01  0.24088684660E-01  0.62329228388E+00  0.90007734209E+02  0.89999995501E+02 0.  0.
         12    1    1    2    0    0 -0.10019749501E+01 -0.24088684660E-01 -0.62329228388E+00  0.11802657907E+01  0.00000000000E+00 0. -1.
         11    1    3    3    0    0  0.32017386122E+02 -0.82178406212E+01 -0.23025571756E+02  0.40284275760E+02  0.51100000000E-03 0. -1.
        -11    1    3    3    0    0 -0.45593915955E+01 -0.18779094056E+01 -0.66288698500E+01  0.82617498877E+01  0.51100000000E-03 0.  1.
        -12    1    3    3    0    0 -0.26456019576E+02  0.10119838712E+02  0.30277733890E+02  0.41461708562E+02  0.00000000000E+00 0.  1.
</event>
<event>
 7    1  0.1971192E-015  0.9000770E+02  0.7816164E-02  0.1186339E+00
        -11   -1    0    0    0    0  0.00000000000E+00  0.00000000000E+00  0.45593999997E+02  0.45594000000E+02  0.51100000000E-03 0.  1.
         11   -1    0    0    0    0 -0.00000000000E+00 -0.00000000000E+00 -0.45593999997E+02  0.45594000000E+02  0.51100000000E-03 0. -1.
    9900012    2    1    2    0    0 -0.11552849837E+01  0.22863451690E+00 -0.78357637682E-01  0.90007704675E+02  0.89999965576E+02 0.  0.
         12    1    1    2    0    0  0.11552849837E+01 -0.22863451690E+00  0.78357637682E-01  0.11802953255E+01  0.00000000000E+00 0. -1.
         11    1    3    3    0    0 -0.55358642131E+01 -0.80382976211E+01  0.10551435579E+01  0.98169928909E+01  0.51100000000E-03 0. -1.
        -11    1    3    3    0    0 -0.90375655267E+01  0.26626248262E+02  0.30337179275E+02  0.41363983534E+02  0.51100000000E-03 0.  1.
         12    1    3    3    0    0  0.13418144756E+02 -0.18359316124E+02 -0.31470680471E+02  0.38826728249E+02  0.00000000000E+00 0. -1.
</event>
<event>
 7    1  0.1971192E-015  0.9000776E+02  0.7816164E-02  0.1186339E+00
        -11   -1    0    0    0    0  0.00000000000E+00  0.00000000000E+00  0.45593999997E+02  0.45594000000E+02  0.51100000000E-03 0.  1.
         11   -1    0    0    0    0 -0.00000000000E+00 -0.00000000000E+00 -0.45593999997E+02  0.45594000000E+02  0.51100000000E-03 0. -1.
    9900012    2    1    2    0    0 -0.11868824948E+00  0.10205209121E+01  0.58087417470E+00  0.90007760770E+02  0.90000022412E+02 0.  0.
         12    1    1    2    0    0  0.11868824948E+00 -0.10205209121E+01 -0.58087417470E+00  0.11802392297E+01  0.00000000000E+00 0. -1.
         11    1    3    3    0    0 -0.32768328624E+01  0.94588340281E+01  0.22660539567E+01  0.10263633644E+02  0.51100000000E-03 0. -1.
        -11    1    3    3    0    0 -0.12396672856E+02  0.29881342360E+02 -0.15855671141E+02  0.36027412157E+02  0.51100000000E-03 0.  1.
         12    1    3    3    0    0  0.15554817469E+02 -0.38319655476E+02  0.14170491359E+02  0.43716714969E+02  0.00000000000E+00 0. -1.
</event>
<event>
 7    1  0.1971192E-015  0.9000668E+02  0.7816164E-02  0.1186341E+00
        -11   -1    0    0    0    0  0.00000000000E+00  0.00000000000E+00  0.45593999997E+02  0.45594000000E+02  0.51100000000E-03 0.  1.
         11   -1    0    0    0    0 -0.00000000000E+00 -0.00000000000E+00 -0.45593999997E+02  0.45594000000E+02  0.51100000000E-03 0. -1.
    9900012    2    1    2    0    0  0.65428431439E+00  0.68930997339E+00  0.70162165775E+00  0.90006683296E+02  0.89998930710E+02 0.  0.
         12    1    1    2    0    0 -0.65428431439E+00 -0.68930997339E+00 -0.70162165775E+00  0.11813167036E+01  0.00000000000E+00 0. -1.
         11    1    3    3    0    0  0.30845727465E+02 -0.21619031910E+02 -0.19499942457E+02  0.42415671628E+02  0.51100000000E-03 0. -1.
        -11    1    3    3    0    0 -0.12024749132E+02 -0.14678903618E+01  0.12644537493E+01  0.12179825013E+02  0.51100000000E-03 0.  1.
        -12    1    3    3    0    0 -0.18166694019E+02  0.23776232245E+02  0.18937110365E+02  0.35411186656E+02  0.00000000000E+00 0.  1.
</event>
<event>
 7    1  0.1971192E-015  0.9000769E+02  0.7816164E-02  0.1186339E+00
        -11   -1    0    0    0    0  0.00000000000E+00  0.00000000000E+00  0.45593999997E+02  0.45594000000E+02  0.51100000000E-03 0.  1.
         11   -1    0    0    0    0 -0.00000000000E+00 -0.00000000000E+00 -0.45593999997E+02  0.45594000000E+02  0.51100000000E-03 0. -1.
    9900012    2    1    2    0    0  0.26168179354E+00 -0.59789245543E+00  0.98345380096E+00  0.90007688970E+02  0.89999949664E+02 0.  0.
         12    1    1    2    0    0 -0.26168179354E+00  0.59789245543E+00 -0.98345380096E+00  0.11803110302E+01  0.00000000000E+00 0. -1.
         11    1    3    3    0    0  0.87885723022E+01 -0.16113324832E+01 -0.10780910564E+01  0.89998708918E+01  0.51100000000E-03 0. -1.
        -11    1    3    3    0    0  0.13330351824E+02  0.36522207317E+02 -0.30532576242E+01  0.38998619071E+02  0.51100000000E-03 0.  1.
         12    1    3    3    0    0 -0.21857242333E+02 -0.35508767289E+02  0.51148024816E+01  0.42009199007E+02  0.00000000000E+00 0. -1.
</event>
<event>
 7    1  0.1971192E-015  0.9000763E+02  0.7816164E-02  0.1186339E+00
        -11   -1    0    0    0    0  0.00000000000E+00  0.00000000000E+00  0.45593999997E+02  0.45594000000E+02  0.51100000000E-03 0.  1.
         11   -1    0    0    0    0 -0.00000000000E+00 -0.00000000000E+00 -0.45593999997E+02  0.45594000000E+02  0.51100000000E-03 0. -1.
    9900012    2    1    2    0    0  0.10606482730E+01  0.51159598156E+00  0.81028898034E-01  0.90007631037E+02  0.89999890966E+02 0.  0.
         12    1    1    2    0    0 -0.10606482730E+01 -0.51159598156E+00 -0.81028898034E-01  0.11803689633E+01  0.00000000000E+00 0. -1.
         11    1    3    3    0    0 -0.12212796202E+01 -0.41685877709E+01  0.80855837303E+01  0.91785245239E+01  0.51100000000E-03 0. -1.
        -11    1    3    3    0    0  0.12080078631E+02 -0.33064214194E+02  0.11755641447E+02  0.37112877362E+02  0.51100000000E-03 0.  1.
         12    1    3    3    0    0 -0.97981507378E+01  0.37744397946E+02 -0.19760196279E+02  0.43716229151E+02  0.00000000000E+00 0. -1.
</event>
<event>
 7    1  0.1971192E-015  0.9000778E+02  0.7816164E-02  0.1186339E+00
        -11   -1    0    0    0    0  0.00000000000E+00  0.00000000000E+00  0.45593999997E+02  0.45594000000E+02  0.51100000000E-03 0. -1.
         11   -1    0    0    0    0 -0.00000000000E+00 -0.00000000000E+00 -0.45593999997E+02  0.45594000000E+02  0.51100000000E-03 0.  1.
    9900012    2    1    2    0    0 -0.75199413176E+00 -0.29700502937E+00 -0.85977251077E+00  0.90007781405E+02  0.90000043320E+02 0.  0.
         12    1    1    2    0    0  0.75199413176E+00  0.29700502937E+00  0.85977251077E+00  0.11802185950E+01  0.00000000000E+00 0. -1.
         11    1    3    3    0    0 -0.86616623136E+01 -0.11397071351E+01  0.51220217682E+01  0.10127113786E+02  0.51100000000E-03 0. -1.
        -11    1    3    3    0    0 -0.31282082122E+02  0.13247479988E+00 -0.21246278833E+02  0.37815216196E+02  0.51100000000E-03 0.  1.
         12    1    3    3    0    0  0.39191750303E+02  0.71022730581E+00  0.15264484554E+02  0.42065451422E+02  0.00000000000E+00 0. -1.
</event>
<event>
 7    1  0.1971192E-015  0.9000796E+02  0.7816164E-02  0.1186339E+00
        -11   -1    0    0    0    0  0.00000000000E+00  0.00000000000E+00  0.45593999997E+02  0.45594000000E+02  0.51100000000E-03 0. -1.
         11   -1    0    0    0    0 -0.00000000000E+00 -0.00000000000E+00 -0.45593999997E+02  0.45594000000E+02  0.51100000000E-03 0.  1.
    9900012    2    1    2    0    0 -0.44095434991E-01 -0.15287786645E+00 -0.11692628532E+01  0.90007961158E+02  0.90000225445E+02 0.  0.
         12    1    1    2    0    0  0.44095434991E-01  0.15287786645E+00  0.11692628532E+01  0.11800388422E+01  0.00000000000E+00 0. -1.
         11    1    3    3    0    0  0.17877163320E+02 -0.33110643079E+02 -0.14688579030E+02  0.40393836258E+02  0.51100000000E-03 0. -1.
        -11    1    3    3    0    0 -0.56899798429E+01 -0.49646032886E+01  0.45119618803E-01  0.75515026629E+01  0.51100000000E-03 0.  1.
        -12    1    3    3    0    0 -0.12231278912E+02  0.37922368501E+02  0.13474196558E+02  0.42062622237E+02  0.00000000000E+00 0.  1.
</event>
<event>
 7    1  0.1971192E-015  0.9000777E+02  0.7816164E-02  0.1186339E+00
        -11   -1    0    0    0    0  0.00000000000E+00  0.00000000000E+00  0.45593999997E+02  0.45594000000E+02  0.51100000000E-03 0.  1.
         11   -1    0    0    0    0 -0.00000000000E+00 -0.00000000000E+00 -0.45593999997E+02  0.45594000000E+02  0.51100000000E-03 0. -1.
    9900012    2    1    2    0    0 -0.16915207342E-01 -0.94826832438E-01  0.11762966888E+01  0.90007766060E+02  0.90000027772E+02 0.  0.
         12    1    1    2    0    0  0.16915207342E-01  0.94826832438E-01 -0.11762966888E+01  0.11802339397E+01  0.00000000000E+00 0. -1.
         11    1    3    3    0    0 -0.60072958776E+01  0.42719263919E+01  0.37676724440E+01  0.82784246548E+01  0.51100000000E-03 0. -1.
        -11    1    3    3    0    0  0.17885325072E+02 -0.20339463265E+02  0.31933221261E+02  0.41872535619E+02  0.51100000000E-03 0.  1.
         12    1    3    3    0    0 -0.11894944401E+02  0.15972710040E+02 -0.34524597016E+02  0.39856805786E+02  0.00000000000E+00 0. -1.
</event>
<event>
 7    1  0.1971192E-015  0.9000768E+02  0.7816164E-02  0.1186339E+00
        -11   -1    0    0    0    0  0.00000000000E+00  0.00000000000E+00  0.45593999997E+02  0.45594000000E+02  0.51100000000E-03 0.  1.
         11   -1    0    0    0    0 -0.00000000000E+00 -0.00000000000E+00 -0.45593999997E+02  0.45594000000E+02  0.51100000000E-03 0. -1.
    9900012    2    1    2    0    0 -0.10500596904E+01 -0.45684377430E+00  0.28605259754E+00  0.90007678994E+02  0.89999939557E+02 0.  0.
         12    1    1    2    0    0  0.10500596904E+01  0.45684377430E+00 -0.28605259754E+00  0.11803210055E+01  0.00000000000E+00 0. -1.
         11    1    3    3    0    0  0.29461689950E+01  0.86835041525E+01 -0.22036816188E+01  0.94307671508E+01  0.51100000000E-03 0. -1.
        -11    1    3    3    0    0 -0.16141996448E+02  0.20268802797E+02  0.29196175641E+02  0.39035946107E+02  0.51100000000E-03 0.  1.
         12    1    3    3    0    0  0.12145767763E+02 -0.29409150723E+02 -0.26706441424E+02  0.41540965737E+02  0.00000000000E+00 0. -1.
</event>
<event>
 7    1  0.1971192E-015  0.9000779E+02  0.7816164E-02  0.1186339E+00
        -11   -1    0    0    0    0  0.00000000000E+00  0.00000000000E+00  0.45593999997E+02  0.45594000000E+02  0.51100000000E-03 0.  1.
         11   -1    0    0    0    0 -0.00000000000E+00 -0.00000000000E+00 -0.45593999997E+02  0.45594000000E+02  0.51100000000E-03 0. -1.
    9900012    2    1    2    0    0 -0.68078726396E-01  0.11552905443E+01  0.23143213730E+00  0.90007791633E+02  0.90000053683E+02 0.  0.
         12    1    1    2    0    0  0.68078726396E-01 -0.11552905443E+01 -0.23143213730E+00  0.11802083667E+01  0.00000000000E+00 0. -1.
         11    1    3    3    0    0  0.14272761486E+01  0.12412008179E+02 -0.36671034389E+02  0.38740932199E+02  0.51100000000E-03 0. -1.
        -11    1    3    3    0    0 -0.52099891567E+01  0.19727002295E+01 -0.48032827548E+01  0.73557500428E+01  0.51100000000E-03 0.  1.
        -12    1    3    3    0    0  0.37146342817E+01 -0.13229417864E+02  0.41705749281E+02  0.43911109391E+02  0.00000000000E+00 0.  1.
</event>
<event>
 7    1  0.1971192E-015  0.9000775E+02  0.7816164E-02  0.1186339E+00
        -11   -1    0    0    0    0  0.00000000000E+00  0.00000000000E+00  0.45593999997E+02  0.45594000000E+02  0.51100000000E-03 0. -1.
         11   -1    0    0    0    0 -0.00000000000E+00 -0.00000000000E+00 -0.45593999997E+02  0.45594000000E+02  0.51100000000E-03 0.  1.
    9900012    2    1    2    0    0 -0.89992922810E-01 -0.11252656395E+01 -0.34449707255E+00  0.90007745909E+02  0.90000007355E+02 0.  0.
         12    1    1    2    0    0  0.89992922810E-01  0.11252656395E+01  0.34449707255E+00  0.11802540906E+01  0.00000000000E+00 0. -1.
         11    1    3    3    0    0  0.23655338756E+01 -0.18977665942E+01 -0.73918117522E+01  0.79897527999E+01  0.51100000000E-03 0. -1.
        -11    1    3    3    0    0 -0.32454887659E+01  0.87270918223E+01 -0.36537994106E+02  0.37705707029E+02  0.51100000000E-03 0.  1.
         12    1    3    3    0    0  0.78996196750E+00 -0.79545908676E+01  0.43585308785E+02  0.44312286081E+02  0.00000000000E+00 0. -1.
</event>
<event>
 7    1  0.1971192E-015  0.9000782E+02  0.7816164E-02  0.1186339E+00
        -11   -1    0    0    0    0  0.00000000000E+00  0.00000000000E+00  0.45593999997E+02  0.45594000000E+02  0.51100000000E-03 0. -1.
         11   -1    0    0    0    0 -0.00000000000E+00 -0.00000000000E+00 -0.45593999997E+02  0.45594000000E+02  0.51100000000E-03 0.  1.
    9900012    2    1    2    0    0 -0.10101670480E+01 -0.26105724999E+00 -0.55158563497E+00  0.90007815665E+02  0.90000078031E+02 0.  0.
         12    1    1    2    0    0  0.10101670480E+01  0.26105724999E+00  0.55158563497E+00  0.11801843353E+01  0.00000000000E+00 0. -1.
         11    1    3    3    0    0  0.12609808471E+02  0.10421502533E+02  0.12886275374E+01  0.16409617482E+02  0.51100000000E-03 0. -1.
        -11    1    3    3    0    0  0.18747032827E+02  0.19712112773E+02 -0.89365892625E+01  0.28633568721E+02  0.51100000000E-03 0.  1.
         12    1    3    3    0    0 -0.32367008346E+02 -0.30394672556E+02  0.70963760901E+01  0.44964629462E+02  0.00000000000E+00 0. -1.
</event>
<event>
 7    1  0.1971192E-015  0.9000779E+02  0.7816164E-02  0.1186339E+00
        -11   -1    0    0    0    0  0.00000000000E+00  0.00000000000E+00  0.45593999997E+02  0.45594000000E+02  0.51100000000E-03 0.  1.
         11   -1    0    0    0    0 -0.00000000000E+00 -0.00000000000E+00 -0.45593999997E+02  0.45594000000E+02  0.51100000000E-03 0. -1.
    9900012    2    1    2    0    0 -0.62528418328E+00  0.19928500580E+00 -0.98092088741E+00  0.90007787896E+02  0.90000049896E+02 0.  0.
         12    1    1    2    0    0  0.62528418328E+00 -0.19928500580E+00  0.98092088741E+00  0.11802121041E+01  0.00000000000E+00 0. -1.
         11    1    3    3    0    0 -0.33916478301E+02  0.70352342833E+01  0.11951617060E+02  0.36642368542E+02  0.51100000000E-03 0. -1.
        -11    1    3    3    0    0 -0.74811181430E+01  0.53747334961E+01 -0.24564598980E+01  0.95335766801E+01  0.51100000000E-03 0.  1.
        -12    1    3    3    0    0  0.40772312261E+02 -0.12210682774E+02 -0.10476078050E+02  0.43831842674E+02  0.00000000000E+00 0.  1.
</event>
<event>
 7    1  0.1971192E-015  0.9000780E+02  0.7816164E-02  0.1186339E+00
        -11   -1    0    0    0    0  0.00000000000E+00  0.00000000000E+00  0.45593999997E+02  0.45594000000E+02  0.51100000000E-03 0. -1.
         11   -1    0    0    0    0 -0.00000000000E+00 -0.00000000000E+00 -0.45593999997E+02  0.45594000000E+02  0.51100000000E-03 0.  1.
    9900012    2    1    2    0    0 -0.30226679470E-01 -0.93765062128E+00 -0.71607162252E+00  0.90007804716E+02  0.90000066938E+02 0.  0.
         12    1    1    2    0    0  0.30226679470E-01  0.93765062128E+00  0.71607162252E+00  0.11801952840E+01  0.00000000000E+00 0. -1.
         11    1    3    3    0    0  0.25727200930E+02  0.30777321637E+02  0.73153926285E-02  0.40113993177E+02  0.51100000000E-03 0. -1.
        -11    1    3    3    0    0 -0.52293189746E+01  0.11246592621E+01 -0.88327294856E+01  0.10326071171E+02  0.51100000000E-03 0.  1.
        -12    1    3    3    0    0 -0.20528108635E+02 -0.32839631521E+02  0.81093424704E+01  0.39567740368E+02  0.00000000000E+00 0.  1.
</event>
<event>
 7    1  0.1971192E-015  0.9000769E+02  0.7816164E-02  0.1186339E+00
        -11   -1    0    0    0    0  0.00000000000E+00  0.00000000000E+00  0.45593999997E+02  0.45594000000E+02  0.51100000000E-03 0. -1.
         11   -1    0    0    0    0 -0.00000000000E+00 -0.00000000000E+00 -0.45593999997E+02  0.45594000000E+02  0.51100000000E-03 0.  1.
    9900012    2    1    2    0    0  0.61046061037E+00 -0.91793545553E+00  0.42172562082E+00  0.90007694888E+02  0.89999955661E+02 0.  0.
         12    1    1    2    0    0 -0.61046061037E+00  0.91793545553E+00 -0.42172562082E+00  0.11803051116E+01  0.00000000000E+00 0. -1.
         11    1    3    3    0    0 -0.87027763029E+01 -0.35681140500E+02  0.23528613696E+02  0.43617402095E+02  0.51100000000E-03 0. -1.
        -11    1    3    3    0    0 -0.53088579471E+01  0.64909188248E+01 -0.43836962086E+01  0.94621769484E+01  0.51100000000E-03 0.  1.
        -12    1    3    3    0    0  0.14622094860E+02  0.28272286220E+02 -0.18723191867E+02  0.36928115845E+02  0.00000000000E+00 0.  1.
</event>
<event>
 7    1  0.1971192E-015  0.9000774E+02  0.7816164E-02  0.1186339E+00
        -11   -1    0    0    0    0  0.00000000000E+00  0.00000000000E+00  0.45593999997E+02  0.45594000000E+02  0.51100000000E-03 0.  1.
         11   -1    0    0    0    0 -0.00000000000E+00 -0.00000000000E+00 -0.45593999997E+02  0.45594000000E+02  0.51100000000E-03 0. -1.
    9900012    2    1    2    0    0 -0.10559541148E+01  0.35377924911E+00  0.39090805064E+00  0.90007742421E+02  0.90000003821E+02 0.  0.
         12    1    1    2    0    0  0.10559541148E+01 -0.35377924911E+00 -0.39090805064E+00  0.11802575794E+01  0.00000000000E+00 0. -1.
         11    1    3    3    0    0  0.44293328426E+01 -0.36152178903E+02 -0.44206791746E+01  0.36689800129E+02  0.51100000000E-03 0. -1.
        -11    1    3    3    0    0  0.52566358389E+01 -0.24700787763E+01  0.10979391532E+02  0.12420972111E+02  0.51100000000E-03 0.  1.
        -12    1    3    3    0    0 -0.10741922796E+02  0.38976036928E+02 -0.61678043070E+01  0.40896970181E+02  0.00000000000E+00 0.  1.
</event>
<event>
 7    1  0.1971192E-015  0.9000774E+02  0.7816164E-02  0.1186339E+00
        -11   -1    0    0    0    0  0.00000000000E+00  0.00000000000E+00  0.45593999997E+02  0.45594000000E+02  0.51100000000E-03 0.  1.
         11   -1    0    0    0    0 -0.00000000000E+00 -0.00000000000E+00 -0.45593999997E+02  0.45594000000E+02  0.51100000000E-03 0. -1.
    9900012    2    1    2    0    0 -0.67878815439E+00 -0.93489414851E+00  0.24130983017E+00  0.90007741189E+02  0.90000002572E+02 0.  0.
         12    1    1    2    0    0  0.67878815439E+00  0.93489414851E+00 -0.24130983017E+00  0.11802588113E+01  0.00000000000E+00 0. -1.
         11    1    3    3    0    0  0.65936116886E+01 -0.58292401230E+01 -0.95240585597E+00  0.88522783896E+01  0.51100000000E-03 0. -1.
        -11    1    3    3    0    0  0.89325085361E+01 -0.25517502040E+02  0.26919349489E+02  0.38152116537E+02  0.51100000000E-03 0.  1.
         12    1    3    3    0    0 -0.16204908379E+02  0.30411848014E+02 -0.25725633802E+02  0.43003346262E+02  0.00000000000E+00 0. -1.
</event>
<event>
 7    1  0.1971192E-015  0.9000772E+02  0.7816164E-02  0.1186339E+00
        -11   -1    0    0    0    0  0.00000000000E+00  0.00000000000E+00  0.45593999997E+02  0.45594000000E+02  0.51100000000E-03 0.  1.
         11   -1    0    0    0    0 -0.00000000000E+00 -0.00000000000E+00 -0.45593999997E+02  0.45594000000E+02  0.51100000000E-03 0. -1.
    9900012    2    1    2    0    0  0.92578099631E+00  0.60708330134E+00  0.40920905576E+00  0.90007715018E+02  0.89999976056E+02 0.  0.
         12    1    1    2    0    0 -0.92578099631E+00 -0.60708330134E+00 -0.40920905576E+00  0.11802849822E+01  0.00000000000E+00 0. -1.
         11    1    3    3    0    0 -0.87324861687E+01  0.67129913446E+01 -0.20460020686E+01  0.11202976935E+02  0.51100000000E-03 0. -1.
        -11    1    3    3    0    0 -0.52617765037E+01 -0.40167875081E+01  0.38852640755E+02  0.39412543280E+02  0.51100000000E-03 0.  1.
         12    1    3    3    0    0  0.14920043669E+02 -0.20891205351E+01 -0.36397429631E+02  0.39392194803E+02  0.00000000000E+00 0. -1.
</event>
<event>
 7    1  0.1971192E-015  0.9000782E+02  0.7816164E-02  0.1186339E+00
        -11   -1    0    0    0    0  0.00000000000E+00  0.00000000000E+00  0.45593999997E+02  0.45594000000E+02  0.51100000000E-03 0.  1.
         11   -1    0    0    0    0 -0.00000000000E+00 -0.00000000000E+00 -0.45593999997E+02  0.45594000000E+02  0.51100000000E-03 0. -1.
    9900012    2    1    2    0    0 -0.34131681608E+00 -0.10687800646E+01 -0.36612395637E+00  0.90007815800E+02  0.90000078168E+02 0.  0.
         12    1    1    2    0    0  0.34131681608E+00  0.10687800646E+01  0.36612395637E+00  0.11801842004E+01  0.00000000000E+00 0. -1.
         11    1    3    3    0    0 -0.21697904945E+02  0.11695433114E+02 -0.17381403553E+02  0.30161157545E+02  0.51100000000E-03 0. -1.
        -11    1    3    3    0    0 -0.32486697989E+01 -0.27832936804E+02  0.12335280778E+02  0.30616749971E+02  0.51100000000E-03 0.  1.
        -12    1    3    3    0    0  0.24605257927E+02  0.15068723626E+02  0.46799988180E+01  0.29229908284E+02  0.00000000000E+00 0.  1.
</event>
<event>
 7    1  0.1971192E-015  0.9000766E+02  0.7816164E-02  0.1186339E+00
        -11   -1    0    0    0    0  0.00000000000E+00  0.00000000000E+00  0.45593999997E+02  0.45594000000E+02  0.51100000000E-03 0. -1.
         11   -1    0    0    0    0 -0.00000000000E+00 -0.00000000000E+00 -0.45593999997E+02  0.45594000000E+02  0.51100000000E-03 0.  1.
    9900012    2    1    2    0    0  0.23347353199E+00 -0.82475164059E+00 -0.81146394485E+00  0.90007661535E+02  0.89999921867E+02 0.  0.
         12    1    1    2    0    0 -0.23347353199E+00  0.82475164059E+00  0.81146394485E+00  0.11803384653E+01  0.00000000000E+00 0. -1.
         11    1    3    3    0    0 -0.59579158034E+01  0.73596994770E+01  0.45504005751E+01  0.10505621484E+02  0.51100000000E-03 0. -1.
        -11    1    3    3    0    0 -0.10061801738E+02 -0.20647991366E+02 -0.35967067620E+02  0.42675629522E+02  0.51100000000E-03 0.  1.
         12    1    3    3    0    0  0.16253191074E+02  0.12463540248E+02  0.30605203100E+02  0.36826410528E+02  0.00000000000E+00 0. -1.
</event>
<event>
 7    1  0.1971192E-015  0.9000765E+02  0.7816164E-02  0.1186339E+00
        -11   -1    0    0    0    0  0.00000000000E+00  0.00000000000E+00  0.45593999997E+02  0.45594000000E+02  0.51100000000E-03 0. -1.
         11   -1    0    0    0    0 -0.00000000000E+00 -0.00000000000E+00 -0.45593999997E+02  0.45594000000E+02  0.51100000000E-03 0.  1.
    9900012    2    1    2    0    0  0.10000935022E+01 -0.22700834656E+00  0.58439272268E+00  0.90007646385E+02  0.89999906517E+02 0.  0.
         12    1    1    2    0    0 -0.10000935022E+01  0.22700834656E+00 -0.58439272268E+00  0.11803536152E+01  0.00000000000E+00 0. -1.
         11    1    3    3    0    0  0.20672177238E+02  0.20574960862E+01  0.94690233667E+01  0.22830562973E+02  0.51100000000E-03 0. -1.
        -11    1    3    3    0    0 -0.88088738402E+01 -0.19480323642E+02 -0.30661224031E+02  0.37379003824E+02  0.51100000000E-03 0.  1.
         12    1    3    3    0    0 -0.10863209896E+02  0.17195819210E+02  0.21776593387E+02  0.29798079587E+02  0.00000000000E+00 0. -1.
</event>
<event>
 7    1  0.1971192E-015  0.9000818E+02  0.7816164E-02  0.1186338E+00
        -11   -1    0    0    0    0  0.00000000000E+00  0.00000000000E+00  0.45593999997E+02  0.45594000000E+02  0.51100000000E-03 0. -1.
         11   -1    0    0    0    0 -0.00000000000E+00 -0.00000000000E+00 -0.45593999997E+02  0.45594000000E+02  0.51100000000E-03 0.  1.
    9900012    2    1    2    0    0 -0.53459036538E+00  0.10466497686E+01 -0.10346675657E+00  0.90008183079E+02  0.90000450295E+02 0.  0.
         12    1    1    2    0    0  0.53459036538E+00 -0.10466497686E+01  0.10346675657E+00  0.11798169208E+01  0.00000000000E+00 0. -1.
         11    1    3    3    0    0 -0.26583160753E+01 -0.81153489508E+01 -0.56883253037E+01  0.10260729895E+02  0.51100000000E-03 0. -1.
        -11    1    3    3    0    0  0.19417481532E+02 -0.32724530527E+01 -0.31402360498E+02  0.37065560607E+02  0.51100000000E-03 0.  1.
         12    1    3    3    0    0 -0.17293755823E+02  0.12434451772E+02  0.36987219045E+02  0.42681892577E+02  0.00000000000E+00 0. -1.
</event>
<event>
 7    1  0.1971192E-015  0.9000773E+02  0.7816164E-02  0.1186339E+00
        -11   -1    0    0    0    0  0.00000000000E+00  0.00000000000E+00  0.45593999997E+02  0.45594000000E+02  0.51100000000E-03 0.  1.
         11   -1    0    0    0    0 -0.00000000000E+00 -0.00000000000E+00 -0.45593999997E+02  0.45594000000E+02  0.51100000000E-03 0. -1.
    9900012    2    1    2    0    0  0.83332921669E+00  0.51615892844E+00  0.65740398304E+00  0.90007729853E+02  0.89999991087E+02 0.  0.
         12    1    1    2    0    0 -0.83332921669E+00 -0.51615892844E+00 -0.65740398304E+00  0.11802701469E+01  0.00000000000E+00 0. -1.
         11    1    3    3    0    0 -0.64080391127E+01  0.20747465987E+02 -0.33428901332E+02  0.39862410297E+02  0.51100000000E-03 0. -1.
        -11    1    3    3    0    0  0.42911845370E+01 -0.46099460757E+01 -0.49406081361E+01  0.80047158955E+01  0.51100000000E-03 0.  1.
        -12    1    3    3    0    0  0.29501837924E+01 -0.15621360983E+02  0.39026913451E+02  0.42140603661E+02  0.00000000000E+00 0.  1.
</event>
<event>
 7    1  0.1971192E-015  0.9000802E+02  0.7816164E-02  0.1186338E+00
        -11   -1    0    0    0    0  0.00000000000E+00  0.00000000000E+00  0.45593999997E+02  0.45594000000E+02  0.51100000000E-03 0. -1.
         11   -1    0    0    0    0 -0.00000000000E+00 -0.00000000000E+00 -0.45593999997E+02  0.45594000000E+02  0.51100000000E-03 0.  1.
    9900012    2    1    2    0    0 -0.10416544056E+01  0.21884862614E+00 -0.50932590285E+00  0.90008020552E+02  0.90000285623E+02 0.  0.
         12    1    1    2    0    0  0.10416544056E+01 -0.21884862614E+00  0.50932590285E+00  0.11799794478E+01  0.00000000000E+00 0. -1.
         11    1    3    3    0    0 -0.11362765776E+02 -0.30553517342E+01  0.39088150130E+02  0.40820719018E+02  0.51100000000E-03 0. -1.
        -11    1    3    3    0    0 -0.30691312566E+01  0.82572071142E+01 -0.20941123200E+01  0.90546310067E+01  0.51100000000E-03 0.  1.
        -12    1    3    3    0    0  0.13390242627E+02 -0.49830067538E+01 -0.37503363713E+02  0.40132670528E+02  0.00000000000E+00 0.  1.
</event>
<event>
 7    1  0.1971192E-015  0.9000749E+02  0.7816164E-02  0.1186340E+00
        -11   -1    0    0    0    0  0.00000000000E+00  0.00000000000E+00  0.45593999997E+02  0.45594000000E+02  0.51100000000E-03 0.  1.
         11   -1    0    0    0    0 -0.00000000000E+00 -0.00000000000E+00 -0.45593999997E+02  0.45594000000E+02  0.51100000000E-03 0. -1.
    9900012    2    1    2    0    0  0.23499418860E+00  0.76669109550E+00  0.86635458285E+00  0.90007488345E+02  0.89999746391E+02 0.  0.
         12    1    1    2    0    0 -0.23499418860E+00 -0.76669109550E+00 -0.86635458285E+00  0.11805116551E+01  0.00000000000E+00 0. -1.
         11    1    3    3    0    0  0.17184260448E+02 -0.18919171178E+02 -0.28363621120E+02  0.38180215406E+02  0.51100000000E-03 0. -1.
        -11    1    3    3    0    0  0.80068224649E+01  0.76438714096E+01 -0.63445677303E+00  0.11087854245E+02  0.51100000000E-03 0.  1.
        -12    1    3    3    0    0 -0.24956088724E+02  0.12041990864E+02  0.29864432476E+02  0.40739418693E+02  0.00000000000E+00 0.  1.
</event>
<event>
 7    1  0.1971192E-015  0.9000775E+02  0.7816164E-02  0.1186339E+00
        -11   -1    0    0    0    0  0.00000000000E+00  0.00000000000E+00  0.45593999997E+02  0.45594000000E+02  0.51100000000E-03 0.  1.
         11   -1    0    0    0    0 -0.00000000000E+00 -0.00000000000E+00 -0.45593999997E+02  0.45594000000E+02  0.51100000000E-03 0. -1.
    9900012    2    1    2    0    0 -0.97009235198E+00 -0.52551544501E+00 -0.41921181611E+00  0.90007752483E+02  0.90000014016E+02 0.  0.
         12    1    1    2    0    0  0.97009235198E+00  0.52551544501E+00  0.41921181611E+00  0.11802475169E+01  0.00000000000E+00 0. -1.
         11    1    3    3    0    0  0.38132370885E+00 -0.15508758599E+02 -0.33376319589E+02  0.36805511960E+02  0.51100000000E-03 0. -1.
        -11    1    3    3    0    0  0.24761494902E+01 -0.39227925957E+01 -0.72501727310E+01  0.86072424700E+01  0.51100000000E-03 0.  1.
        -12    1    3    3    0    0 -0.38275655511E+01  0.18906035749E+02  0.40207280504E+02  0.44594998053E+02  0.00000000000E+00 0.  1.
</event>
<event>
 7    1  0.1971192E-015  0.9000775E+02  0.7816164E-02  0.1186339E+00
        -11   -1    0    0    0    0  0.00000000000E+00  0.00000000000E+00  0.45593999997E+02  0.45594000000E+02  0.51100000000E-03 0. -1.
         11   -1    0    0    0    0 -0.00000000000E+00 -0.00000000000E+00 -0.45593999997E+02  0.45594000000E+02  0.51100000000E-03 0.  1.
    9900012    2    1    2    0    0 -0.20373028281E+00 -0.56544654909E+00 -0.10157516082E+01  0.90007751231E+02  0.90000012747E+02 0.  0.
         12    1    1    2    0    0  0.20373028281E+00  0.56544654909E+00  0.10157516082E+01  0.11802487694E+01  0.00000000000E+00 0. -1.
         11    1    3    3    0    0  0.21187652470E+02  0.16539977330E+02  0.14715673562E+02  0.30643735345E+02  0.51100000000E-03 0. -1.
        -11    1    3    3    0    0  0.14966666086E+02  0.15409172128E+01 -0.10089788645E+02  0.18115721204E+02  0.51100000000E-03 0.  1.
        -12    1    3    3    0    0 -0.36358048839E+02 -0.18646341091E+02 -0.56416365256E+01  0.41248294682E+02  0.00000000000E+00 0.  1.
</event>
<event>
 7    1  0.1971192E-015  0.9000775E+02  0.7816164E-02  0.1186339E+00
        -11   -1    0    0    0    0  0.00000000000E+00  0.00000000000E+00  0.45593999997E+02  0.45594000000E+02  0.51100000000E-03 0. -1.
         11   -1    0    0    0    0 -0.00000000000E+00 -0.00000000000E+00 -0.45593999997E+02  0.45594000000E+02  0.51100000000E-03 0.  1.
    9900012    2    1    2    0    0 -0.80082123787E+00 -0.76410881538E+00  0.40963967953E+00  0.90007753583E+02  0.90000015131E+02 0.  0.
         12    1    1    2    0    0  0.80082123787E+00  0.76410881538E+00 -0.40963967953E+00  0.11802464166E+01  0.00000000000E+00 0. -1.
         11    1    3    3    0    0 -0.18730927354E+02  0.13626216327E+02  0.20324339118E+02  0.30815583262E+02  0.51100000000E-03 0. -1.
        -11    1    3    3    0    0 -0.93202030200E+01 -0.18465922688E+02  0.58220735756E+01  0.21488439358E+02  0.51100000000E-03 0.  1.
        -12    1    3    3    0    0  0.27250309136E+02  0.40755975455E+01 -0.25736773014E+02  0.37703730963E+02  0.00000000000E+00 0.  1.
</event>
<event>
 7    1  0.1971192E-015  0.9000773E+02  0.7816164E-02  0.1186339E+00
        -11   -1    0    0    0    0  0.00000000000E+00  0.00000000000E+00  0.45593999997E+02  0.45594000000E+02  0.51100000000E-03 0.  1.
         11   -1    0    0    0    0 -0.00000000000E+00 -0.00000000000E+00 -0.45593999997E+02  0.45594000000E+02  0.51100000000E-03 0. -1.
    9900012    2    1    2    0    0 -0.69134636176E+00  0.65848581710E+00  0.69388066854E+00  0.90007731494E+02  0.89999992750E+02 0.  0.
         12    1    1    2    0    0  0.69134636176E+00 -0.65848581710E+00 -0.69388066854E+00  0.11802685056E+01  0.00000000000E+00 0. -1.
         11    1    3    3    0    0  0.90527730657E+01  0.30244897750E+02 -0.26457740840E+02  0.41191244102E+02  0.51100000000E-03 0. -1.
        -11    1    3    3    0    0 -0.12320434371E+01 -0.73675987761E+01 -0.48740719101E+01  0.89194181426E+01  0.51100000000E-03 0.  1.
        -12    1    3    3    0    0 -0.85120759903E+01 -0.22218813156E+02  0.32025693419E+02  0.39897069250E+02  0.00000000000E+00 0.  1.
</event>
<event>
 7    1  0.1971192E-015  0.9000775E+02  0.7816164E-02  0.1186339E+00
        -11   -1    0    0    0    0  0.00000000000E+00  0.00000000000E+00  0.45593999997E+02  0.45594000000E+02  0.51100000000E-03 0. -1.
         11   -1    0    0    0    0 -0.00000000000E+00 -0.00000000000E+00 -0.45593999997E+02  0.45594000000E+02  0.51100000000E-03 0.  1.
    9900012    2    1    2    0    0  0.12931636812E+00 -0.10802128380E+01  0.45762289863E+00  0.90007745275E+02  0.90000006713E+02 0.  0.
         12    1    1    2    0    0 -0.12931636812E+00  0.10802128380E+01 -0.45762289863E+00  0.11802547249E+01  0.00000000000E+00 0. -1.
         11    1    3    3    0    0  0.75707739887E+01 -0.38809137151E+01 -0.42735770585E+00  0.85182595008E+01  0.51100000000E-03 0. -1.
        -11    1    3    3    0    0 -0.53383762066E+01  0.10735143645E+02 -0.38983135302E+02  0.40785124836E+02  0.51100000000E-03 0.  1.
         12    1    3    3    0    0 -0.21030814140E+01 -0.79344427674E+01  0.39868115907E+02  0.40704360939E+02  0.00000000000E+00 0. -1.
</event>
<event>
 7    1  0.1971192E-015  0.9000773E+02  0.7816164E-02  0.1186339E+00
        -11   -1    0    0    0    0  0.00000000000E+00  0.00000000000E+00  0.45593999997E+02  0.45594000000E+02  0.51100000000E-03 0. -1.
         11   -1    0    0    0    0 -0.00000000000E+00 -0.00000000000E+00 -0.45593999997E+02  0.45594000000E+02  0.51100000000E-03 0.  1.
    9900012    2    1    2    0    0 -0.77344787795E+00  0.82447921408E+00  0.33918043243E+00  0.90007732674E+02  0.89999993946E+02 0.  0.
         12    1    1    2    0    0  0.77344787795E+00 -0.82447921408E+00 -0.33918043243E+00  0.11802673257E+01  0.00000000000E+00 0. -1.
         11    1    3    3    0    0 -0.87502288974E+01  0.57172901899E+01  0.35835334163E+02  0.37328609507E+02  0.51100000000E-03 0. -1.
        -11    1    3    3    0    0 -0.36989483234E+01  0.64086485410E+00  0.71733404619E+01  0.80962793988E+01  0.51100000000E-03 0.  1.
        -12    1    3    3    0    0  0.11675729343E+02 -0.55336758299E+01 -0.42669494192E+02  0.44582843769E+02  0.00000000000E+00 0.  1.
</event>
<event>
 7    1  0.1971192E-015  0.9000786E+02  0.7816164E-02  0.1186339E+00
        -11   -1    0    0    0    0  0.00000000000E+00  0.00000000000E+00  0.45593999997E+02  0.45594000000E+02  0.51100000000E-03 0. -1.
         11   -1    0    0    0    0 -0.00000000000E+00 -0.00000000000E+00 -0.45593999997E+02  0.45594000000E+02  0.51100000000E-03 0.  1.
    9900012    2    1    2    0    0  0.49441588727E+00  0.10714499635E+01 -0.16972941116E-01  0.90007855867E+02  0.90000118764E+02 0.  0.
         12    1    1    2    0    0 -0.49441588727E+00 -0.10714499635E+01  0.16972941116E-01  0.11801441329E+01  0.00000000000E+00 0. -1.
         11    1    3    3    0    0 -0.33507526646E+01 -0.89027298116E+01 -0.23727171465E+01  0.98038731345E+01  0.51100000000E-03 0. -1.
        -11    1    3    3    0    0 -0.15673622493E+02 -0.20951159095E+02 -0.23698527471E+02  0.35302035551E+02  0.51100000000E-03 0.  1.
         12    1    3    3    0    0  0.19518791045E+02  0.30925338870E+02  0.26054271677E+02  0.44901947181E+02  0.00000000000E+00 0. -1.
</event>
<event>
 7    1  0.1971192E-015  0.9000773E+02  0.7816164E-02  0.1186339E+00
        -11   -1    0    0    0    0  0.00000000000E+00  0.00000000000E+00  0.45593999997E+02  0.45594000000E+02  0.51100000000E-03 0.  1.
         11   -1    0    0    0    0 -0.00000000000E+00 -0.00000000000E+00 -0.45593999997E+02  0.45594000000E+02  0.51100000000E-03 0. -1.
    9900012    2    1    2    0    0 -0.20374289521E+00 -0.69438002628E+00 -0.93239927502E+00  0.90007727491E+02  0.89999988694E+02 0.  0.
         12    1    1    2    0    0  0.20374289521E+00  0.69438002628E+00  0.93239927502E+00  0.11802725093E+01  0.00000000000E+00 0. -1.
         11    1    3    3    0    0  0.85368569647E+01 -0.22894456670E+01  0.57067582936E+00  0.88569272020E+01  0.51100000000E-03 0. -1.
        -11    1    3    3    0    0  0.49227853872E+01  0.34074246731E+02  0.20054657682E+02  0.39843160031E+02  0.51100000000E-03 0.  1.
         12    1    3    3    0    0 -0.13663385247E+02 -0.32479181091E+02 -0.21557732786E+02  0.41307640257E+02  0.00000000000E+00 0. -1.
</event>
<event>
 7    1  0.1971192E-015  0.9000775E+02  0.7816164E-02  0.1186339E+00
        -11   -1    0    0    0    0  0.00000000000E+00  0.00000000000E+00  0.45593999997E+02  0.45594000000E+02  0.51100000000E-03 0. -1.
         11   -1    0    0    0    0 -0.00000000000E+00 -0.00000000000E+00 -0.45593999997E+02  0.45594000000E+02  0.51100000000E-03 0.  1.
    9900012    2    1    2    0    0  0.50644236360E+00  0.52085891918E+00 -0.93016177510E+00  0.90007754767E+02  0.90000016330E+02 0.  0.
         12    1    1    2    0    0 -0.50644236360E+00 -0.52085891918E+00  0.93016177510E+00  0.11802452327E+01  0.00000000000E+00 0. -1.
         11    1    3    3    0    0  0.24195840394E+02 -0.36093825437E+02 -0.47109737035E+01  0.43708079351E+02  0.51100000000E-03 0. -1.
        -11    1    3    3    0    0 -0.22980756495E+01  0.11573397502E+02  0.61021724969E+01  0.13283869574E+02  0.51100000000E-03 0.  1.
        -12    1    3    3    0    0 -0.21391322381E+02  0.25041286854E+02 -0.23213605685E+01  0.33015805842E+02  0.00000000000E+00 0.  1.
</event>
<event>
 7    1  0.1971192E-015  0.9000789E+02  0.7816164E-02  0.1186339E+00
        -11   -1    0    0    0    0  0.00000000000E+00  0.00000000000E+00  0.45593999997E+02  0.45594000000E+02  0.51100000000E-03 0.  1.
         11   -1    0    0    0    0 -0.00000000000E+00 -0.00000000000E+00 -0.45593999997E+02  0.45594000000E+02  0.51100000000E-03 0. -1.
    9900012    2    1    2    0    0  0.26008934618E-01  0.11104907079E+01 -0.39848693952E+00  0.90007890718E+02  0.90000154075E+02 0.  0.
         12    1    1    2    0    0 -0.26008934618E-01 -0.11104907079E+01  0.39848693952E+00  0.11801092822E+01  0.00000000000E+00 0. -1.
         11    1    3    3    0    0 -0.68994281714E+01 -0.55781023939E+01  0.70475248992E+00  0.89002253759E+01  0.51100000000E-03 0. -1.
        -11    1    3    3    0    0 -0.16037190677E+01 -0.17240052692E+02  0.33777592121E+02  0.37956778860E+02  0.51100000000E-03 0.  1.
         12    1    3    3    0    0  0.85291561737E+01  0.23928645793E+02 -0.34880831550E+02  0.43150886482E+02  0.00000000000E+00 0. -1.
</event>
<event>
 7    1  0.1971192E-015  0.9000774E+02  0.7816164E-02  0.1186339E+00
        -11   -1    0    0    0    0  0.00000000000E+00  0.00000000000E+00  0.45593999997E+02  0.45594000000E+02  0.51100000000E-03 0.  1.
         11   -1    0    0    0    0 -0.00000000000E+00 -0.00000000000E+00 -0.45593999997E+02  0.45594000000E+02  0.51100000000E-03 0. -1.
    9900012    2    1    2    0    0 -0.70761561029E+00  0.90441126995E+00  0.27264431675E+00  0.90007739639E+02  0.90000001002E+02 0.  0.
         12    1    1    2    0    0  0.70761561029E+00 -0.90441126995E+00 -0.27264431675E+00  0.11802603614E+01  0.00000000000E+00 0. -1.
         11    1    3    3    0    0  0.79901801947E+01  0.61251311580E+01 -0.25554533738E+02  0.27466241208E+02  0.51100000000E-03 0. -1.
        -11    1    3    3    0    0  0.45877031886E+01 -0.13562359574E+02 -0.13822756821E+02  0.19901086005E+02  0.51100000000E-03 0.  1.
        -12    1    3    3    0    0 -0.13285498994E+02  0.83416396863E+01  0.39649934876E+02  0.42640412426E+02  0.00000000000E+00 0.  1.
</event>
<event>
 7    1  0.1971192E-015  0.9000783E+02  0.7816164E-02  0.1186339E+00
        -11   -1    0    0    0    0  0.00000000000E+00  0.00000000000E+00  0.45593999997E+02  0.45594000000E+02  0.51100000000E-03 0. -1.
         11   -1    0    0    0    0 -0.00000000000E+00 -0.00000000000E+00 -0.45593999997E+02  0.45594000000E+02  0.51100000000E-03 0.  1.
    9900012    2    1    2    0    0 -0.11102945608E+01  0.20759990492E+00 -0.34196988863E+00  0.90007832581E+02  0.90000095171E+02 0.  0.
         12    1    1    2    0    0  0.11102945608E+01 -0.20759990492E+00  0.34196988863E+00  0.11801674191E+01  0.00000000000E+00 0. -1.
         11    1    3    3    0    0  0.15933907638E+02 -0.20038450450E+01  0.34580194737E+02  0.38127348136E+02  0.51100000000E-03 0. -1.
        -11    1    3    3    0    0  0.36882382656E+01 -0.19739787483E+01  0.51102730080E+01  0.66041338630E+01  0.51100000000E-03 0.  1.
        -12    1    3    3    0    0 -0.20732440465E+02  0.41854236982E+01 -0.40032437633E+02  0.45276350582E+02  0.00000000000E+00 0.  1.
</event>
<event>
 7    1  0.1971192E-015  0.9000787E+02  0.7816164E-02  0.1186339E+00
        -11   -1    0    0    0    0  0.00000000000E+00  0.00000000000E+00  0.45593999997E+02  0.45594000000E+02  0.51100000000E-03 0.  1.
         11   -1    0    0    0    0 -0.00000000000E+00 -0.00000000000E+00 -0.45593999997E+02  0.45594000000E+02  0.51100000000E-03 0. -1.
    9900012    2    1    2    0    0 -0.87338974551E+00  0.27602003499E+00  0.74411744313E+00  0.90007869721E+02  0.90000132801E+02 0.  0.
         12    1    1    2    0    0  0.87338974551E+00 -0.27602003499E+00 -0.74411744313E+00  0.11801302794E+01  0.00000000000E+00 0. -1.
         11    1    3    3    0    0 -0.20225788462E+02 -0.18570320016E+02 -0.28658042027E+02  0.39689075039E+02  0.51100000000E-03 0. -1.
        -11    1    3    3    0    0 -0.79780484294E+01  0.77956183831E+00  0.47501006978E+01  0.93177481347E+01  0.51100000000E-03 0.  1.
        -12    1    3    3    0    0  0.27330447146E+02  0.18066778212E+02  0.24652058772E+02  0.41001046546E+02  0.00000000000E+00 0.  1.
</event>
<event>
 7    1  0.1971192E-015  0.9000771E+02  0.7816164E-02  0.1186339E+00
        -11   -1    0    0    0    0  0.00000000000E+00  0.00000000000E+00  0.45593999997E+02  0.45594000000E+02  0.51100000000E-03 0.  1.
         11   -1    0    0    0    0 -0.00000000000E+00 -0.00000000000E+00 -0.45593999997E+02  0.45594000000E+02  0.51100000000E-03 0. -1.
    9900012    2    1    2    0    0 -0.73225339845E+00  0.78128081357E+00  0.49647024536E+00  0.90007712978E+02  0.89999973990E+02 0.  0.
         12    1    1    2    0    0  0.73225339845E+00 -0.78128081357E+00 -0.49647024536E+00  0.11802870218E+01  0.00000000000E+00 0. -1.
         11    1    3    3    0    0 -0.62745319073E+01 -0.25223185303E+01 -0.70923304959E+01  0.97996425215E+01  0.51100000000E-03 0. -1.
        -11    1    3    3    0    0  0.33165111572E+02 -0.22999158509E+02  0.11228304996E+02  0.41892251683E+02  0.51100000000E-03 0.  1.
         12    1    3    3    0    0 -0.27622833063E+02  0.26302757853E+02 -0.36395042545E+01  0.38315818774E+02  0.00000000000E+00 0. -1.
</event>
<event>
 7    1  0.1971192E-015  0.9000776E+02  0.7816164E-02  0.1186339E+00
        -11   -1    0    0    0    0  0.00000000000E+00  0.00000000000E+00  0.45593999997E+02  0.45594000000E+02  0.51100000000E-03 0. -1.
         11   -1    0    0    0    0 -0.00000000000E+00 -0.00000000000E+00 -0.45593999997E+02  0.45594000000E+02  0.51100000000E-03 0.  1.
    9900012    2    1    2    0    0 -0.22339942266E+00 -0.55267995832E+00 -0.10186326566E+01  0.90007756412E+02  0.90000017996E+02 0.  0.
         12    1    1    2    0    0  0.22339942266E+00  0.55267995832E+00  0.10186326566E+01  0.11802435882E+01  0.00000000000E+00 0. -1.
         11    1    3    3    0    0  0.42505629829E+01  0.54636095987E+01 -0.63920803740E+01  0.94221551296E+01  0.51100000000E-03 0. -1.
        -11    1    3    3    0    0 -0.33340387380E+02 -0.17755038522E+02 -0.17794564696E+02  0.41754872249E+02  0.51100000000E-03 0.  1.
         12    1    3    3    0    0  0.28866424974E+02  0.11738748965E+02  0.23168012413E+02  0.38830729033E+02  0.00000000000E+00 0. -1.
</event>
<event>
 7    1  0.1971192E-015  0.9000743E+02  0.7816164E-02  0.1186340E+00
        -11   -1    0    0    0    0  0.00000000000E+00  0.00000000000E+00  0.45593999997E+02  0.45594000000E+02  0.51100000000E-03 0.  1.
         11   -1    0    0    0    0 -0.00000000000E+00 -0.00000000000E+00 -0.45593999997E+02  0.45594000000E+02  0.51100000000E-03 0. -1.
    9900012    2    1    2    0    0  0.34789829326E+00 -0.58821819613E-01  0.11266069339E+01  0.90007433859E+02  0.89999691186E+02 0.  0.
         12    1    1    2    0    0 -0.34789829326E+00  0.58821819613E-01 -0.11266069339E+01  0.11805661407E+01  0.00000000000E+00 0. -1.
         11    1    3    3    0    0  0.28921225334E+02 -0.15860388356E+02 -0.73389658605E+01  0.33791265347E+02  0.51100000000E-03 0. -1.
        -11    1    3    3    0    0  0.94291681003E+01 -0.65467654049E+01  0.13330596637E+01  0.11556227614E+02  0.51100000000E-03 0.  1.
        -12    1    3    3    0    0 -0.38002495141E+02  0.22348331941E+02  0.71325131307E+01  0.44659940898E+02  0.00000000000E+00 0.  1.
</event>
<event>
 7    1  0.1971192E-015  0.9000750E+02  0.7816164E-02  0.1186340E+00
        -11   -1    0    0    0    0  0.00000000000E+00  0.00000000000E+00  0.45593999997E+02  0.45594000000E+02  0.51100000000E-03 0.  1.
         11   -1    0    0    0    0 -0.00000000000E+00 -0.00000000000E+00 -0.45593999997E+02  0.45594000000E+02  0.51100000000E-03 0. -1.
    9900012    2    1    2    0    0  0.42561418081E+00  0.11009833101E+01  0.16290287107E-01  0.90007501354E+02  0.89999759571E+02 0.  0.
         12    1    1    2    0    0 -0.42561418081E+00 -0.11009833101E+01 -0.16290287107E-01  0.11804986461E+01  0.00000000000E+00 0. -1.
         11    1    3    3    0    0  0.29345695597E+02  0.69673425008E+01 -0.20696569268E+02  0.36579525576E+02  0.51100000000E-03 0. -1.
        -11    1    3    3    0    0  0.97235919537E+01  0.16843530420E+00  0.14597268492E+01  0.98339927633E+01  0.51100000000E-03 0.  1.
        -12    1    3    3    0    0 -0.38643673370E+02 -0.60347944949E+01  0.19253132705E+02  0.43593983015E+02  0.00000000000E+00 0.  1.
</event>
<event>
 7    1  0.1971192E-015  0.9000775E+02  0.7816164E-02  0.1186339E+00
        -11   -1    0    0    0    0  0.00000000000E+00  0.00000000000E+00  0.45593999997E+02  0.45594000000E+02  0.51100000000E-03 0.  1.
         11   -1    0    0    0    0 -0.00000000000E+00 -0.00000000000E+00 -0.45593999997E+02  0.45594000000E+02  0.51100000000E-03 0. -1.
    9900012    2    1    2    0    0 -0.11052356777E+01  0.32367518649E+00  0.25822712278E+00  0.90007748850E+02  0.90000010335E+02 0.  0.
         12    1    1    2    0    0  0.11052356777E+01 -0.32367518649E+00 -0.25822712278E+00  0.11802511498E+01  0.00000000000E+00 0. -1.
         11    1    3    3    0    0  0.11853344411E+02 -0.93551937800E+01 -0.36332737690E+02  0.39345765372E+02  0.51100000000E-03 0. -1.
        -11    1    3    3    0    0 -0.67686194032E+00 -0.86705286233E+01  0.96757505435E+00  0.87505662926E+01  0.51100000000E-03 0.  1.
        -12    1    3    3    0    0 -0.12281718149E+02  0.18349397590E+02  0.35623389759E+02  0.41911417185E+02  0.00000000000E+00 0.  1.
</event>
<event>
 7    1  0.1971192E-015  0.9000775E+02  0.7816164E-02  0.1186339E+00
        -11   -1    0    0    0    0  0.00000000000E+00  0.00000000000E+00  0.45593999997E+02  0.45594000000E+02  0.51100000000E-03 0. -1.
         11   -1    0    0    0    0 -0.00000000000E+00 -0.00000000000E+00 -0.45593999997E+02  0.45594000000E+02  0.51100000000E-03 0.  1.
    9900012    2    1    2    0    0  0.77746777700E+00 -0.80233500779E+00  0.38052238163E+00  0.90007747954E+02  0.90000009427E+02 0.  0.
         12    1    1    2    0    0 -0.77746777700E+00  0.80233500779E+00 -0.38052238163E+00  0.11802520459E+01  0.00000000000E+00 0. -1.
         11    1    3    3    0    0  0.57216434206E+01 -0.59166082435E+01 -0.66721633503E+00  0.82576409729E+01  0.51100000000E-03 0. -1.
        -11    1    3    3    0    0  0.37704303977E+02  0.46244882213E+01  0.71823928840E+01  0.38659891328E+02  0.51100000000E-03 0.  1.
         12    1    3    3    0    0 -0.42648479620E+02  0.48978501442E+00 -0.61346541673E+01  0.43090215653E+02  0.00000000000E+00 0. -1.
</event>
<event>
 7    1  0.2205252E-015  0.9000757E+02  0.7816164E-02  0.1186339E+00
        -11   -1    0    0    0    0  0.00000000000E+00  0.00000000000E+00  0.45593999997E+02  0.45594000000E+02  0.51100000000E-03 0.  1.
         11   -1    0    0    0    0 -0.00000000000E+00 -0.00000000000E+00 -0.45593999997E+02  0.45594000000E+02  0.51100000000E-03 0. -1.
    9900012    2    1    2    0    0  0.63325789194E+00  0.45825915904E+00  0.88453821973E+00  0.90007565810E+02  0.89999824879E+02 0.  0.
         12    1    1    2    0    0 -0.63325789194E+00 -0.45825915904E+00 -0.88453821973E+00  0.11804341899E+01  0.00000000000E+00 0. -1.
         11    1    3    3    0    0  0.90943362042E+01 -0.18438445076E+02 -0.28781814705E+02  0.35370553654E+02  0.51100000000E-03 0. -1.
        -11    1    3    3    0    0  0.47588487082E+01 -0.42371028396E+01 -0.69005255412E+01  0.93923870505E+01  0.51100000000E-03 0.  1.
        -12    1    3    3    0    0 -0.13219927020E+02  0.23133807075E+02  0.36566878466E+02  0.45244625106E+02  0.00000000000E+00 0.  1.
</event>
<event>
 7    1  0.1971192E-015  0.9000773E+02  0.7816164E-02  0.1186339E+00
        -11   -1    0    0    0    0  0.00000000000E+00  0.00000000000E+00  0.45593999997E+02  0.45594000000E+02  0.51100000000E-03 0. -1.
         11   -1    0    0    0    0 -0.00000000000E+00 -0.00000000000E+00 -0.45593999997E+02  0.45594000000E+02  0.51100000000E-03 0.  1.
    9900012    2    1    2    0    0 -0.11068252284E+01 -0.47636480433E-01 -0.40707357804E+00  0.90007728752E+02  0.89999989972E+02 0.  0.
         12    1    1    2    0    0  0.11068252284E+01  0.47636480433E-01  0.40707357804E+00  0.11802712478E+01  0.00000000000E+00 0. -1.
         11    1    3    3    0    0 -0.93589088194E+01  0.22436732587E+01 -0.45970701032E+01  0.10665659744E+02  0.51100000000E-03 0. -1.
        -11    1    3    3    0    0 -0.20879935676E+02  0.42215081824E+01 -0.28169126249E+02  0.35317028741E+02  0.51100000000E-03 0.  1.
         12    1    3    3    0    0  0.29132019267E+02 -0.65128179215E+01  0.32359122774E+02  0.44025040268E+02  0.00000000000E+00 0. -1.
</event>
<event>
 7    1  0.1971192E-015  0.9000771E+02  0.7816164E-02  0.1186339E+00
        -11   -1    0    0    0    0  0.00000000000E+00  0.00000000000E+00  0.45593999997E+02  0.45594000000E+02  0.51100000000E-03 0. -1.
         11   -1    0    0    0    0 -0.00000000000E+00 -0.00000000000E+00 -0.45593999997E+02  0.45594000000E+02  0.51100000000E-03 0.  1.
    9900012    2    1    2    0    0 -0.34361884074E+00 -0.52643761437E+00  0.99893654897E+00  0.90007709909E+02  0.89999970880E+02 0.  0.
         12    1    1    2    0    0  0.34361884074E+00  0.52643761437E+00 -0.99893654897E+00  0.11802900908E+01  0.00000000000E+00 0. -1.
         11    1    3    3    0    0  0.19355463724E+02 -0.12432364698E+02  0.14042705492E+02  0.26951720646E+02  0.51100000000E-03 0. -1.
        -11    1    3    3    0    0  0.69724153906E+01  0.28447946385E+02 -0.12002906741E+02  0.31653909717E+02  0.51100000000E-03 0.  1.
         12    1    3    3    0    0 -0.26671497955E+02 -0.16542019301E+02 -0.10408622023E+01  0.31402079546E+02  0.00000000000E+00 0. -1.
</event>
<event>
 7    1  0.1971192E-015  0.9000781E+02  0.7816164E-02  0.1186339E+00
        -11   -1    0    0    0    0  0.00000000000E+00  0.00000000000E+00  0.45593999997E+02  0.45594000000E+02  0.51100000000E-03 0. -1.
         11   -1    0    0    0    0 -0.00000000000E+00 -0.00000000000E+00 -0.45593999997E+02  0.45594000000E+02  0.51100000000E-03 0.  1.
    9900012    2    1    2    0    0 -0.11197267084E+01 -0.34577684778E+00  0.13966406130E+00  0.90007806973E+02  0.90000069225E+02 0.  0.
         12    1    1    2    0    0  0.11197267084E+01  0.34577684778E+00 -0.13966406130E+00  0.11801930266E+01  0.00000000000E+00 0. -1.
         11    1    3    3    0    0 -0.19163188051E+02  0.29320315862E+02  0.22086738935E+02  0.41409331503E+02  0.51100000000E-03 0. -1.
        -11    1    3    3    0    0  0.75669077947E+01 -0.43307317752E+01  0.50881505389E+01  0.10094682137E+02  0.51100000000E-03 0.  1.
        -12    1    3    3    0    0  0.10476553548E+02 -0.25335360935E+02 -0.27035225412E+02  0.38503793333E+02  0.00000000000E+00 0.  1.
</event>
<event>
 7    1  0.1971192E-015  0.9000778E+02  0.7816164E-02  0.1186339E+00
        -11   -1    0    0    0    0  0.00000000000E+00  0.00000000000E+00  0.45593999997E+02  0.45594000000E+02  0.51100000000E-03 0. -1.
         11   -1    0    0    0    0 -0.00000000000E+00 -0.00000000000E+00 -0.45593999997E+02  0.45594000000E+02  0.51100000000E-03 0.  1.
    9900012    2    1    2    0    0  0.62526091675E-01  0.10102017551E+01 -0.60704200491E+00  0.90007780913E+02  0.90000042821E+02 0.  0.
         12    1    1    2    0    0 -0.62526091675E-01 -0.10102017551E+01  0.60704200491E+00  0.11802190873E+01  0.00000000000E+00 0. -1.
         11    1    3    3    0    0 -0.17205145143E+02 -0.86426143657E+00  0.30760767274E+02  0.35256045875E+02  0.51100000000E-03 0. -1.
        -11    1    3    3    0    0  0.33732260966E+01 -0.64204937713E+01  0.88254512168E+01  0.11423221262E+02  0.51100000000E-03 0.  1.
        -12    1    3    3    0    0  0.13894445138E+02  0.82949569630E+01 -0.40193260495E+02  0.43328513775E+02  0.00000000000E+00 0.  1.
</event>
<event>
 7    1  0.1971192E-015  0.9000768E+02  0.7816164E-02  0.1186339E+00
        -11   -1    0    0    0    0  0.00000000000E+00  0.00000000000E+00  0.45593999997E+02  0.45594000000E+02  0.51100000000E-03 0. -1.
         11   -1    0    0    0    0 -0.00000000000E+00 -0.00000000000E+00 -0.45593999997E+02  0.45594000000E+02  0.51100000000E-03 0.  1.
    9900012    2    1    2    0    0 -0.40868074171E+00  0.77792352105E+00 -0.78801071741E+00  0.90007684007E+02  0.89999944636E+02 0.  0.
         12    1    1    2    0    0  0.40868074171E+00 -0.77792352105E+00  0.78801071741E+00  0.11803159933E+01  0.00000000000E+00 0. -1.
         11    1    3    3    0    0  0.14977552742E+02  0.25201488779E+01 -0.49082806264E+01  0.15961499162E+02  0.51100000000E-03 0. -1.
        -11    1    3    3    0    0  0.24108639223E+02  0.96625971564E+01 -0.13556756887E+02  0.29298087421E+02  0.51100000000E-03 0.  1.
         12    1    3    3    0    0 -0.39494872707E+02 -0.11404822513E+02  0.17677026796E+02  0.44748097424E+02  0.00000000000E+00 0. -1.
</event>
<event>
 7    1  0.1971192E-015  0.9000772E+02  0.7816164E-02  0.1186339E+00
        -11   -1    0    0    0    0  0.00000000000E+00  0.00000000000E+00  0.45593999997E+02  0.45594000000E+02  0.51100000000E-03 0. -1.
         11   -1    0    0    0    0 -0.00000000000E+00 -0.00000000000E+00 -0.45593999997E+02  0.45594000000E+02  0.51100000000E-03 0.  1.
    9900012    2    1    2    0    0 -0.47142679956E+00 -0.10645346026E+01 -0.19386757866E+00  0.90007719616E+02  0.89999980715E+02 0.  0.
         12    1    1    2    0    0  0.47142679956E+00  0.10645346026E+01  0.19386757866E+00  0.11802803842E+01  0.00000000000E+00 0. -1.
         11    1    3    3    0    0 -0.12755156293E+02 -0.15053538883E+01 -0.70249872586E+01  0.14639349324E+02  0.51100000000E-03 0. -1.
        -11    1    3    3    0    0  0.19560176168E+02 -0.21762924835E+02 -0.23182687949E+02  0.37331788196E+02  0.51100000000E-03 0.  1.
         12    1    3    3    0    0 -0.72764466745E+01  0.22203744121E+02  0.30013807628E+02  0.38036582096E+02  0.00000000000E+00 0. -1.
</event>
<event>
 7    1  0.1971192E-015  0.9000767E+02  0.7816164E-02  0.1186339E+00
        -11   -1    0    0    0    0  0.00000000000E+00  0.00000000000E+00  0.45593999997E+02  0.45594000000E+02  0.51100000000E-03 0. -1.
         11   -1    0    0    0    0 -0.00000000000E+00 -0.00000000000E+00 -0.45593999997E+02  0.45594000000E+02  0.51100000000E-03 0.  1.
    9900012    2    1    2    0    0  0.93431882033E-01 -0.11124711331E+01 -0.38322593058E+00  0.90007667991E+02  0.89999928408E+02 0.  0.
         12    1    1    2    0    0 -0.93431882033E-01  0.11124711331E+01  0.38322593058E+00  0.11803320094E+01  0.00000000000E+00 0. -1.
         11    1    3    3    0    0 -0.50936318442E+01  0.76836643290E+01  0.11829755146E+01  0.92942570555E+01  0.51100000000E-03 0. -1.
        -11    1    3    3    0    0 -0.19326347837E+02 -0.37109608839E+02  0.66668465349E+01  0.42368356493E+02  0.51100000000E-03 0.  1.
         12    1    3    3    0    0  0.24513411564E+02  0.28313473377E+02 -0.82330479801E+01  0.38345054442E+02  0.00000000000E+00 0. -1.
</event>
<event>
 7    1  0.1971192E-015  0.9000797E+02  0.7816164E-02  0.1186339E+00
        -11   -1    0    0    0    0  0.00000000000E+00  0.00000000000E+00  0.45593999997E+02  0.45594000000E+02  0.51100000000E-03 0.  1.
         11   -1    0    0    0    0 -0.00000000000E+00 -0.00000000000E+00 -0.45593999997E+02  0.45594000000E+02  0.51100000000E-03 0. -1.
    9900012    2    1    2    0    0 -0.82147100978E+00  0.16885737883E+00 -0.83014830569E+00  0.90007968795E+02  0.90000233183E+02 0.  0.
         12    1    1    2    0    0  0.82147100978E+00 -0.16885737883E+00  0.83014830569E+00  0.11800312046E+01  0.00000000000E+00 0. -1.
         11    1    3    3    0    0  0.55932161423E+01  0.45596810951E+01 -0.66906984424E+01  0.98407420661E+01  0.51100000000E-03 0. -1.
        -11    1    3    3    0    0  0.28104539830E+02  0.18788669724E+02  0.15951127847E+02  0.37380713596E+02  0.51100000000E-03 0.  1.
         12    1    3    3    0    0 -0.34519226982E+02 -0.23179493440E+02 -0.10090577710E+02  0.42786513134E+02  0.00000000000E+00 0. -1.
</event>
<event>
 7    1  0.1971192E-015  0.9000777E+02  0.7816164E-02  0.1186339E+00
        -11   -1    0    0    0    0  0.00000000000E+00  0.00000000000E+00  0.45593999997E+02  0.45594000000E+02  0.51100000000E-03 0.  1.
         11   -1    0    0    0    0 -0.00000000000E+00 -0.00000000000E+00 -0.45593999997E+02  0.45594000000E+02  0.51100000000E-03 0. -1.
    9900012    2    1    2    0    0  0.25311401734E+00  0.10276271231E+01  0.52235316704E+00  0.90007772462E+02  0.90000034259E+02 0.  0.
         12    1    1    2    0    0 -0.25311401734E+00 -0.10276271231E+01 -0.52235316704E+00  0.11802275378E+01  0.00000000000E+00 0. -1.
         11    1    3    3    0    0 -0.11945391469E+02 -0.18556954061E+01  0.50552651856E+01  0.13103117536E+02  0.51100000000E-03 0. -1.
        -11    1    3    3    0    0 -0.24455165456E+02  0.20616333552E+02  0.10247331962E+02  0.33587142468E+02  0.51100000000E-03 0.  1.
         12    1    3    3    0    0  0.36653670942E+02 -0.17733011022E+02 -0.14780243981E+02  0.43317512458E+02  0.00000000000E+00 0. -1.
</event>
<event>
 7    1  0.1971192E-015  0.9000780E+02  0.7816164E-02  0.1186339E+00
        -11   -1    0    0    0    0  0.00000000000E+00  0.00000000000E+00  0.45593999997E+02  0.45594000000E+02  0.51100000000E-03 0. -1.
         11   -1    0    0    0    0 -0.00000000000E+00 -0.00000000000E+00 -0.45593999997E+02  0.45594000000E+02  0.51100000000E-03 0.  1.
    9900012    2    1    2    0    0 -0.33353142262E+00  0.10521628128E+01 -0.41784308006E+00  0.90007795512E+02  0.90000057613E+02 0.  0.
         12    1    1    2    0    0  0.33353142262E+00 -0.10521628128E+01  0.41784308006E+00  0.11802044882E+01  0.00000000000E+00 0. -1.
         11    1    3    3    0    0  0.35060518276E+01  0.37757328093E+01  0.80586625486E+01  0.95650718762E+01  0.51100000000E-03 0. -1.
        -11    1    3    3    0    0 -0.18658596792E+02 -0.22555737890E+02  0.25213438139E+02  0.38634466595E+02  0.51100000000E-03 0.  1.
         12    1    3    3    0    0  0.14819013542E+02  0.19832167894E+02 -0.33689943767E+02  0.41808257041E+02  0.00000000000E+00 0. -1.
</event>
<event>
 7    1  0.1971192E-015  0.9000776E+02  0.7816164E-02  0.1186339E+00
        -11   -1    0    0    0    0  0.00000000000E+00  0.00000000000E+00  0.45593999997E+02  0.45594000000E+02  0.51100000000E-03 0.  1.
         11   -1    0    0    0    0 -0.00000000000E+00 -0.00000000000E+00 -0.45593999997E+02  0.45594000000E+02  0.51100000000E-03 0. -1.
    9900012    2    1    2    0    0  0.56362491760E+00 -0.59576776438E+00  0.84873981927E+00  0.90007757839E+02  0.90000019443E+02 0.  0.
         12    1    1    2    0    0 -0.56362491760E+00  0.59576776438E+00 -0.84873981927E+00  0.11802421606E+01  0.00000000000E+00 0. -1.
         11    1    3    3    0    0  0.10224400580E+02  0.23025798572E+01  0.94266336292E+00  0.10522777946E+02  0.51100000000E-03 0. -1.
        -11    1    3    3    0    0  0.13689914853E+02 -0.36214038535E+02  0.17981253553E+01  0.38756981445E+02  0.51100000000E-03 0.  1.
         12    1    3    3    0    0 -0.23350690515E+02  0.33315690914E+02 -0.18920488990E+01  0.40727998448E+02  0.00000000000E+00 0. -1.
</event>
<event>
 7    1  0.1971192E-015  0.9000825E+02  0.7816164E-02  0.1186338E+00
        -11   -1    0    0    0    0  0.00000000000E+00  0.00000000000E+00  0.45593999997E+02  0.45594000000E+02  0.51100000000E-03 0.  1.
         11   -1    0    0    0    0 -0.00000000000E+00 -0.00000000000E+00 -0.45593999997E+02  0.45594000000E+02  0.51100000000E-03 0. -1.
    9900012    2    1    2    0    0  0.69524998058E+00 -0.81656888256E+00  0.49159082596E+00  0.90008246290E+02  0.90000514340E+02 0.  0.
         12    1    1    2    0    0 -0.69524998058E+00  0.81656888256E+00 -0.49159082596E+00  0.11797537097E+01  0.00000000000E+00 0. -1.
         11    1    3    3    0    0  0.37377344502E+02 -0.15367349105E+01 -0.10897047123E+02  0.38963740484E+02  0.51100000000E-03 0. -1.
        -11    1    3    3    0    0  0.36693988739E+01 -0.75193581247E+01  0.37014329147E+01  0.91490896042E+01  0.51100000000E-03 0.  1.
        -12    1    3    3    0    0 -0.40351493396E+02  0.82395241526E+01  0.76872050341E+01  0.41895416202E+02  0.00000000000E+00 0.  1.
</event>
<event>
 7    1  0.1971192E-015  0.9000779E+02  0.7816164E-02  0.1186339E+00
        -11   -1    0    0    0    0  0.00000000000E+00  0.00000000000E+00  0.45593999997E+02  0.45594000000E+02  0.51100000000E-03 0.  1.
         11   -1    0    0    0    0 -0.00000000000E+00 -0.00000000000E+00 -0.45593999997E+02  0.45594000000E+02  0.51100000000E-03 0. -1.
    9900012    2    1    2    0    0 -0.44252424806E+00  0.10200067936E+01  0.39580980488E+00  0.90007785201E+02  0.90000047166E+02 0.  0.
         12    1    1    2    0    0  0.44252424806E+00 -0.10200067936E+01 -0.39580980488E+00  0.11802147986E+01  0.00000000000E+00 0. -1.
         11    1    3    3    0    0 -0.54795509423E+01  0.16555558899E+01 -0.62962749822E+00  0.57587129535E+01  0.51100000000E-03 0. -1.
        -11    1    3    3    0    0  0.66423751225E+01 -0.40564714285E+02 -0.10937876564E+02  0.42535330448E+02  0.51100000000E-03 0.  1.
         12    1    3    3    0    0 -0.16053484283E+01  0.39929165189E+02  0.11963313867E+02  0.41713741800E+02  0.00000000000E+00 0. -1.
</event>
<event>
 7    1  0.1971192E-015  0.9000780E+02  0.7816164E-02  0.1186339E+00
        -11   -1    0    0    0    0  0.00000000000E+00  0.00000000000E+00  0.45593999997E+02  0.45594000000E+02  0.51100000000E-03 0.  1.
         11   -1    0    0    0    0 -0.00000000000E+00 -0.00000000000E+00 -0.45593999997E+02  0.45594000000E+02  0.51100000000E-03 0. -1.
    9900012    2    1    2    0    0 -0.84785802042E-02 -0.58808097891E+00  0.10232145405E+01  0.90007797001E+02  0.90000059121E+02 0.  0.
         12    1    1    2    0    0  0.84785802042E-02  0.58808097891E+00 -0.10232145405E+01  0.11802029995E+01  0.00000000000E+00 0. -1.
         11    1    3    3    0    0  0.42396694030E+01 -0.68075032197E+00  0.90520358542E+01  0.10018860764E+02  0.51100000000E-03 0. -1.
        -11    1    3    3    0    0  0.18692238266E+02 -0.20800456060E+02 -0.30724468182E+02  0.41545778234E+02  0.51100000000E-03 0.  1.
         12    1    3    3    0    0 -0.22940386249E+02  0.20893125404E+02  0.22695646869E+02  0.38443158002E+02  0.00000000000E+00 0. -1.
</event>
<event>
 7    1  0.1971192E-015  0.9000757E+02  0.7816164E-02  0.1186339E+00
        -11   -1    0    0    0    0  0.00000000000E+00  0.00000000000E+00  0.45593999997E+02  0.45594000000E+02  0.51100000000E-03 0.  1.
         11   -1    0    0    0    0 -0.00000000000E+00 -0.00000000000E+00 -0.45593999997E+02  0.45594000000E+02  0.51100000000E-03 0. -1.
    9900012    2    1    2    0    0 -0.63198886204E+00 -0.33796022174E-01  0.99642256184E+00  0.90007572105E+02  0.89999831257E+02 0.  0.
         12    1    1    2    0    0  0.63198886204E+00  0.33796022174E-01 -0.99642256184E+00  0.11804278947E+01  0.00000000000E+00 0. -1.
         11    1    3    3    0    0  0.10483563470E+02  0.26966673527E+02 -0.51486361915E+01  0.29387327865E+02  0.51100000000E-03 0. -1.
        -11    1    3    3    0    0 -0.26508502499E+02  0.28566395570E+01  0.14402203040E+01  0.26700848846E+02  0.51100000000E-03 0.  1.
         12    1    3    3    0    0  0.15392950167E+02 -0.29857109107E+02  0.47048384494E+01  0.33919395394E+02  0.00000000000E+00 0. -1.
</event>
<event>
 7    1  0.1971192E-015  0.9000808E+02  0.7816164E-02  0.1186338E+00
        -11   -1    0    0    0    0  0.00000000000E+00  0.00000000000E+00  0.45593999997E+02  0.45594000000E+02  0.51100000000E-03 0.  1.
         11   -1    0    0    0    0 -0.00000000000E+00 -0.00000000000E+00 -0.45593999997E+02  0.45594000000E+02  0.51100000000E-03 0. -1.
    9900012    2    1    2    0    0  0.52947626353E+00 -0.10173821111E+01 -0.27714446456E+00  0.90008076050E+02  0.90000341853E+02 0.  0.
         12    1    1    2    0    0 -0.52947626353E+00  0.10173821111E+01  0.27714446456E+00  0.11799239500E+01  0.00000000000E+00 0. -1.
         11    1    3    3    0    0  0.34156616860E+01  0.20881786722E+01 -0.83743139122E+01  0.92820455009E+01  0.51100000000E-03 0. -1.
        -11    1    3    3    0    0  0.30852929453E+02  0.11646917377E+02  0.23825501705E+02  0.40684253366E+02  0.51100000000E-03 0.  1.
         12    1    3    3    0    0 -0.33739114875E+02 -0.14752478160E+02 -0.15728332257E+02  0.40041777183E+02  0.00000000000E+00 0. -1.
</event>
<event>
 7    1  0.1971192E-015  0.9000774E+02  0.7816164E-02  0.1186339E+00
        -11   -1    0    0    0    0  0.00000000000E+00  0.00000000000E+00  0.45593999997E+02  0.45594000000E+02  0.51100000000E-03 0.  1.
         11   -1    0    0    0    0 -0.00000000000E+00 -0.00000000000E+00 -0.45593999997E+02  0.45594000000E+02  0.51100000000E-03 0. -1.
    9900012    2    1    2    0    0 -0.18940730984E+00  0.23010427687E+00  0.11420115975E+01  0.90007740030E+02  0.90000001399E+02 0.  0.
         12    1    1    2    0    0  0.18940730984E+00 -0.23010427687E+00 -0.11420115975E+01  0.11802599697E+01  0.00000000000E+00 0. -1.
         11    1    3    3    0    0 -0.88595612225E+01  0.36091229325E+02  0.26239788554E+01  0.37255253650E+02  0.51100000000E-03 0. -1.
        -11    1    3    3    0    0  0.46214398391E+01  0.69066617854E+01  0.43825792559E+01  0.93950350930E+01  0.51100000000E-03 0.  1.
        -12    1    3    3    0    0  0.40487140735E+01 -0.42767786834E+02 -0.58645465138E+01  0.43357451287E+02  0.00000000000E+00 0.  1.
</event>
<event>
 7    1  0.1971192E-015  0.9000766E+02  0.7816164E-02  0.1186339E+00
        -11   -1    0    0    0    0  0.00000000000E+00  0.00000000000E+00  0.45593999997E+02  0.45594000000E+02  0.51100000000E-03 0.  1.
         11   -1    0    0    0    0 -0.00000000000E+00 -0.00000000000E+00 -0.45593999997E+02  0.45594000000E+02  0.51100000000E-03 0. -1.
    9900012    2    1    2    0    0 -0.34019264949E+00 -0.17979979277E+00  0.11158568717E+01  0.90007662945E+02  0.89999923296E+02 0.  0.
         12    1    1    2    0    0  0.34019264949E+00  0.17979979277E+00 -0.11158568717E+01  0.11803370546E+01  0.00000000000E+00 0. -1.
         11    1    3    3    0    0 -0.87869311127E+01  0.84108552323E+01  0.84833056410E+01  0.14829670225E+02  0.51100000000E-03 0. -1.
        -11    1    3    3    0    0  0.43179037627E+01 -0.15135912777E+02  0.31678118238E+02  0.35372917944E+02  0.51100000000E-03 0.  1.
         12    1    3    3    0    0  0.41288347005E+01  0.65452577524E+01 -0.39045567007E+02  0.39805074776E+02  0.00000000000E+00 0. -1.
</event>
<event>
 7    1  0.1971192E-015  0.9000776E+02  0.7816164E-02  0.1186339E+00
        -11   -1    0    0    0    0  0.00000000000E+00  0.00000000000E+00  0.45593999997E+02  0.45594000000E+02  0.51100000000E-03 0. -1.
         11   -1    0    0    0    0 -0.00000000000E+00 -0.00000000000E+00 -0.45593999997E+02  0.45594000000E+02  0.51100000000E-03 0.  1.
    9900012    2    1    2    0    0  0.58524001089E+00  0.73733121243E+00 -0.71189456154E+00  0.90007763984E+02  0.90000025668E+02 0.  0.
         12    1    1    2    0    0 -0.58524001089E+00 -0.73733121243E+00  0.71189456154E+00  0.11802360162E+01  0.00000000000E+00 0. -1.
         11    1    3    3    0    0  0.25891654656E+02  0.23203307041E+02  0.78289746873E+01  0.35637958463E+02  0.51100000000E-03 0. -1.
        -11    1    3    3    0    0  0.65584882014E+01  0.48086239191E+01 -0.93840495527E+01  0.12417609180E+02  0.51100000000E-03 0.  1.
        -12    1    3    3    0    0 -0.31864902846E+02 -0.27274599748E+02  0.84318030390E+00  0.41952196341E+02  0.00000000000E+00 0.  1.
</event>
<event>
 7    1  0.1971192E-015  0.9000775E+02  0.7816164E-02  0.1186339E+00
        -11   -1    0    0    0    0  0.00000000000E+00  0.00000000000E+00  0.45593999997E+02  0.45594000000E+02  0.51100000000E-03 0. -1.
         11   -1    0    0    0    0 -0.00000000000E+00 -0.00000000000E+00 -0.45593999997E+02  0.45594000000E+02  0.51100000000E-03 0.  1.
    9900012    2    1    2    0    0  0.54729794626E+00 -0.46901945985E+00 -0.93460142270E+00  0.90007748283E+02  0.90000009761E+02 0.  0.
         12    1    1    2    0    0 -0.54729794626E+00  0.46901945985E+00  0.93460142270E+00  0.11802517168E+01  0.00000000000E+00 0. -1.
         11    1    3    3    0    0 -0.23949997989E+01 -0.10129966576E+02  0.74429701434E+01  0.12796485912E+02  0.51100000000E-03 0. -1.
        -11    1    3    3    0    0 -0.34861513936E+02  0.85064954363E+01  0.66833488497E+01  0.36501407790E+02  0.51100000000E-03 0.  1.
         12    1    3    3    0    0  0.37803811681E+02  0.11544516802E+01 -0.15060920416E+02  0.40709854582E+02  0.00000000000E+00 0. -1.
</event>
<event>
 7    1  0.1971192E-015  0.9000776E+02  0.7816164E-02  0.1186339E+00
        -11   -1    0    0    0    0  0.00000000000E+00  0.00000000000E+00  0.45593999997E+02  0.45594000000E+02  0.51100000000E-03 0.  1.
         11   -1    0    0    0    0 -0.00000000000E+00 -0.00000000000E+00 -0.45593999997E+02  0.45594000000E+02  0.51100000000E-03 0. -1.
    9900012    2    1    2    0    0  0.29124608462E+00  0.10940509941E+01  0.33347152640E+00  0.90007756331E+02  0.90000017915E+02 0.  0.
         12    1    1    2    0    0 -0.29124608462E+00 -0.10940509941E+01 -0.33347152640E+00  0.11802436690E+01  0.00000000000E+00 0. -1.
         11    1    3    3    0    0 -0.19914648043E+02 -0.29601758008E+02  0.58092510140E+01  0.36146987170E+02  0.51100000000E-03 0. -1.
        -11    1    3    3    0    0 -0.10512106397E+02  0.59497559484E+00 -0.20066675705E+00  0.10530842524E+02  0.51100000000E-03 0.  1.
        -12    1    3    3    0    0  0.30718000524E+02  0.30100833407E+02 -0.52751127306E+01  0.43329926637E+02  0.00000000000E+00 0.  1.
</event>
<event>
 7    1  0.1971192E-015  0.9000770E+02  0.7816164E-02  0.1186339E+00
        -11   -1    0    0    0    0  0.00000000000E+00  0.00000000000E+00  0.45593999997E+02  0.45594000000E+02  0.51100000000E-03 0. -1.
         11   -1    0    0    0    0 -0.00000000000E+00 -0.00000000000E+00 -0.45593999997E+02  0.45594000000E+02  0.51100000000E-03 0.  1.
    9900012    2    1    2    0    0  0.70112981003E-01  0.11782184106E+01  0.17028101613E-02  0.90007696076E+02  0.89999956864E+02 0.  0.
         12    1    1    2    0    0 -0.70112981003E-01 -0.11782184106E+01 -0.17028101613E-02  0.11803039239E+01  0.00000000000E+00 0. -1.
         11    1    3    3    0    0  0.26082602016E+02  0.33974326200E+02  0.46595640543E+01  0.43084434615E+02  0.51100000000E-03 0. -1.
        -11    1    3    3    0    0 -0.25997422696E+01 -0.52764411217E+01  0.68258763087E+01  0.90106647048E+01  0.51100000000E-03 0.  1.
        -12    1    3    3    0    0 -0.23412746765E+02 -0.27519666668E+02 -0.11483737553E+02  0.37912596756E+02  0.00000000000E+00 0.  1.
</event>
<event>
 7    1  0.1971192E-015  0.9000775E+02  0.7816164E-02  0.1186339E+00
        -11   -1    0    0    0    0  0.00000000000E+00  0.00000000000E+00  0.45593999997E+02  0.45594000000E+02  0.51100000000E-03 0. -1.
         11   -1    0    0    0    0 -0.00000000000E+00 -0.00000000000E+00 -0.45593999997E+02  0.45594000000E+02  0.51100000000E-03 0.  1.
    9900012    2    1    2    0    0 -0.22189011155E+00  0.92100464791E+00 -0.70392627759E+00  0.90007747066E+02  0.90000008528E+02 0.  0.
         12    1    1    2    0    0  0.22189011155E+00 -0.92100464791E+00  0.70392627759E+00  0.11802529336E+01  0.00000000000E+00 0. -1.
         11    1    3    3    0    0 -0.23781448219E+02 -0.13965335061E+02 -0.30761850774E+02  0.41314396111E+02  0.51100000000E-03 0. -1.
        -11    1    3    3    0    0  0.51282246421E+01 -0.32810451488E+01 -0.29372014077E+01  0.67595190375E+01  0.51100000000E-03 0.  1.
        -12    1    3    3    0    0  0.18431333466E+02  0.18167384858E+02  0.32995125904E+02  0.41933831918E+02  0.00000000000E+00 0.  1.
</event>
<event>
 7    1  0.1971192E-015  0.9000773E+02  0.7816164E-02  0.1186339E+00
        -11   -1    0    0    0    0  0.00000000000E+00  0.00000000000E+00  0.45593999997E+02  0.45594000000E+02  0.51100000000E-03 0. -1.
         11   -1    0    0    0    0 -0.00000000000E+00 -0.00000000000E+00 -0.45593999997E+02  0.45594000000E+02  0.51100000000E-03 0.  1.
    9900012    2    1    2    0    0 -0.89978516429E+00  0.10496931482E+00 -0.75657205625E+00  0.90007731736E+02  0.89999992995E+02 0.  0.
         12    1    1    2    0    0  0.89978516429E+00 -0.10496931482E+00  0.75657205625E+00  0.11802682641E+01  0.00000000000E+00 0. -1.
         11    1    3    3    0    0 -0.55705057939E+01 -0.18385234947E+01  0.55807125928E+01  0.80966077308E+01  0.51100000000E-03 0. -1.
        -11    1    3    3    0    0 -0.32286371045E+02  0.22419537497E+02 -0.94885437390E+00  0.39318516525E+02  0.51100000000E-03 0.  1.
         12    1    3    3    0    0  0.36957091675E+02 -0.20476044688E+02 -0.53884302752E+01  0.42592607480E+02  0.00000000000E+00 0. -1.
</event>
<event>
 7    1  0.1971192E-015  0.9000775E+02  0.7816164E-02  0.1186339E+00
        -11   -1    0    0    0    0  0.00000000000E+00  0.00000000000E+00  0.45593999997E+02  0.45594000000E+02  0.51100000000E-03 0.  1.
         11   -1    0    0    0    0 -0.00000000000E+00 -0.00000000000E+00 -0.45593999997E+02  0.45594000000E+02  0.51100000000E-03 0. -1.
    9900012    2    1    2    0    0 -0.16223521528E+00  0.94582017906E+00  0.68708913240E+00  0.90007751064E+02  0.90000012578E+02 0.  0.
         12    1    1    2    0    0  0.16223521528E+00 -0.94582017906E+00 -0.68708913240E+00  0.11802489365E+01  0.00000000000E+00 0. -1.
         11    1    3    3    0    0 -0.75236825389E+01 -0.29509053515E+02  0.24287693386E+02  0.38952305305E+02  0.51100000000E-03 0. -1.
        -11    1    3    3    0    0 -0.14754122528E+00 -0.68511506196E+01 -0.60818064246E+01  0.91623361035E+01  0.51100000000E-03 0.  1.
        -12    1    3    3    0    0  0.75089885489E+01  0.37306024314E+02 -0.17518797829E+02  0.41893109655E+02  0.00000000000E+00 0.  1.
</event>
<event>
 7    1  0.1971192E-015  0.9000776E+02  0.7816164E-02  0.1186339E+00
        -11   -1    0    0    0    0  0.00000000000E+00  0.00000000000E+00  0.45593999997E+02  0.45594000000E+02  0.51100000000E-03 0. -1.
         11   -1    0    0    0    0 -0.00000000000E+00 -0.00000000000E+00 -0.45593999997E+02  0.45594000000E+02  0.51100000000E-03 0.  1.
    9900012    2    1    2    0    0 -0.34279991490E+00 -0.10321418717E+01 -0.45841067274E+00  0.90007758936E+02  0.90000020554E+02 0.  0.
         12    1    1    2    0    0  0.34279991490E+00  0.10321418717E+01  0.45841067274E+00  0.11802410643E+01  0.00000000000E+00 0. -1.
         11    1    3    3    0    0 -0.14752418338E+02 -0.93047353554E+01 -0.96339657987E+01  0.19925492318E+02  0.51100000000E-03 0. -1.
        -11    1    3    3    0    0  0.21231304332E+02 -0.76543256075E+01 -0.23820211079E+02  0.32814012864E+02  0.51100000000E-03 0.  1.
         12    1    3    3    0    0 -0.68216859088E+01  0.15926919091E+02  0.32995766205E+02  0.37268253754E+02  0.00000000000E+00 0. -1.
</event>
<event>
 7    1  0.1971192E-015  0.9000768E+02  0.7816164E-02  0.1186339E+00
        -11   -1    0    0    0    0  0.00000000000E+00  0.00000000000E+00  0.45593999997E+02  0.45594000000E+02  0.51100000000E-03 0.  1.
         11   -1    0    0    0    0 -0.00000000000E+00 -0.00000000000E+00 -0.45593999997E+02  0.45594000000E+02  0.51100000000E-03 0. -1.
    9900012    2    1    2    0    0 -0.79008100476E+00 -0.57368055230E+00  0.66318445587E+00  0.90007681826E+02  0.89999942426E+02 0.  0.
         12    1    1    2    0    0  0.79008100476E+00  0.57368055230E+00 -0.66318445587E+00  0.11803181743E+01  0.00000000000E+00 0. -1.
         11    1    3    3    0    0  0.91121063981E+00 -0.68609395340E+01  0.41060220551E+01  0.80474973438E+01  0.51100000000E-03 0. -1.
        -11    1    3    3    0    0 -0.25850400664E+02 -0.41387832679E+01  0.29736968677E+02  0.39618935470E+02  0.51100000000E-03 0.  1.
         12    1    3    3    0    0  0.24149109019E+02  0.10426042250E+02 -0.33179806276E+02  0.42341249012E+02  0.00000000000E+00 0. -1.
</event>
<event>
 7    1  0.1971192E-015  0.9000772E+02  0.7816164E-02  0.1186339E+00
        -11   -1    0    0    0    0  0.00000000000E+00  0.00000000000E+00  0.45593999997E+02  0.45594000000E+02  0.51100000000E-03 0. -1.
         11   -1    0    0    0    0 -0.00000000000E+00 -0.00000000000E+00 -0.45593999997E+02  0.45594000000E+02  0.51100000000E-03 0.  1.
    9900012    2    1    2    0    0  0.54895447760E+00 -0.67031182340E+00 -0.80148783596E+00  0.90007723884E+02  0.89999985039E+02 0.  0.
         12    1    1    2    0    0 -0.54895447760E+00  0.67031182340E+00  0.80148783596E+00  0.11802761161E+01  0.00000000000E+00 0. -1.
         11    1    3    3    0    0 -0.19439639168E+02  0.27599990056E+02 -0.12136032008E+02  0.35873977968E+02  0.51100000000E-03 0. -1.
        -11    1    3    3    0    0 -0.25437087168E+01  0.61007376787E+01 -0.65565069411E+01  0.93100611056E+01  0.51100000000E-03 0.  1.
        -12    1    3    3    0    0  0.22532302362E+02 -0.34371039558E+02  0.17891051113E+02  0.44823684810E+02  0.00000000000E+00 0.  1.
</event>
<event>
 7    1  0.1971192E-015  0.9000776E+02  0.7816164E-02  0.1186339E+00
        -11   -1    0    0    0    0  0.00000000000E+00  0.00000000000E+00  0.45593999997E+02  0.45594000000E+02  0.51100000000E-03 0.  1.
         11   -1    0    0    0    0 -0.00000000000E+00 -0.00000000000E+00 -0.45593999997E+02  0.45594000000E+02  0.51100000000E-03 0. -1.
    9900012    2    1    2    0    0 -0.48347776067E+00 -0.38716791929E+00  0.10046531449E+01  0.90007755244E+02  0.90000016813E+02 0.  0.
         12    1    1    2    0    0  0.48347776067E+00  0.38716791929E+00 -0.10046531449E+01  0.11802447561E+01  0.00000000000E+00 0. -1.
         11    1    3    3    0    0  0.11273440987E+02  0.10427681954E+01  0.36068137896E+00  0.11327308971E+02  0.51100000000E-03 0. -1.
        -11    1    3    3    0    0 -0.11847587183E+01 -0.38317812808E+02  0.90672778810E+01  0.39393831497E+02  0.51100000000E-03 0.  1.
         12    1    3    3    0    0 -0.10572160029E+02  0.36887876693E+02 -0.84233061150E+01  0.39286614776E+02  0.00000000000E+00 0. -1.
</event>
<event>
 7    1  0.1971192E-015  0.9000780E+02  0.7816164E-02  0.1186339E+00
        -11   -1    0    0    0    0  0.00000000000E+00  0.00000000000E+00  0.45593999997E+02  0.45594000000E+02  0.51100000000E-03 0.  1.
         11   -1    0    0    0    0 -0.00000000000E+00 -0.00000000000E+00 -0.45593999997E+02  0.45594000000E+02  0.51100000000E-03 0. -1.
    9900012    2    1    2    0    0  0.44535288934E+00  0.39231861937E+00  0.10201095345E+01  0.90007798086E+02  0.90000060221E+02 0.  0.
         12    1    1    2    0    0 -0.44535288934E+00 -0.39231861937E+00 -0.10201095345E+01  0.11802019139E+01  0.00000000000E+00 0. -1.
         11    1    3    3    0    0 -0.21749753072E+02 -0.20212414538E+02 -0.21325188462E+02  0.36556218669E+02  0.51100000000E-03 0. -1.
        -11    1    3    3    0    0 -0.71058032365E+01 -0.57544700888E+01  0.41097866593E+01  0.10024804850E+02  0.51100000000E-03 0.  1.
        -12    1    3    3    0    0  0.29300909198E+02  0.26359203246E+02  0.18235511337E+02  0.43426774567E+02  0.00000000000E+00 0.  1.
</event>
<event>
 7    1  0.1971192E-015  0.9000774E+02  0.7816164E-02  0.1186339E+00
        -11   -1    0    0    0    0  0.00000000000E+00  0.00000000000E+00  0.45593999997E+02  0.45594000000E+02  0.51100000000E-03 0. -1.
         11   -1    0    0    0    0 -0.00000000000E+00 -0.00000000000E+00 -0.45593999997E+02  0.45594000000E+02  0.51100000000E-03 0.  1.
    9900012    2    1    2    0    0  0.54374883412E+00  0.10298722411E+01 -0.19160713669E+00  0.90007740316E+02  0.90000001688E+02 0.  0.
         12    1    1    2    0    0 -0.54374883412E+00 -0.10298722411E+01  0.19160713669E+00  0.11802596843E+01  0.00000000000E+00 0. -1.
         11    1    3    3    0    0 -0.47922334971E+01  0.80440016758E+01  0.66591223240E+00  0.93869539369E+01  0.51100000000E-03 0. -1.
        -11    1    3    3    0    0  0.94484939467E+00  0.13975547795E+01 -0.40156781831E+02  0.40192201073E+02  0.51100000000E-03 0.  1.
         12    1    3    3    0    0  0.43911329366E+01 -0.84116842142E+01  0.39299262462E+02  0.40428585306E+02  0.00000000000E+00 0. -1.
</event>
<event>
 7    1  0.1971192E-015  0.9000775E+02  0.7816164E-02  0.1186339E+00
        -11   -1    0    0    0    0  0.00000000000E+00  0.00000000000E+00  0.45593999997E+02  0.45594000000E+02  0.51100000000E-03 0.  1.
         11   -1    0    0    0    0 -0.00000000000E+00 -0.00000000000E+00 -0.45593999997E+02  0.45594000000E+02  0.51100000000E-03 0. -1.
    9900012    2    1    2    0    0  0.11089714340E+01 -0.40367833262E+00  0.14305117706E-01  0.90007754909E+02  0.90000016474E+02 0.  0.
         12    1    1    2    0    0 -0.11089714340E+01  0.40367833262E+00 -0.14305117706E-01  0.11802450907E+01  0.00000000000E+00 0. -1.
         11    1    3    3    0    0 -0.51050377131E+01  0.66935603317E+01  0.66025912954E+01  0.10698568691E+02  0.51100000000E-03 0. -1.
        -11    1    3    3    0    0  0.21327555282E+02  0.30387643910E+02 -0.10823988998E+02  0.38670819164E+02  0.51100000000E-03 0.  1.
         12    1    3    3    0    0 -0.15113546135E+02 -0.37484882575E+02  0.42357028202E+01  0.40638367054E+02  0.00000000000E+00 0. -1.
</event>
<event>
 7    1  0.1971192E-015  0.9000775E+02  0.7816164E-02  0.1186339E+00
        -11   -1    0    0    0    0  0.00000000000E+00  0.00000000000E+00  0.45593999997E+02  0.45594000000E+02  0.51100000000E-03 0.  1.
         11   -1    0    0    0    0 -0.00000000000E+00 -0.00000000000E+00 -0.45593999997E+02  0.45594000000E+02  0.51100000000E-03 0. -1.
    9900012    2    1    2    0    0 -0.71236876471E-01  0.60238132609E+00  0.10124499881E+01  0.90007748784E+02  0.90000010268E+02 0.  0.
         12    1    1    2    0    0  0.71236876471E-01 -0.60238132609E+00 -0.10124499881E+01  0.11802512161E+01  0.00000000000E+00 0. -1.
         11    1    3    3    0    0  0.29110436523E+02 -0.29134896309E+01 -0.24571733118E+02  0.38205706447E+02  0.51100000000E-03 0. -1.
        -11    1    3    3    0    0  0.78007818491E+01 -0.63394439896E+00  0.42492298982E+01  0.89056183361E+01  0.51100000000E-03 0.  1.
        -12    1    3    3    0    0 -0.36982455249E+02  0.41498153559E+01  0.21334953207E+02  0.42896424001E+02  0.00000000000E+00 0.  1.
</event>
<event>
 7    1  0.1971192E-015  0.9000763E+02  0.7816164E-02  0.1186339E+00
        -11   -1    0    0    0    0  0.00000000000E+00  0.00000000000E+00  0.45593999997E+02  0.45594000000E+02  0.51100000000E-03 0. -1.
         11   -1    0    0    0    0 -0.00000000000E+00 -0.00000000000E+00 -0.45593999997E+02  0.45594000000E+02  0.51100000000E-03 0.  1.
    9900012    2    1    2    0    0  0.15981691826E+00 -0.11460467725E+01  0.23305561371E+00  0.90007627359E+02  0.89999887240E+02 0.  0.
         12    1    1    2    0    0 -0.15981691826E+00  0.11460467725E+01 -0.23305561371E+00  0.11803726408E+01  0.00000000000E+00 0. -1.
         11    1    3    3    0    0  0.16274125745E+01  0.91761580827E+01 -0.75665760487E+00  0.93500203122E+01  0.51100000000E-03 0. -1.
        -11    1    3    3    0    0 -0.11110047839E+02  0.48459013241E+01 -0.36835930174E+02  0.38778881813E+02  0.51100000000E-03 0.  1.
         12    1    3    3    0    0  0.96424521824E+01 -0.15168106179E+02  0.37825643393E+02  0.41878725234E+02  0.00000000000E+00 0. -1.
</event>
<event>
 7    1  0.1971192E-015  0.9000775E+02  0.7816164E-02  0.1186339E+00
        -11   -1    0    0    0    0  0.00000000000E+00  0.00000000000E+00  0.45593999997E+02  0.45594000000E+02  0.51100000000E-03 0.  1.
         11   -1    0    0    0    0 -0.00000000000E+00 -0.00000000000E+00 -0.45593999997E+02  0.45594000000E+02  0.51100000000E-03 0. -1.
    9900012    2    1    2    0    0 -0.65848447588E+00 -0.66179468981E+00  0.72209674365E+00  0.90007746754E+02  0.90000008212E+02 0.  0.
         12    1    1    2    0    0  0.65848447588E+00  0.66179468981E+00 -0.72209674365E+00  0.11802532455E+01  0.00000000000E+00 0. -1.
         11    1    3    3    0    0  0.24057770289E+02  0.25147451363E+02  0.60537833509E+01  0.35324480385E+02  0.51100000000E-03 0. -1.
        -11    1    3    3    0    0  0.23414010538E+01  0.90171269145E+01  0.30279759259E+01  0.97958856239E+01  0.51100000000E-03 0.  1.
        -12    1    3    3    0    0 -0.27057655819E+02 -0.34826372968E+02 -0.83596625332E+01  0.44887380745E+02  0.00000000000E+00 0.  1.
</event>
<event>
 7    1  0.1971192E-015  0.9000765E+02  0.7816164E-02  0.1186339E+00
        -11   -1    0    0    0    0  0.00000000000E+00  0.00000000000E+00  0.45593999997E+02  0.45594000000E+02  0.51100000000E-03 0.  1.
         11   -1    0    0    0    0 -0.00000000000E+00 -0.00000000000E+00 -0.45593999997E+02  0.45594000000E+02  0.51100000000E-03 0. -1.
    9900012    2    1    2    0    0  0.80929560028E+00  0.43632660671E+00  0.74019452088E+00  0.90007649118E+02  0.89999909286E+02 0.  0.
         12    1    1    2    0    0 -0.80929560028E+00 -0.43632660671E+00 -0.74019452088E+00  0.11803508822E+01  0.00000000000E+00 0. -1.
         11    1    3    3    0    0 -0.64732977966E+01  0.49585051960E+01  0.64036489727E+01  0.10368079792E+02  0.51100000000E-03 0. -1.
        -11    1    3    3    0    0  0.24152784955E+02  0.31210303835E+00  0.30818275272E+02  0.39156359897E+02  0.51100000000E-03 0.  1.
         12    1    3    3    0    0 -0.16870191558E+02 -0.48342816277E+01 -0.36481729723E+02  0.40483209429E+02  0.00000000000E+00 0. -1.
</event>
<event>
 7    1  0.1971192E-015  0.9000778E+02  0.7816164E-02  0.1186339E+00
        -11   -1    0    0    0    0  0.00000000000E+00  0.00000000000E+00  0.45593999997E+02  0.45594000000E+02  0.51100000000E-03 0. -1.
         11   -1    0    0    0    0 -0.00000000000E+00 -0.00000000000E+00 -0.45593999997E+02  0.45594000000E+02  0.51100000000E-03 0.  1.
    9900012    2    1    2    0    0 -0.94583889953E+00 -0.59650252156E+00 -0.37747330152E+00  0.90007782827E+02  0.90000044760E+02 0.  0.
         12    1    1    2    0    0  0.94583889953E+00  0.59650252156E+00  0.37747330152E+00  0.11802171730E+01  0.00000000000E+00 0. -1.
         11    1    3    3    0    0  0.16991657388E-01 -0.83792524538E+01 -0.63029655598E+01  0.10485205554E+02  0.51100000000E-03 0. -1.
        -11    1    3    3    0    0  0.14200527510E+01 -0.28804217106E+02 -0.19581141772E+02  0.34858579809E+02  0.51100000000E-03 0.  1.
         12    1    3    3    0    0 -0.23828833079E+01  0.36586967038E+02  0.25506634030E+02  0.44663997464E+02  0.00000000000E+00 0. -1.
</event>
<event>
 7    1  0.1971192E-015  0.9000776E+02  0.7816164E-02  0.1186339E+00
        -11   -1    0    0    0    0  0.00000000000E+00  0.00000000000E+00  0.45593999997E+02  0.45594000000E+02  0.51100000000E-03 0.  1.
         11   -1    0    0    0    0 -0.00000000000E+00 -0.00000000000E+00 -0.45593999997E+02  0.45594000000E+02  0.51100000000E-03 0. -1.
    9900012    2    1    2    0    0  0.34015033720E-01  0.94609798946E+00 -0.70476725422E+00  0.90007764722E+02  0.90000026417E+02 0.  0.
         12    1    1    2    0    0 -0.34015033720E-01 -0.94609798946E+00  0.70476725422E+00  0.11802352777E+01  0.00000000000E+00 0. -1.
         11    1    3    3    0    0  0.26770172474E+02 -0.14956466524E+02 -0.18555679180E+02  0.35842031963E+02  0.51100000000E-03 0. -1.
        -11    1    3    3    0    0  0.82908164523E+01 -0.17206864489E+01 -0.39042989722E+01  0.93242667286E+01  0.51100000000E-03 0.  1.
        -12    1    3    3    0    0 -0.35026973892E+02  0.17623250962E+02  0.21755210898E+02  0.44841466030E+02  0.00000000000E+00 0.  1.
</event>
<event>
 7    1  0.1971192E-015  0.9000778E+02  0.7816164E-02  0.1186339E+00
        -11   -1    0    0    0    0  0.00000000000E+00  0.00000000000E+00  0.45593999997E+02  0.45594000000E+02  0.51100000000E-03 0. -1.
         11   -1    0    0    0    0 -0.00000000000E+00 -0.00000000000E+00 -0.45593999997E+02  0.45594000000E+02  0.51100000000E-03 0.  1.
    9900012    2    1    2    0    0  0.60146664470E-01  0.11235288646E+01 -0.35633825455E+00  0.90007783205E+02  0.90000045144E+02 0.  0.
         12    1    1    2    0    0 -0.60146664470E-01 -0.11235288646E+01  0.35633825455E+00  0.11802167947E+01  0.00000000000E+00 0. -1.
         11    1    3    3    0    0 -0.20972520336E+02  0.22020748502E+02  0.20369000438E+02  0.36601313541E+02  0.51100000000E-03 0. -1.
        -11    1    3    3    0    0 -0.73007092709E+01  0.50781188435E+01  0.14798063221E+01  0.90154020353E+01  0.51100000000E-03 0.  1.
        -12    1    3    3    0    0  0.28333376271E+02 -0.25975338481E+02 -0.22205145014E+02  0.44391067629E+02  0.00000000000E+00 0.  1.
</event>
<event>
 7    1  0.1971192E-015  0.9000767E+02  0.7816164E-02  0.1186339E+00
        -11   -1    0    0    0    0  0.00000000000E+00  0.00000000000E+00  0.45593999997E+02  0.45594000000E+02  0.51100000000E-03 0.  1.
         11   -1    0    0    0    0 -0.00000000000E+00 -0.00000000000E+00 -0.45593999997E+02  0.45594000000E+02  0.51100000000E-03 0. -1.
    9900012    2    1    2    0    0  0.31570317423E-01  0.88033828707E+00  0.78560631642E+00  0.90007673999E+02  0.89999934496E+02 0.  0.
         12    1    1    2    0    0 -0.31570317423E-01 -0.88033828707E+00 -0.78560631642E+00  0.11803260012E+01  0.00000000000E+00 0. -1.
         11    1    3    3    0    0  0.21709632968E+01  0.16558518529E+02 -0.32385572149E+02  0.36437932175E+02  0.51100000000E-03 0. -1.
        -11    1    3    3    0    0 -0.13520634771E+02  0.19040589799E+01 -0.78187313794E+00  0.13676415140E+02  0.51100000000E-03 0.  1.
        -12    1    3    3    0    0  0.11381241792E+02 -0.17582239221E+02  0.33953051603E+02  0.39893326684E+02  0.00000000000E+00 0.  1.
</event>
<event>
 7    1  0.1971192E-015  0.9000770E+02  0.7816164E-02  0.1186339E+00
        -11   -1    0    0    0    0  0.00000000000E+00  0.00000000000E+00  0.45593999997E+02  0.45594000000E+02  0.51100000000E-03 0. -1.
         11   -1    0    0    0    0 -0.00000000000E+00 -0.00000000000E+00 -0.45593999997E+02  0.45594000000E+02  0.51100000000E-03 0.  1.
    9900012    2    1    2    0    0 -0.97176912179E+00 -0.50813883114E+00 -0.43655303997E+00  0.90007695440E+02  0.89999956220E+02 0.  0.
         12    1    1    2    0    0  0.97176912179E+00  0.50813883114E+00  0.43655303997E+00  0.11803045600E+01  0.00000000000E+00 0. -1.
         11    1    3    3    0    0  0.23841040951E+01  0.34110698503E+01  0.97113559567E+01  0.10565499734E+02  0.51100000000E-03 0. -1.
        -11    1    3    3    0    0  0.87383081100E+01 -0.37813326020E+02  0.72320072387E+01  0.39477937918E+02  0.51100000000E-03 0.  1.
         12    1    3    3    0    0 -0.12094181327E+02  0.33894117339E+02 -0.17379916235E+02  0.39964257787E+02  0.00000000000E+00 0. -1.
</event>
<event>
 7    1  0.2382319E-015  0.9000778E+02  0.7816164E-02  0.1186339E+00
        -11   -1    0    0    0    0  0.00000000000E+00  0.00000000000E+00  0.45593999997E+02  0.45594000000E+02  0.51100000000E-03 0.  1.
         11   -1    0    0    0    0 -0.00000000000E+00 -0.00000000000E+00 -0.45593999997E+02  0.45594000000E+02  0.51100000000E-03 0. -1.
    9900012    2    1    2    0    0  0.82765671600E+00 -0.68368293748E+00  0.49039963997E+00  0.90007775528E+02  0.90000037364E+02 0.  0.
         12    1    1    2    0    0 -0.82765671600E+00  0.68368293748E+00 -0.49039963997E+00  0.11802244725E+01  0.00000000000E+00 0. -1.
         11    1    3    3    0    0  0.18568060433E+01 -0.20722127769E+02 -0.31176159182E+02  0.37480757857E+02  0.51100000000E-03 0. -1.
        -11    1    3    3    0    0  0.85599189773E+01 -0.48811217911E+01 -0.14793995055E+01  0.99642453801E+01  0.51100000000E-03 0.  1.
        -12    1    3    3    0    0 -0.95890683047E+01  0.24919566622E+02  0.33145958327E+02  0.42562772290E+02  0.00000000000E+00 0.  1.
</event>
<event>
 7    1  0.1971192E-015  0.9000761E+02  0.7816164E-02  0.1186339E+00
        -11   -1    0    0    0    0  0.00000000000E+00  0.00000000000E+00  0.45593999997E+02  0.45594000000E+02  0.51100000000E-03 0. -1.
         11   -1    0    0    0    0 -0.00000000000E+00 -0.00000000000E+00 -0.45593999997E+02  0.45594000000E+02  0.51100000000E-03 0.  1.
    9900012    2    1    2    0    0  0.77555085437E+00  0.84781882786E+00  0.27027564328E+00  0.90007608194E+02  0.89999867822E+02 0.  0.
         12    1    1    2    0    0 -0.77555085437E+00 -0.84781882786E+00 -0.27027564328E+00  0.11803918061E+01  0.00000000000E+00 0. -1.
         11    1    3    3    0    0  0.83122687400E+01 -0.36520301946E+01 -0.15420805071E+01  0.92091882759E+01  0.51100000000E-03 0. -1.
        -11    1    3    3    0    0  0.36038965319E+01 -0.83676082066E+01 -0.37165854883E+02  0.38266247618E+02  0.51100000000E-03 0.  1.
         12    1    3    3    0    0 -0.11140614418E+02  0.12867457229E+02  0.38978211034E+02  0.42532172300E+02  0.00000000000E+00 0. -1.
</event>
<event>
 7    1  0.1971192E-015  0.9000768E+02  0.7816164E-02  0.1186339E+00
        -11   -1    0    0    0    0  0.00000000000E+00  0.00000000000E+00  0.45593999997E+02  0.45594000000E+02  0.51100000000E-03 0. -1.
         11   -1    0    0    0    0 -0.00000000000E+00 -0.00000000000E+00 -0.45593999997E+02  0.45594000000E+02  0.51100000000E-03 0.  1.
    9900012    2    1    2    0    0  0.50209509227E+00 -0.50531666028E+00  0.94112414573E+00  0.90007678405E+02  0.89999938960E+02 0.  0.
         12    1    1    2    0    0 -0.50209509227E+00  0.50531666028E+00 -0.94112414573E+00  0.11803215945E+01  0.00000000000E+00 0. -1.
         11    1    3    3    0    0 -0.23003063360E+02  0.24323983154E+02 -0.14083700265E+02  0.36320072877E+02  0.51100000000E-03 0. -1.
        -11    1    3    3    0    0 -0.34276572047E+01  0.72050196037E+01 -0.24316869062E+01  0.83411176034E+01  0.51100000000E-03 0.  1.
        -12    1    3    3    0    0  0.26932815657E+02 -0.32034319418E+02  0.17456511316E+02  0.45346487925E+02  0.00000000000E+00 0.  1.
</event>
<event>
 7    1  0.1971192E-015  0.9000778E+02  0.7816164E-02  0.1186339E+00
        -11   -1    0    0    0    0  0.00000000000E+00  0.00000000000E+00  0.45593999997E+02  0.45594000000E+02  0.51100000000E-03 0.  1.
         11   -1    0    0    0    0 -0.00000000000E+00 -0.00000000000E+00 -0.45593999997E+02  0.45594000000E+02  0.51100000000E-03 0. -1.
    9900012    2    1    2    0    0  0.48233713496E+00 -0.97421812662E+00  0.45952812071E+00  0.90007781307E+02  0.90000043220E+02 0.  0.
         12    1    1    2    0    0 -0.48233713496E+00  0.97421812662E+00 -0.45952812071E+00  0.11802186932E+01  0.00000000000E+00 0. -1.
         11    1    3    3    0    0  0.26104414496E+02 -0.28703431100E+02  0.13771710703E+02  0.41170225031E+02  0.51100000000E-03 0. -1.
        -11    1    3    3    0    0 -0.70615985741E+00  0.30250785089E+00 -0.11724014328E+02  0.11749156777E+02  0.51100000000E-03 0.  1.
        -12    1    3    3    0    0 -0.24915917504E+02  0.27426705123E+02 -0.15881682538E+01  0.37088399499E+02  0.00000000000E+00 0.  1.
</event>
<event>
 7    1  0.1971192E-015  0.9000773E+02  0.7816164E-02  0.1186339E+00
        -11   -1    0    0    0    0  0.00000000000E+00  0.00000000000E+00  0.45593999997E+02  0.45594000000E+02  0.51100000000E-03 0. -1.
         11   -1    0    0    0    0 -0.00000000000E+00 -0.00000000000E+00 -0.45593999997E+02  0.45594000000E+02  0.51100000000E-03 0.  1.
    9900012    2    1    2    0    0  0.62767085975E+00 -0.87954918655E+00 -0.47482327268E+00  0.90007731124E+02  0.89999992375E+02 0.  0.
         12    1    1    2    0    0 -0.62767085975E+00  0.87954918655E+00  0.47482327268E+00  0.11802688762E+01  0.00000000000E+00 0. -1.
         11    1    3    3    0    0  0.32232497981E+02 -0.14921797689E+02 -0.22080348730E+01  0.35587489243E+02  0.51100000000E-03 0. -1.
        -11    1    3    3    0    0  0.79327260055E+01 -0.59085155473E+01  0.21943580528E+01  0.10131826359E+02  0.51100000000E-03 0.  1.
        -12    1    3    3    0    0 -0.39537553126E+02  0.19950764050E+02 -0.46114645256E+00  0.44288415522E+02  0.00000000000E+00 0.  1.
</event>
<event>
 7    1  0.1971192E-015  0.9000756E+02  0.7816164E-02  0.1186339E+00
        -11   -1    0    0    0    0  0.00000000000E+00  0.00000000000E+00  0.45593999997E+02  0.45594000000E+02  0.51100000000E-03 0.  1.
         11   -1    0    0    0    0 -0.00000000000E+00 -0.00000000000E+00 -0.45593999997E+02  0.45594000000E+02  0.51100000000E-03 0. -1.
    9900012    2    1    2    0    0 -0.23246067705E+00  0.11244661419E+01  0.27381656970E+00  0.90007560427E+02  0.89999819425E+02 0.  0.
         12    1    1    2    0    0  0.23246067705E+00 -0.11244661419E+01 -0.27381656970E+00  0.11804395726E+01  0.00000000000E+00 0. -1.
         11    1    3    3    0    0  0.25715242870E+02  0.23286275533E+02 -0.22012455302E+02  0.41086159868E+02  0.51100000000E-03 0. -1.
        -11    1    3    3    0    0  0.49971036656E+01  0.74090460574E+00  0.25289610662E+01  0.56493919155E+01  0.51100000000E-03 0.  1.
        -12    1    3    3    0    0 -0.30944807212E+02 -0.22902713997E+02  0.19757310805E+02  0.43272008644E+02  0.00000000000E+00 0.  1.
</event>
<event>
 7    1  0.1971192E-015  0.9000766E+02  0.7816164E-02  0.1186339E+00
        -11   -1    0    0    0    0  0.00000000000E+00  0.00000000000E+00  0.45593999997E+02  0.45594000000E+02  0.51100000000E-03 0.  1.
         11   -1    0    0    0    0 -0.00000000000E+00 -0.00000000000E+00 -0.45593999997E+02  0.45594000000E+02  0.51100000000E-03 0. -1.
    9900012    2    1    2    0    0 -0.19166001710E+00  0.36885371769E+00  0.11047237706E+01  0.90007660542E+02  0.89999920861E+02 0.  0.
         12    1    1    2    0    0  0.19166001710E+00 -0.36885371769E+00 -0.11047237706E+01  0.11803394582E+01  0.00000000000E+00 0. -1.
         11    1    3    3    0    0  0.76584290519E+01  0.85220037697E+00  0.56841043559E+01  0.95753236820E+01  0.51100000000E-03 0. -1.
        -11    1    3    3    0    0  0.30321627817E+02  0.20999634302E+01 -0.22858873567E+02  0.38030764664E+02  0.51100000000E-03 0.  1.
         12    1    3    3    0    0 -0.38171716886E+02 -0.25833100894E+01  0.18279492982E+02  0.42401572196E+02  0.00000000000E+00 0. -1.
</event>
<event>
 7    1  0.1971192E-015  0.9000863E+02  0.7816164E-02  0.1186337E+00
        -11   -1    0    0    0    0  0.00000000000E+00  0.00000000000E+00  0.45593999997E+02  0.45594000000E+02  0.51100000000E-03 0. -1.
         11   -1    0    0    0    0 -0.00000000000E+00 -0.00000000000E+00 -0.45593999997E+02  0.45594000000E+02  0.51100000000E-03 0.  1.
    9900012    2    1    2    0    0  0.42866036550E+00  0.74954386166E+00 -0.80333013867E+00  0.90008633636E+02  0.90000906795E+02 0.  0.
         12    1    1    2    0    0 -0.42866036550E+00 -0.74954386166E+00  0.80333013867E+00  0.11793663643E+01  0.00000000000E+00 0. -1.
         11    1    3    3    0    0 -0.17157512506E+02 -0.32712326431E+02  0.16621247301E+02  0.40506078532E+02  0.51100000000E-03 0. -1.
        -11    1    3    3    0    0  0.81787227713E+01  0.32609953666E+01  0.55494743539E+01  0.10407798173E+02  0.51100000000E-03 0.  1.
        -12    1    3    3    0    0  0.94074500999E+01  0.30200874926E+02 -0.22974051793E+02  0.39094756931E+02  0.00000000000E+00 0.  1.
</event>
<event>
 7    1  0.1971192E-015  0.9000777E+02  0.7816164E-02  0.1186339E+00
        -11   -1    0    0    0    0  0.00000000000E+00  0.00000000000E+00  0.45593999997E+02  0.45594000000E+02  0.51100000000E-03 0. -1.
         11   -1    0    0    0    0 -0.00000000000E+00 -0.00000000000E+00 -0.45593999997E+02  0.45594000000E+02  0.51100000000E-03 0.  1.
    9900012    2    1    2    0    0 -0.65869825175E+00  0.29792869349E+00 -0.93289378486E+00  0.90007773027E+02  0.90000034831E+02 0.  0.
         12    1    1    2    0    0  0.65869825175E+00 -0.29792869349E+00  0.93289378486E+00  0.11802269727E+01  0.00000000000E+00 0. -1.
         11    1    3    3    0    0  0.61757395345E+01 -0.39488749607E+01  0.77370279107E+01  0.10658094267E+02  0.51100000000E-03 0. -1.
        -11    1    3    3    0    0 -0.26435809737E+01 -0.32675812183E+02 -0.22432841874E+02  0.39723162223E+02  0.51100000000E-03 0.  1.
         12    1    3    3    0    0 -0.41908568125E+01  0.36922615837E+02  0.13762920178E+02  0.39626516538E+02  0.00000000000E+00 0. -1.
</event>
<event>
 7    1  0.1971192E-015  0.9000776E+02  0.7816164E-02  0.1186339E+00
        -11   -1    0    0    0    0  0.00000000000E+00  0.00000000000E+00  0.45593999997E+02  0.45594000000E+02  0.51100000000E-03 0.  1.
         11   -1    0    0    0    0 -0.00000000000E+00 -0.00000000000E+00 -0.45593999997E+02  0.45594000000E+02  0.51100000000E-03 0. -1.
    9900012    2    1    2    0    0  0.17813787129E+00 -0.11265324212E+01 -0.30359083394E+00  0.90007756046E+02  0.90000017626E+02 0.  0.
         12    1    1    2    0    0 -0.17813787129E+00  0.11265324212E+01  0.30359083394E+00  0.11802439543E+01  0.00000000000E+00 0. -1.
         11    1    3    3    0    0 -0.75806951405E+01 -0.46537570143E+01  0.49914684396E+01  0.10199958363E+02  0.51100000000E-03 0. -1.
        -11    1    3    3    0    0  0.41510817291E+02  0.10435460955E+02  0.67083019349E+01  0.43324913302E+02  0.51100000000E-03 0.  1.
         12    1    3    3    0    0 -0.33751984279E+02 -0.69082363616E+01 -0.12003361208E+02  0.36482884381E+02  0.00000000000E+00 0. -1.
</event>
<event>
 7    1  0.1971192E-015  0.9000752E+02  0.7816164E-02  0.1186339E+00
        -11   -1    0    0    0    0  0.00000000000E+00  0.00000000000E+00  0.45593999997E+02  0.45594000000E+02  0.51100000000E-03 0.  1.
         11   -1    0    0    0    0 -0.00000000000E+00 -0.00000000000E+00 -0.45593999997E+02  0.45594000000E+02  0.51100000000E-03 0. -1.
    9900012    2    1    2    0    0  0.34941047741E+00  0.97214078760E+00  0.57130360271E+00  0.90007519929E+02  0.89999778391E+02 0.  0.
         12    1    1    2    0    0 -0.34941047741E+00 -0.97214078760E+00 -0.57130360271E+00  0.11804800715E+01  0.00000000000E+00 0. -1.
         11    1    3    3    0    0 -0.72372397645E+00 -0.55955818857E+01  0.31653053864E+01  0.64694259007E+01  0.51100000000E-03 0. -1.
        -11    1    3    3    0    0  0.19382874979E+02 -0.24615687206E+02  0.23314085896E+02  0.39053482565E+02  0.51100000000E-03 0.  1.
         12    1    3    3    0    0 -0.18309740525E+02  0.31183409879E+02 -0.25908087679E+02  0.44484611463E+02  0.00000000000E+00 0. -1.
</event>
<event>
 7    1  0.1971192E-015  0.9000780E+02  0.7816164E-02  0.1186339E+00
        -11   -1    0    0    0    0  0.00000000000E+00  0.00000000000E+00  0.45593999997E+02  0.45594000000E+02  0.51100000000E-03 0.  1.
         11   -1    0    0    0    0 -0.00000000000E+00 -0.00000000000E+00 -0.45593999997E+02  0.45594000000E+02  0.51100000000E-03 0. -1.
    9900012    2    1    2    0    0  0.10739970012E+01  0.48927144509E+00 -0.39736880931E-02  0.90007800061E+02  0.90000062222E+02 0.  0.
         12    1    1    2    0    0 -0.10739970012E+01 -0.48927144509E+00  0.39736880931E-02  0.11801999389E+01  0.00000000000E+00 0. -1.
         11    1    3    3    0    0  0.36532298016E+01 -0.32380795159E+02  0.15333010449E+02  0.36013375193E+02  0.51100000000E-03 0. -1.
        -11    1    3    3    0    0  0.75352554140E+01 -0.66204139064E+01  0.99427544333E+00  0.10079610030E+02  0.51100000000E-03 0.  1.
        -12    1    3    3    0    0 -0.10114488214E+02  0.39490480510E+02 -0.16331259580E+02  0.43914814838E+02  0.00000000000E+00 0.  1.
</event>
<event>
 7    1  0.1971192E-015  0.9000775E+02  0.7816164E-02  0.1186339E+00
        -11   -1    0    0    0    0  0.00000000000E+00  0.00000000000E+00  0.45593999997E+02  0.45594000000E+02  0.51100000000E-03 0.  1.
         11   -1    0    0    0    0 -0.00000000000E+00 -0.00000000000E+00 -0.45593999997E+02  0.45594000000E+02  0.51100000000E-03 0. -1.
    9900012    2    1    2    0    0  0.10992102785E+01  0.30285093697E+00  0.30495699667E+00  0.90007753968E+02  0.90000015520E+02 0.  0.
         12    1    1    2    0    0 -0.10992102785E+01 -0.30285093697E+00 -0.30495699667E+00  0.11802460321E+01  0.00000000000E+00 0. -1.
         11    1    3    3    0    0 -0.32653326301E+01  0.24512260461E+01  0.91727154133E+01  0.10040399127E+02  0.51100000000E-03 0. -1.
        -11    1    3    3    0    0  0.28005633529E+02  0.81819851469E+01  0.24283571832E+02  0.37959876864E+02  0.51100000000E-03 0.  1.
         12    1    3    3    0    0 -0.23641090620E+02 -0.10330360256E+02 -0.33151330249E+02  0.42007477977E+02  0.00000000000E+00 0. -1.
</event>
<event>
 7    1  0.1971192E-015  0.9000757E+02  0.7816164E-02  0.1186339E+00
        -11   -1    0    0    0    0  0.00000000000E+00  0.00000000000E+00  0.45593999997E+02  0.45594000000E+02  0.51100000000E-03 0.  1.
         11   -1    0    0    0    0 -0.00000000000E+00 -0.00000000000E+00 -0.45593999997E+02  0.45594000000E+02  0.51100000000E-03 0. -1.
    9900012    2    1    2    0    0 -0.77195102474E+00 -0.30502993565E+00  0.83931880045E+00  0.90007573088E+02  0.89999832252E+02 0.  0.
         12    1    1    2    0    0  0.77195102474E+00  0.30502993565E+00 -0.83931880045E+00  0.11804269122E+01  0.00000000000E+00 0. -1.
         11    1    3    3    0    0 -0.33971806191E+01  0.28609787530E+01  0.84224498055E+01  0.95217486089E+01  0.51100000000E-03 0. -1.
        -11    1    3    3    0    0 -0.38402112476E+02 -0.25460893443E+01 -0.86231004928E+01  0.39440622154E+02  0.51100000000E-03 0.  1.
         12    1    3    3    0    0  0.41027342070E+02 -0.61991934435E+00  0.10399694877E+01  0.41045202325E+02  0.00000000000E+00 0. -1.
</event>
<event>
 7    1  0.1971192E-015  0.9000780E+02  0.7816164E-02  0.1186339E+00
        -11   -1    0    0    0    0  0.00000000000E+00  0.00000000000E+00  0.45593999997E+02  0.45594000000E+02  0.51100000000E-03 0.  1.
         11   -1    0    0    0    0 -0.00000000000E+00 -0.00000000000E+00 -0.45593999997E+02  0.45594000000E+02  0.51100000000E-03 0. -1.
    9900012    2    1    2    0    0 -0.70660104487E+00 -0.80511037675E+00 -0.49535923222E+00  0.90007801489E+02  0.90000063669E+02 0.  0.
         12    1    1    2    0    0  0.70660104487E+00  0.80511037675E+00  0.49535923222E+00  0.11801985105E+01  0.00000000000E+00 0. -1.
         11    1    3    3    0    0 -0.32482632161E+02 -0.12323210322E+02 -0.11668077474E+02  0.36648696252E+02  0.51100000000E-03 0. -1.
        -11    1    3    3    0    0  0.63650196479E+01  0.12728225195E+02 -0.12251084068E+02  0.18777919289E+02  0.51100000000E-03 0.  1.
        -12    1    3    3    0    0  0.25411011468E+02 -0.12101252498E+01  0.23423802310E+02  0.34581185949E+02  0.00000000000E+00 0.  1.
</event>
<event>
 7    1  0.1971192E-015  0.9000776E+02  0.7816164E-02  0.1186339E+00
        -11   -1    0    0    0    0  0.00000000000E+00  0.00000000000E+00  0.45593999997E+02  0.45594000000E+02  0.51100000000E-03 0. -1.
         11   -1    0    0    0    0 -0.00000000000E+00 -0.00000000000E+00 -0.45593999997E+02  0.45594000000E+02  0.51100000000E-03 0.  1.
    9900012    2    1    2    0    0 -0.93276753806E+00  0.29838819278E+00  0.65869501045E+00  0.90007758537E+02  0.90000020150E+02 0.  0.
         12    1    1    2    0    0  0.93276753806E+00 -0.29838819278E+00 -0.65869501045E+00  0.11802414628E+01  0.00000000000E+00 0. -1.
         11    1    3    3    0    0  0.35564187886E+02  0.15424704445E+02 -0.26110671926E+01  0.38852936045E+02  0.51100000000E-03 0. -1.
        -11    1    3    3    0    0  0.37472621576E+01 -0.95492523116E+01 -0.97732198253E+00  0.10304627694E+02  0.51100000000E-03 0.  1.
        -12    1    3    3    0    0 -0.40244217582E+02 -0.55770639403E+01  0.42470841856E+01  0.40850194798E+02  0.00000000000E+00 0.  1.
</event>
<event>
 7    1  0.1971192E-015  0.9000717E+02  0.7816164E-02  0.1186340E+00
        -11   -1    0    0    0    0  0.00000000000E+00  0.00000000000E+00  0.45593999997E+02  0.45594000000E+02  0.51100000000E-03 0.  1.
         11   -1    0    0    0    0 -0.00000000000E+00 -0.00000000000E+00 -0.45593999997E+02  0.45594000000E+02  0.51100000000E-03 0. -1.
    9900012    2    1    2    0    0  0.22692991472E+00 -0.10997963382E+01  0.36511342728E+00  0.90007171060E+02  0.89999424916E+02 0.  0.
         12    1    1    2    0    0 -0.22692991472E+00  0.10997963382E+01 -0.36511342728E+00  0.11808289404E+01  0.00000000000E+00 0. -1.
         11    1    3    3    0    0 -0.35293804705E+02  0.71413990629E+01  0.13125379888E+02  0.38326594273E+02  0.51100000000E-03 0. -1.
        -11    1    3    3    0    0  0.17734325197E+01  0.24815966327E+01  0.94173195826E+01  0.98989541433E+01  0.51100000000E-03 0.  1.
        -12    1    3    3    0    0  0.33747302100E+02 -0.10722792034E+02 -0.22177586043E+02  0.41781622643E+02  0.00000000000E+00 0.  1.
</event>
<event>
 7    1  0.1971192E-015  0.9000773E+02  0.7816164E-02  0.1186339E+00
        -11   -1    0    0    0    0  0.00000000000E+00  0.00000000000E+00  0.45593999997E+02  0.45594000000E+02  0.51100000000E-03 0. -1.
         11   -1    0    0    0    0 -0.00000000000E+00 -0.00000000000E+00 -0.45593999997E+02  0.45594000000E+02  0.51100000000E-03 0.  1.
    9900012    2    1    2    0    0 -0.11013659787E+01 -0.28914454885E+00 -0.31051446373E+00  0.90007732733E+02  0.89999994005E+02 0.  0.
         12    1    1    2    0    0  0.11013659787E+01  0.28914454885E+00  0.31051446373E+00  0.11802672669E+01  0.00000000000E+00 0. -1.
         11    1    3    3    0    0  0.29918769246E+02  0.93616635756E+01 -0.24835104557E+02  0.39994448574E+02  0.51100000000E-03 0. -1.
        -11    1    3    3    0    0 -0.35989834544E+01  0.79827187927E+01 -0.71184792200E+00  0.87853974841E+01  0.51100000000E-03 0.  1.
        -12    1    3    3    0    0 -0.27421151771E+02 -0.17633526917E+02  0.25236438016E+02  0.41227886675E+02  0.00000000000E+00 0.  1.
</event>
<event>
 7    1  0.1971192E-015  0.9000774E+02  0.7816164E-02  0.1186339E+00
        -11   -1    0    0    0    0  0.00000000000E+00  0.00000000000E+00  0.45593999997E+02  0.45594000000E+02  0.51100000000E-03 0. -1.
         11   -1    0    0    0    0 -0.00000000000E+00 -0.00000000000E+00 -0.45593999997E+02  0.45594000000E+02  0.51100000000E-03 0.  1.
    9900012    2    1    2    0    0  0.18417789521E+00 -0.88146801160E+00  0.76296354199E+00  0.90007737013E+02  0.89999998341E+02 0.  0.
         12    1    1    2    0    0 -0.18417789521E+00  0.88146801160E+00 -0.76296354199E+00  0.11802629872E+01  0.00000000000E+00 0. -1.
         11    1    3    3    0    0 -0.11235435852E+02 -0.83046830170E+01  0.98003491358E+00  0.14005829054E+02  0.51100000000E-03 0. -1.
        -11    1    3    3    0    0  0.13218507569E+02 -0.32896098442E+02  0.25756772126E+01  0.35545975137E+02  0.51100000000E-03 0.  1.
         12    1    3    3    0    0 -0.17988938217E+01  0.40319313448E+02 -0.27927485842E+01  0.40455932822E+02  0.00000000000E+00 0. -1.
</event>
<event>
 7    1  0.1971192E-015  0.9000773E+02  0.7816164E-02  0.1186339E+00
        -11   -1    0    0    0    0  0.00000000000E+00  0.00000000000E+00  0.45593999997E+02  0.45594000000E+02  0.51100000000E-03 0. -1.
         11   -1    0    0    0    0 -0.00000000000E+00 -0.00000000000E+00 -0.45593999997E+02  0.45594000000E+02  0.51100000000E-03 0.  1.
    9900012    2    1    2    0    0  0.11108189136E+01 -0.13950045954E+00 -0.37371279058E+00  0.90007728723E+02  0.89999989942E+02 0.  0.
         12    1    1    2    0    0 -0.11108189136E+01  0.13950045954E+00  0.37371279058E+00  0.11802712768E+01  0.00000000000E+00 0. -1.
         11    1    3    3    0    0 -0.80971928221E+01 -0.30326992590E+02  0.25976635292E+02  0.40744037509E+02  0.51100000000E-03 0. -1.
        -11    1    3    3    0    0  0.56228203340E+00  0.89126416267E+01  0.51287356686E+01  0.10298314021E+02  0.51100000000E-03 0.  1.
        -12    1    3    3    0    0  0.86457297023E+01  0.21274850504E+02 -0.31479083751E+02  0.38965377194E+02  0.00000000000E+00 0.  1.
</event>
<event>
 7    1  0.1971192E-015  0.9000776E+02  0.7816164E-02  0.1186339E+00
        -11   -1    0    0    0    0  0.00000000000E+00  0.00000000000E+00  0.45593999997E+02  0.45594000000E+02  0.51100000000E-03 0.  1.
         11   -1    0    0    0    0 -0.00000000000E+00 -0.00000000000E+00 -0.45593999997E+02  0.45594000000E+02  0.51100000000E-03 0. -1.
    9900012    2    1    2    0    0  0.97257953316E+00 -0.39023200410E+00  0.54292547160E+00  0.90007762722E+02  0.90000024390E+02 0.  0.
         12    1    1    2    0    0 -0.97257953316E+00  0.39023200410E+00 -0.54292547160E+00  0.11802372783E+01  0.00000000000E+00 0. -1.
         11    1    3    3    0    0 -0.36714990891E+02 -0.85020731199E+01  0.30662323441E+01  0.37811077537E+02  0.51100000000E-03 0. -1.
        -11    1    3    3    0    0 -0.39007465788E+01  0.25974583883E+01  0.77024384492E+01  0.90161062702E+01  0.51100000000E-03 0.  1.
        -12    1    3    3    0    0  0.41588317003E+02  0.55143827275E+01 -0.10225745322E+02  0.43180578914E+02  0.00000000000E+00 0.  1.
</event>
<event>
 7    1  0.1971192E-015  0.9000772E+02  0.7816164E-02  0.1186339E+00
        -11   -1    0    0    0    0  0.00000000000E+00  0.00000000000E+00  0.45593999997E+02  0.45594000000E+02  0.51100000000E-03 0.  1.
         11   -1    0    0    0    0 -0.00000000000E+00 -0.00000000000E+00 -0.45593999997E+02  0.45594000000E+02  0.51100000000E-03 0. -1.
    9900012    2    1    2    0    0  0.40859082808E+00  0.11009919114E+01  0.11804639538E+00  0.90007718421E+02  0.89999979504E+02 0.  0.
         12    1    1    2    0    0 -0.40859082808E+00 -0.11009919114E+01 -0.11804639538E+00  0.11802815788E+01  0.00000000000E+00 0. -1.
         11    1    3    3    0    0  0.56029864565E+01  0.48579425290E+01  0.64935951203E+01  0.98569691435E+01  0.51100000000E-03 0. -1.
        -11    1    3    3    0    0  0.15104875726E+02 -0.36794024284E+02  0.41025526094E+01  0.39984852530E+02  0.51100000000E-03 0.  1.
         12    1    3    3    0    0 -0.20299271355E+02  0.33037073666E+02 -0.10478101334E+02  0.40165896747E+02  0.00000000000E+00 0. -1.
</event>
<event>
 7    1  0.1971192E-015  0.9000780E+02  0.7816164E-02  0.1186339E+00
        -11   -1    0    0    0    0  0.00000000000E+00  0.00000000000E+00  0.45593999997E+02  0.45594000000E+02  0.51100000000E-03 0.  1.
         11   -1    0    0    0    0 -0.00000000000E+00 -0.00000000000E+00 -0.45593999997E+02  0.45594000000E+02  0.51100000000E-03 0. -1.
    9900012    2    1    2    0    0  0.77905974335E+00 -0.88629030284E+00 -0.20650707857E-01  0.90007800425E+02  0.90000062591E+02 0.  0.
         12    1    1    2    0    0 -0.77905974335E+00  0.88629030284E+00  0.20650707857E-01  0.11801995748E+01  0.00000000000E+00 0. -1.
         11    1    3    3    0    0 -0.14695336508E+01 -0.70250562885E+01 -0.33592768180E+02  0.34350910020E+02  0.51100000000E-03 0. -1.
        -11    1    3    3    0    0 -0.18407346176E+02  0.53265035157E+01  0.39994231250E+01  0.19575428949E+02  0.51100000000E-03 0.  1.
        -12    1    3    3    0    0  0.20655939570E+02  0.81226246992E+00  0.29572694347E+02  0.36081461456E+02  0.00000000000E+00 0.  1.
</event>
<event>
 7    1  0.1971192E-015  0.9000775E+02  0.7816164E-02  0.1186339E+00
        -11   -1    0    0    0    0  0.00000000000E+00  0.00000000000E+00  0.45593999997E+02  0.45594000000E+02  0.51100000000E-03 0.  1.
         11   -1    0    0    0    0 -0.00000000000E+00 -0.00000000000E+00 -0.45593999997E+02  0.45594000000E+02  0.51100000000E-03 0. -1.
    9900012    2    1    2    0    0  0.97242866773E+00 -0.66528223866E+00  0.69072226659E-01  0.90007750474E+02  0.90000011980E+02 0.  0.
         12    1    1    2    0    0 -0.97242866773E+00  0.66528223866E+00 -0.69072226659E-01  0.11802495259E+01  0.00000000000E+00 0. -1.
         11    1    3    3    0    0  0.27251299530E+01  0.68886796013E+01 -0.67647688096E+01  0.10032065451E+02  0.51100000000E-03 0. -1.
        -11    1    3    3    0    0  0.37892656811E+02  0.16620061215E+01 -0.31717818512E+01  0.38061475339E+02  0.51100000000E-03 0.  1.
         12    1    3    3    0    0 -0.39645358097E+02 -0.92159679615E+01  0.10005622888E+02  0.41914209684E+02  0.00000000000E+00 0. -1.
</event>
<event>
 7    1  0.1971192E-015  0.9000758E+02  0.7816164E-02  0.1186339E+00
        -11   -1    0    0    0    0  0.00000000000E+00  0.00000000000E+00  0.45593999997E+02  0.45594000000E+02  0.51100000000E-03 0.  1.
         11   -1    0    0    0    0 -0.00000000000E+00 -0.00000000000E+00 -0.45593999997E+02  0.45594000000E+02  0.51100000000E-03 0. -1.
    9900012    2    1    2    0    0 -0.16701427110E+00 -0.49943854389E+00  0.10564355651E+01  0.90007581121E+02  0.89999840392E+02 0.  0.
         12    1    1    2    0    0  0.16701427110E+00  0.49943854389E+00 -0.10564355651E+01  0.11804188787E+01  0.00000000000E+00 0. -1.
         11    1    3    3    0    0 -0.10668993093E+02 -0.77398574877E+01  0.10373481828E+01  0.13221531646E+02  0.51100000000E-03 0. -1.
        -11    1    3    3    0    0 -0.30418701997E+02  0.97414177928E+01  0.11926982539E+02  0.34094655952E+02  0.51100000000E-03 0.  1.
         12    1    3    3    0    0  0.40920680819E+02 -0.25009988489E+01 -0.11907895156E+02  0.42691393523E+02  0.00000000000E+00 0. -1.
</event>
<event>
 7    1  0.1971192E-015  0.9000776E+02  0.7816164E-02  0.1186339E+00
        -11   -1    0    0    0    0  0.00000000000E+00  0.00000000000E+00  0.45593999997E+02  0.45594000000E+02  0.51100000000E-03 0.  1.
         11   -1    0    0    0    0 -0.00000000000E+00 -0.00000000000E+00 -0.45593999997E+02  0.45594000000E+02  0.51100000000E-03 0. -1.
    9900012    2    1    2    0    0  0.40048366930E+00  0.46271349299E+00 -0.10092009227E+01  0.90007755344E+02  0.90000016914E+02 0.  0.
         12    1    1    2    0    0 -0.40048366930E+00 -0.46271349299E+00  0.10092009227E+01  0.11802446562E+01  0.00000000000E+00 0. -1.
         11    1    3    3    0    0 -0.37880621958E+01  0.10716940040E+02 -0.84580121565E+01  0.14168281086E+02  0.51100000000E-03 0. -1.
        -11    1    3    3    0    0 -0.41657706889E+00 -0.18800601188E+02  0.38747484093E+02  0.43069753486E+02  0.51100000000E-03 0.  1.
         12    1    3    3    0    0  0.46051229340E+01  0.85463746412E+01 -0.31298672859E+02  0.32769720772E+02  0.00000000000E+00 0. -1.
</event>
<event>
 7    1  0.1971192E-015  0.9000784E+02  0.7816164E-02  0.1186339E+00
        -11   -1    0    0    0    0  0.00000000000E+00  0.00000000000E+00  0.45593999997E+02  0.45594000000E+02  0.51100000000E-03 0. -1.
         11   -1    0    0    0    0 -0.00000000000E+00 -0.00000000000E+00 -0.45593999997E+02  0.45594000000E+02  0.51100000000E-03 0.  1.
    9900012    2    1    2    0    0 -0.56347218801E+00 -0.24593058731E+00 -0.10073705344E+01  0.90007839776E+02  0.90000102461E+02 0.  0.
         12    1    1    2    0    0  0.56347218801E+00  0.24593058731E+00  0.10073705344E+01  0.11801602239E+01  0.00000000000E+00 0. -1.
         11    1    3    3    0    0 -0.17230833811E+02 -0.19534818450E+02  0.19086221863E+02  0.32292330838E+02  0.51100000000E-03 0. -1.
        -11    1    3    3    0    0  0.96654677516E+01 -0.77531803156E+01  0.10533372142E+02  0.16262994829E+02  0.51100000000E-03 0.  1.
        -12    1    3    3    0    0  0.70018938713E+01  0.27042068178E+02 -0.30626964539E+02  0.41452514109E+02  0.00000000000E+00 0.  1.
</event>
<event>
 7    1  0.1971192E-015  0.9000756E+02  0.7816164E-02  0.1186339E+00
        -11   -1    0    0    0    0  0.00000000000E+00  0.00000000000E+00  0.45593999997E+02  0.45594000000E+02  0.51100000000E-03 0.  1.
         11   -1    0    0    0    0 -0.00000000000E+00 -0.00000000000E+00 -0.45593999997E+02  0.45594000000E+02  0.51100000000E-03 0. -1.
    9900012    2    1    2    0    0  0.38970685821E-01  0.70192044987E+00 -0.94828144194E+00  0.90007555708E+02  0.89999814644E+02 0.  0.
         12    1    1    2    0    0 -0.38970685821E-01 -0.70192044987E+00  0.94828144194E+00  0.11804442915E+01  0.00000000000E+00 0. -1.
         11    1    3    3    0    0  0.47150174973E+01  0.37018249864E+02 -0.18003030342E+01  0.37360718733E+02  0.51100000000E-03 0. -1.
        -11    1    3    3    0    0  0.96489971600E+01  0.19783099747E+01  0.58504043814E+01  0.11456181224E+02  0.51100000000E-03 0.  1.
        -12    1    3    3    0    0 -0.14325043971E+02 -0.38294639389E+02 -0.49983827891E+01  0.41190655751E+02  0.00000000000E+00 0.  1.
</event>
<event>
 7    1  0.2439734E-015  0.9000767E+02  0.7816164E-02  0.1186339E+00
        -11   -1    0    0    0    0  0.00000000000E+00  0.00000000000E+00  0.45593999997E+02  0.45594000000E+02  0.51100000000E-03 0. -1.
         11   -1    0    0    0    0 -0.00000000000E+00 -0.00000000000E+00 -0.45593999997E+02  0.45594000000E+02  0.51100000000E-03 0.  1.
    9900012    2    1    2    0    0  0.42918470347E+00 -0.61177056968E+00 -0.91362975586E+00  0.90007668661E+02  0.89999929087E+02 0.  0.
         12    1    1    2    0    0 -0.42918470347E+00  0.61177056968E+00  0.91362975586E+00  0.11803313393E+01  0.00000000000E+00 0. -1.
         11    1    3    3    0    0  0.20923293608E+02  0.22319312674E+02  0.26205717497E+02  0.40282447337E+02  0.51100000000E-03 0. -1.
        -11    1    3    3    0    0 -0.32156259750E+01 -0.77713964117E+01  0.53316896967E+01  0.99580001949E+01  0.51100000000E-03 0.  1.
        -12    1    3    3    0    0 -0.17278482930E+02 -0.15159686832E+02 -0.32451036950E+02  0.39767221129E+02  0.00000000000E+00 0.  1.
</event>
<event>
 7    1  0.1971192E-015  0.9000771E+02  0.7816164E-02  0.1186339E+00
        -11   -1    0    0    0    0  0.00000000000E+00  0.00000000000E+00  0.45593999997E+02  0.45594000000E+02  0.51100000000E-03 0.  1.
         11   -1    0    0    0    0 -0.00000000000E+00 -0.00000000000E+00 -0.45593999997E+02  0.45594000000E+02  0.51100000000E-03 0. -1.
    9900012    2    1    2    0    0  0.27861801602E+00  0.64469785141E+00  0.94858727169E+00  0.90007711421E+02  0.89999972411E+02 0.  0.
         12    1    1    2    0    0 -0.27861801602E+00 -0.64469785141E+00 -0.94858727169E+00  0.11802885793E+01  0.00000000000E+00 0. -1.
         11    1    3    3    0    0  0.18046953504E+02  0.31186049780E+01 -0.32792014613E+02  0.37559745079E+02  0.51100000000E-03 0. -1.
        -11    1    3    3    0    0 -0.63130872353E+00  0.96536323957E+01 -0.30029528526E+01  0.10129604890E+02  0.51100000000E-03 0.  1.
        -12    1    3    3    0    0 -0.17137026765E+02 -0.12127539522E+02  0.36743554737E+02  0.42318361451E+02  0.00000000000E+00 0.  1.
</event>
<event>
 7    1  0.1971192E-015  0.9000781E+02  0.7816164E-02  0.1186339E+00
        -11   -1    0    0    0    0  0.00000000000E+00  0.00000000000E+00  0.45593999997E+02  0.45594000000E+02  0.51100000000E-03 0.  1.
         11   -1    0    0    0    0 -0.00000000000E+00 -0.00000000000E+00 -0.45593999997E+02  0.45594000000E+02  0.51100000000E-03 0. -1.
    9900012    2    1    2    0    0 -0.63549900819E+00 -0.94040247968E+00  0.32348275140E+00  0.90007806413E+02  0.90000068657E+02 0.  0.
         12    1    1    2    0    0  0.63549900819E+00  0.94040247968E+00 -0.32348275140E+00  0.11801935874E+01  0.00000000000E+00 0. -1.
         11    1    3    3    0    0  0.18187131750E+02  0.27730842650E+02 -0.26020867619E+01  0.33264729838E+02  0.51100000000E-03 0. -1.
        -11    1    3    3    0    0  0.49152062482E+01  0.85023955946E+01 -0.63192813195E+01  0.11678326077E+02  0.51100000000E-03 0.  1.
        -12    1    3    3    0    0 -0.23737837007E+02 -0.37173640725E+02  0.92448508328E+01  0.45064750498E+02  0.00000000000E+00 0.  1.
</event>
<event>
 7    1  0.1971192E-015  0.9000770E+02  0.7816164E-02  0.1186339E+00
        -11   -1    0    0    0    0  0.00000000000E+00  0.00000000000E+00  0.45593999997E+02  0.45594000000E+02  0.51100000000E-03 0.  1.
         11   -1    0    0    0    0 -0.00000000000E+00 -0.00000000000E+00 -0.45593999997E+02  0.45594000000E+02  0.51100000000E-03 0. -1.
    9900012    2    1    2    0    0 -0.90371477745E+00 -0.38552195394E+00  0.65404351319E+00  0.90007703218E+02  0.89999964101E+02 0.  0.
         12    1    1    2    0    0  0.90371477745E+00  0.38552195394E+00 -0.65404351319E+00  0.11802967818E+01  0.00000000000E+00 0. -1.
         11    1    3    3    0    0  0.22680936152E+01 -0.29366624017E+02 -0.24135919863E+02  0.38079987955E+02  0.51100000000E-03 0. -1.
        -11    1    3    3    0    0 -0.54932176527E+01 -0.65910936586E+01  0.12901402647E+00  0.85810605800E+01  0.51100000000E-03 0.  1.
        -12    1    3    3    0    0  0.23214092600E+01  0.35572195722E+02  0.24660949349E+02  0.43346654683E+02  0.00000000000E+00 0.  1.
</event>
<event>
 7    1  0.1971192E-015  0.9000773E+02  0.7816164E-02  0.1186339E+00
        -11   -1    0    0    0    0  0.00000000000E+00  0.00000000000E+00  0.45593999997E+02  0.45594000000E+02  0.51100000000E-03 0. -1.
         11   -1    0    0    0    0 -0.00000000000E+00 -0.00000000000E+00 -0.45593999997E+02  0.45594000000E+02  0.51100000000E-03 0.  1.
    9900012    2    1    2    0    0  0.15190489136E+00 -0.87504538781E-01 -0.11671745140E+01  0.90007733722E+02  0.89999995007E+02 0.  0.
         12    1    1    2    0    0 -0.15190489136E+00  0.87504538781E-01  0.11671745140E+01  0.11802662778E+01  0.00000000000E+00 0. -1.
         11    1    3    3    0    0 -0.22343226080E+02  0.14236886345E+02 -0.45937432751E+00  0.26497541575E+02  0.51100000000E-03 0. -1.
        -11    1    3    3    0    0 -0.17586651513E+02  0.47414293267E+01 -0.50809282555E+01  0.18909978733E+02  0.51100000000E-03 0.  1.
         12    1    3    3    0    0  0.40081782485E+02 -0.19065820211E+02  0.43731280689E+01  0.44600213414E+02  0.00000000000E+00 0. -1.
</event>
<event>
 7    1  0.1971192E-015  0.9000868E+02  0.7816164E-02  0.1186337E+00
        -11   -1    0    0    0    0  0.00000000000E+00  0.00000000000E+00  0.45593999997E+02  0.45594000000E+02  0.51100000000E-03 0.  1.
         11   -1    0    0    0    0 -0.00000000000E+00 -0.00000000000E+00 -0.45593999997E+02  0.45594000000E+02  0.51100000000E-03 0. -1.
    9900012    2    1    2    0    0 -0.14995368347E+00 -0.69375593155E+00  0.94181205031E+00  0.90008680986E+02  0.90000954769E+02 0.  0.
         12    1    1    2    0    0  0.14995368347E+00  0.69375593155E+00 -0.94181205031E+00  0.11793190145E+01  0.00000000000E+00 0. -1.
         11    1    3    3    0    0  0.27325782160E+01  0.52019515636E+00  0.10470826899E+02  0.10834011396E+02  0.51100000000E-03 0. -1.
        -11    1    3    3    0    0 -0.28034885970E+02 -0.84835187349E+01  0.23126230294E+02  0.37319531740E+02  0.51100000000E-03 0.  1.
         12    1    3    3    0    0  0.25152354070E+02  0.72695676470E+01 -0.32655245143E+02  0.41855137849E+02  0.00000000000E+00 0. -1.
</event>
<event>
 7    1  0.1971192E-015  0.9000771E+02  0.7816164E-02  0.1186339E+00
        -11   -1    0    0    0    0  0.00000000000E+00  0.00000000000E+00  0.45593999997E+02  0.45594000000E+02  0.51100000000E-03 0. -1.
         11   -1    0    0    0    0 -0.00000000000E+00 -0.00000000000E+00 -0.45593999997E+02  0.45594000000E+02  0.51100000000E-03 0.  1.
    9900012    2    1    2    0    0  0.73789431580E+00  0.65536647086E+00  0.64736389026E+00  0.90007714764E+02  0.89999975799E+02 0.  0.
         12    1    1    2    0    0 -0.73789431580E+00 -0.65536647086E+00 -0.64736389026E+00  0.11802852362E+01  0.00000000000E+00 0. -1.
         11    1    3    3    0    0 -0.44653822060E+01 -0.72543625570E+01  0.51713597438E+01  0.99653588101E+01  0.51100000000E-03 0. -1.
        -11    1    3    3    0    0 -0.24335440524E+02 -0.21516855501E+02  0.12769480459E+02  0.34903414842E+02  0.51100000000E-03 0.  1.
         12    1    3    3    0    0  0.29538717046E+02  0.29426584528E+02 -0.17293476313E+02  0.45138941112E+02  0.00000000000E+00 0. -1.
</event>
<event>
 7    1  0.1971192E-015  0.9000776E+02  0.7816164E-02  0.1186339E+00
        -11   -1    0    0    0    0  0.00000000000E+00  0.00000000000E+00  0.45593999997E+02  0.45594000000E+02  0.51100000000E-03 0.  1.
         11   -1    0    0    0    0 -0.00000000000E+00 -0.00000000000E+00 -0.45593999997E+02  0.45594000000E+02  0.51100000000E-03 0. -1.
    9900012    2    1    2    0    0 -0.73191302720E-01 -0.12611268568E+00  0.11712007012E+01  0.90007757458E+02  0.90000019056E+02 0.  0.
         12    1    1    2    0    0  0.73191302720E-01  0.12611268568E+00 -0.11712007012E+01  0.11802425424E+01  0.00000000000E+00 0. -1.
         11    1    3    3    0    0 -0.30888625403E+02  0.90621810416E+01  0.23367640970E+02  0.39777844955E+02  0.51100000000E-03 0. -1.
        -11    1    3    3    0    0 -0.60711155170E+00  0.88102086803E+01 -0.48923148805E+01  0.10095697429E+02  0.51100000000E-03 0.  1.
        -12    1    3    3    0    0  0.31422545652E+02 -0.17998502408E+02 -0.17304125388E+02  0.40134215074E+02  0.00000000000E+00 0.  1.
</event>
<event>
 7    1  0.1971192E-015  0.9000810E+02  0.7816164E-02  0.1186338E+00
        -11   -1    0    0    0    0  0.00000000000E+00  0.00000000000E+00  0.45593999997E+02  0.45594000000E+02  0.51100000000E-03 0. -1.
         11   -1    0    0    0    0 -0.00000000000E+00 -0.00000000000E+00 -0.45593999997E+02  0.45594000000E+02  0.51100000000E-03 0.  1.
    9900012    2    1    2    0    0 -0.10336755998E+01 -0.41641446614E+00  0.38766387494E+00  0.90008097660E+02  0.90000363748E+02 0.  0.
         12    1    1    2    0    0  0.10336755998E+01  0.41641446614E+00 -0.38766387494E+00  0.11799023405E+01  0.00000000000E+00 0. -1.
         11    1    3    3    0    0  0.11809992800E+02  0.22218509774E+02  0.13635024838E+02  0.28619084700E+02  0.51100000000E-03 0. -1.
        -11    1    3    3    0    0 -0.19188926156E+01  0.17055041383E+02 -0.10525384304E+02  0.20133064855E+02  0.51100000000E-03 0.  1.
         12    1    3    3    0    0 -0.10924775784E+02 -0.39689965623E+02 -0.27219766589E+01  0.41255948104E+02  0.00000000000E+00 0. -1.
</event>
<event>
 8    1  0.1971192E-015  0.9000781E+02  0.7816164E-02  0.1186339E+00
        -11   -1    0    0    0    0  0.00000000000E+00  0.00000000000E+00  0.45593999997E+02  0.45594000000E+02  0.51100000000E-03 0.  1.
         11   -1    0    0    0    0 -0.00000000000E+00 -0.00000000000E+00 -0.45593999997E+02  0.45594000000E+02  0.51100000000E-03 0. -1.
    9900012    2    1    2    0    0  0.47630699919E+00  0.32540005543E+00  0.10296079185E+01  0.90007811024E+02  0.90000073329E+02 0.  0.
         23    2    3    3    0    0  0.21427802804E+02 -0.17042912634E+02  0.97610361915E+01  0.61427025488E+02  0.54114600883E+02 0.  0.
         12    1    1    2    0    0 -0.47630699919E+00 -0.32540005543E+00 -0.10296079185E+01  0.11801889761E+01  0.00000000000E+00 0. -1.
         11    1    4    4    0    0 -0.21561847336E+01  0.13954663773E+02 -0.10430549466E+02  0.17555003163E+02  0.51100000000E-03 0. -1.
        -11    1    4    4    0    0  0.23583987537E+02 -0.30997576407E+02  0.20191585657E+02  0.43872022325E+02  0.51100000000E-03 0.  1.
         12    1    3    3    0    0 -0.20951495805E+02  0.17368312690E+02 -0.87314282730E+01  0.28580785535E+02  0.00000000000E+00 0. -1.
</event>
<event>
 7    1  0.1971192E-015  0.9000761E+02  0.7816164E-02  0.1186339E+00
        -11   -1    0    0    0    0  0.00000000000E+00  0.00000000000E+00  0.45593999997E+02  0.45594000000E+02  0.51100000000E-03 0.  1.
         11   -1    0    0    0    0 -0.00000000000E+00 -0.00000000000E+00 -0.45593999997E+02  0.45594000000E+02  0.51100000000E-03 0. -1.
    9900012    2    1    2    0    0 -0.11466591351E+00 -0.11255258738E+01  0.33668185274E+00  0.90007613862E+02  0.89999873565E+02 0.  0.
         12    1    1    2    0    0  0.11466591351E+00  0.11255258738E+01 -0.33668185274E+00  0.11803861378E+01  0.00000000000E+00 0. -1.
         11    1    3    3    0    0 -0.22904486081E+02 -0.28840933750E+02 -0.15911738558E+02  0.40119800179E+02  0.51100000000E-03 0. -1.
        -11    1    3    3    0    0 -0.75952286154E+01  0.44695828001E+01  0.18104101476E+01  0.89967912775E+01  0.51100000000E-03 0.  1.
        -12    1    3    3    0    0  0.30385048783E+02  0.23245825076E+02  0.14438010263E+02  0.40891022406E+02  0.00000000000E+00 0.  1.
</event>
<event>
 7    1  0.1971192E-015  0.9000771E+02  0.7816164E-02  0.1186339E+00
        -11   -1    0    0    0    0  0.00000000000E+00  0.00000000000E+00  0.45593999997E+02  0.45594000000E+02  0.51100000000E-03 0. -1.
         11   -1    0    0    0    0 -0.00000000000E+00 -0.00000000000E+00 -0.45593999997E+02  0.45594000000E+02  0.51100000000E-03 0.  1.
    9900012    2    1    2    0    0  0.30277340770E+00  0.90398004597E+00 -0.69586329982E+00  0.90007713004E+02  0.89999974016E+02 0.  0.
         12    1    1    2    0    0 -0.30277340770E+00 -0.90398004597E+00  0.69586329982E+00  0.11802869956E+01  0.00000000000E+00 0. -1.
         11    1    3    3    0    0 -0.72557481969E+01 -0.55249721173E+01 -0.66481196069E+00  0.91440239499E+01  0.51100000000E-03 0. -1.
        -11    1    3    3    0    0  0.37167956165E+02 -0.17990433018E+02  0.68922069860E+01  0.41864246835E+02  0.51100000000E-03 0.  1.
         12    1    3    3    0    0 -0.29609434560E+02  0.24419385181E+02 -0.69232583251E+01  0.38999442220E+02  0.00000000000E+00 0. -1.
</event>
<event>
 7    1  0.1971192E-015  0.9000774E+02  0.7816164E-02  0.1186339E+00
        -11   -1    0    0    0    0  0.00000000000E+00  0.00000000000E+00  0.45593999997E+02  0.45594000000E+02  0.51100000000E-03 0.  1.
         11   -1    0    0    0    0 -0.00000000000E+00 -0.00000000000E+00 -0.45593999997E+02  0.45594000000E+02  0.51100000000E-03 0. -1.
    9900012    2    1    2    0    0 -0.18883559467E+00 -0.82398677147E+00  0.82364938254E+00  0.90007740966E+02  0.90000002347E+02 0.  0.
         12    1    1    2    0    0  0.18883559467E+00  0.82398677147E+00 -0.82364938254E+00  0.11802590337E+01  0.00000000000E+00 0. -1.
         11    1    3    3    0    0 -0.18255266607E+02  0.20129643892E+02 -0.26524001119E+02  0.37973411194E+02  0.51100000000E-03 0. -1.
        -11    1    3    3    0    0  0.79636903758E+01  0.27901318227E+01 -0.56427737556E+01  0.10151162293E+02  0.51100000000E-03 0.  1.
        -12    1    3    3    0    0  0.10102740637E+02 -0.23743762486E+02  0.32990424257E+02  0.41883167478E+02  0.00000000000E+00 0.  1.
</event>
<event>
 7    1  0.1971192E-015  0.9000785E+02  0.7816164E-02  0.1186339E+00
        -11   -1    0    0    0    0  0.00000000000E+00  0.00000000000E+00  0.45593999997E+02  0.45594000000E+02  0.51100000000E-03 0.  1.
         11   -1    0    0    0    0 -0.00000000000E+00 -0.00000000000E+00 -0.45593999997E+02  0.45594000000E+02  0.51100000000E-03 0. -1.
    9900012    2    1    2    0    0  0.92045923915E+00  0.16746612060E+00  0.71935665570E+00  0.90007845726E+02  0.90000108489E+02 0.  0.
         12    1    1    2    0    0 -0.92045923915E+00 -0.16746612060E+00 -0.71935665570E+00  0.11801542741E+01  0.00000000000E+00 0. -1.
         11    1    3    3    0    0  0.19579310465E+02 -0.23815700375E+02  0.20702417977E+02  0.37136600450E+02  0.51100000000E-03 0. -1.
        -11    1    3    3    0    0 -0.79177510792E+00  0.41162818738E+01  0.11110233845E+02  0.11874678128E+02  0.51100000000E-03 0.  1.
        -12    1    3    3    0    0 -0.17867076118E+02  0.19866884622E+02 -0.31093295166E+02  0.40996567148E+02  0.00000000000E+00 0.  1.
</event>
<event>
 7    1  0.1971192E-015  0.9000773E+02  0.7816164E-02  0.1186339E+00
        -11   -1    0    0    0    0  0.00000000000E+00  0.00000000000E+00  0.45593999997E+02  0.45594000000E+02  0.51100000000E-03 0. -1.
         11   -1    0    0    0    0 -0.00000000000E+00 -0.00000000000E+00 -0.45593999997E+02  0.45594000000E+02  0.51100000000E-03 0.  1.
    9900012    2    1    2    0    0 -0.92264009853E+00  0.56166350094E+00 -0.47570831186E+00  0.90007733489E+02  0.89999994771E+02 0.  0.
         12    1    1    2    0    0  0.92264009853E+00 -0.56166350094E+00  0.47570831186E+00  0.11802665113E+01  0.00000000000E+00 0. -1.
         11    1    3    3    0    0 -0.15445652776E+02 -0.88523710616E+01  0.36709168807E+02  0.40798232043E+02  0.51100000000E-03 0. -1.
        -11    1    3    3    0    0  0.35832483437E+01 -0.82584181449E+01 -0.35624967880E+01  0.96815557931E+01  0.51100000000E-03 0.  1.
        -12    1    3    3    0    0  0.10939764334E+02  0.17672452707E+02 -0.33622380331E+02  0.39527945652E+02  0.00000000000E+00 0.  1.
</event>
<event>
 7    1  0.1971192E-015  0.9000771E+02  0.7816164E-02  0.1186339E+00
        -11   -1    0    0    0    0  0.00000000000E+00  0.00000000000E+00  0.45593999997E+02  0.45594000000E+02  0.51100000000E-03 0.  1.
         11   -1    0    0    0    0 -0.00000000000E+00 -0.00000000000E+00 -0.45593999997E+02  0.45594000000E+02  0.51100000000E-03 0. -1.
    9900012    2    1    2    0    0 -0.97847999261E+00  0.64323314487E+00  0.14804774290E+00  0.90007707617E+02  0.89999968558E+02 0.  0.
         12    1    1    2    0    0  0.97847999261E+00 -0.64323314487E+00 -0.14804774290E+00  0.11802923828E+01  0.00000000000E+00 0. -1.
         11    1    3    3    0    0  0.43180758769E+01  0.41309580613E+01  0.70097311204E+01  0.92112390276E+01  0.51100000000E-03 0. -1.
        -11    1    3    3    0    0 -0.31084554182E+01 -0.73055553406E+01  0.36428286271E+02  0.37283423593E+02  0.51100000000E-03 0.  1.
         12    1    3    3    0    0 -0.21881004512E+01  0.38178304241E+01 -0.43289969648E+02  0.43513044997E+02  0.00000000000E+00 0. -1.
</event>
<event>
 7    1  0.1971192E-015  0.9000770E+02  0.7816164E-02  0.1186339E+00
        -11   -1    0    0    0    0  0.00000000000E+00  0.00000000000E+00  0.45593999997E+02  0.45594000000E+02  0.51100000000E-03 0. -1.
         11   -1    0    0    0    0 -0.00000000000E+00 -0.00000000000E+00 -0.45593999997E+02  0.45594000000E+02  0.51100000000E-03 0.  1.
    9900012    2    1    2    0    0 -0.87573767649E-01 -0.90003322903E+00  0.75853747232E+00  0.90007700006E+02  0.89999960846E+02 0.  0.
         12    1    1    2    0    0  0.87573767649E-01  0.90003322903E+00 -0.75853747232E+00  0.11802999937E+01  0.00000000000E+00 0. -1.
         11    1    3    3    0    0 -0.67990445456E+01 -0.13714966460E+01  0.52150241802E+01  0.86778158107E+01  0.51100000000E-03 0. -1.
        -11    1    3    3    0    0 -0.34340363508E+02  0.14792299521E+02 -0.57624441405E+01  0.37832240929E+02  0.51100000000E-03 0.  1.
         12    1    3    3    0    0  0.41051834286E+02 -0.14320836104E+02  0.13059574326E+01  0.43497643267E+02  0.00000000000E+00 0. -1.
</event>
<event>
 7    1  0.1971192E-015  0.9000774E+02  0.7816164E-02  0.1186339E+00
        -11   -1    0    0    0    0  0.00000000000E+00  0.00000000000E+00  0.45593999997E+02  0.45594000000E+02  0.51100000000E-03 0. -1.
         11   -1    0    0    0    0 -0.00000000000E+00 -0.00000000000E+00 -0.45593999997E+02  0.45594000000E+02  0.51100000000E-03 0.  1.
    9900012    2    1    2    0    0 -0.77849146679E+00  0.43899664834E+00 -0.77086775279E+00  0.90007744048E+02  0.90000005469E+02 0.  0.
         12    1    1    2    0    0  0.77849146679E+00 -0.43899664834E+00  0.77086775279E+00  0.11802559525E+01  0.00000000000E+00 0. -1.
         11    1    3    3    0    0  0.54033487670E+01 -0.88330244196E+01  0.10067042332E+01  0.10403458654E+02  0.51100000000E-03 0. -1.
        -11    1    3    3    0    0  0.31137498294E+01 -0.33948980971E+02 -0.78397184953E+01  0.34981279755E+02  0.51100000000E-03 0.  1.
         12    1    3    3    0    0 -0.92955900632E+01  0.43221002039E+02  0.60621465093E+01  0.44623005638E+02  0.00000000000E+00 0. -1.
</event>
<event>
 7    1  0.1971192E-015  0.9000774E+02  0.7816164E-02  0.1186339E+00
        -11   -1    0    0    0    0  0.00000000000E+00  0.00000000000E+00  0.45593999997E+02  0.45594000000E+02  0.51100000000E-03 0.  1.
         11   -1    0    0    0    0 -0.00000000000E+00 -0.00000000000E+00 -0.45593999997E+02  0.45594000000E+02  0.51100000000E-03 0. -1.
    9900012    2    1    2    0    0 -0.68156208202E+00  0.72494106460E+00  0.63478513486E+00  0.90007737916E+02  0.89999999257E+02 0.  0.
         12    1    1    2    0    0  0.68156208202E+00 -0.72494106460E+00 -0.63478513486E+00  0.11802620837E+01  0.00000000000E+00 0. -1.
         11    1    3    3    0    0  0.38073851958E+02  0.10573889729E+02  0.14666156110E+01  0.39542082754E+02  0.51100000000E-03 0. -1.
        -11    1    3    3    0    0  0.19624687081E+01 -0.34942129873E+01 -0.77056911841E+01  0.86855330704E+01  0.51100000000E-03 0.  1.
        -12    1    3    3    0    0 -0.40717882748E+02 -0.63547356771E+01  0.68738607080E+01  0.41780122092E+02  0.00000000000E+00 0.  1.
</event>
<event>
 7    1  0.1971192E-015  0.9000769E+02  0.7816164E-02  0.1186339E+00
        -11   -1    0    0    0    0  0.00000000000E+00  0.00000000000E+00  0.45593999997E+02  0.45594000000E+02  0.51100000000E-03 0. -1.
         11   -1    0    0    0    0 -0.00000000000E+00 -0.00000000000E+00 -0.45593999997E+02  0.45594000000E+02  0.51100000000E-03 0.  1.
    9900012    2    1    2    0    0 -0.40726341927E+00  0.10397905140E+01  0.38223588863E+00  0.90007689837E+02  0.89999950543E+02 0.  0.
         12    1    1    2    0    0  0.40726341927E+00 -0.10397905140E+01 -0.38223588863E+00  0.11803101628E+01  0.00000000000E+00 0. -1.
         11    1    3    3    0    0 -0.28698332564E+01  0.78869832855E+01 -0.38148697162E+01  0.92192016725E+01  0.51100000000E-03 0. -1.
        -11    1    3    3    0    0  0.14673337244E+02  0.17979026773E+02 -0.29278189386E+02  0.37359933131E+02  0.51100000000E-03 0.  1.
         12    1    3    3    0    0 -0.12210767407E+02 -0.24826219544E+02  0.33475294991E+02  0.43428555033E+02  0.00000000000E+00 0. -1.
</event>
<event>
 7    1  0.1971192E-015  0.9000774E+02  0.7816164E-02  0.1186339E+00
        -11   -1    0    0    0    0  0.00000000000E+00  0.00000000000E+00  0.45593999997E+02  0.45594000000E+02  0.51100000000E-03 0.  1.
         11   -1    0    0    0    0 -0.00000000000E+00 -0.00000000000E+00 -0.45593999997E+02  0.45594000000E+02  0.51100000000E-03 0. -1.
    9900012    2    1    2    0    0  0.93713444305E+00 -0.43136834239E+00 -0.57334396786E+00  0.90007736082E+02  0.89999997398E+02 0.  0.
         12    1    1    2    0    0 -0.93713444305E+00  0.43136834239E+00  0.57334396786E+00  0.11802639182E+01  0.00000000000E+00 0. -1.
         11    1    3    3    0    0  0.33866332078E+02 -0.61660062703E+01 -0.15492769803E+02  0.37748827772E+02  0.51100000000E-03 0. -1.
        -11    1    3    3    0    0  0.75313773570E+01  0.19888302137E+01  0.77678743766E+01  0.11000771023E+02  0.51100000000E-03 0.  1.
        -12    1    3    3    0    0 -0.40460574992E+02  0.37458077142E+01  0.71515514583E+01  0.41258137287E+02  0.00000000000E+00 0.  1.
</event>
<event>
 7    1  0.1971192E-015  0.9000779E+02  0.7816164E-02  0.1186339E+00
        -11   -1    0    0    0    0  0.00000000000E+00  0.00000000000E+00  0.45593999997E+02  0.45594000000E+02  0.51100000000E-03 0.  1.
         11   -1    0    0    0    0 -0.00000000000E+00 -0.00000000000E+00 -0.45593999997E+02  0.45594000000E+02  0.51100000000E-03 0. -1.
    9900012    2    1    2    0    0  0.11033373184E+01  0.17193332322E+00 -0.38207102792E+00  0.90007791300E+02  0.90000053345E+02 0.  0.
         12    1    1    2    0    0 -0.11033373184E+01 -0.17193332322E+00  0.38207102792E+00  0.11802087002E+01  0.00000000000E+00 0. -1.
         11    1    3    3    0    0  0.74479505445E+01  0.28673781044E+02 -0.28749156496E+02  0.41281614384E+02  0.51100000000E-03 0. -1.
        -11    1    3    3    0    0  0.86341863556E+00  0.45615653853E+00 -0.43415632304E+01  0.44500271990E+01  0.51100000000E-03 0.  1.
        -12    1    3    3    0    0 -0.72080318617E+01 -0.28958004260E+02  0.32708648698E+02  0.44276149716E+02  0.00000000000E+00 0.  1.
</event>
<event>
 7    1  0.1971192E-015  0.9000781E+02  0.7816164E-02  0.1186339E+00
        -11   -1    0    0    0    0  0.00000000000E+00  0.00000000000E+00  0.45593999997E+02  0.45594000000E+02  0.51100000000E-03 0.  1.
         11   -1    0    0    0    0 -0.00000000000E+00 -0.00000000000E+00 -0.45593999997E+02  0.45594000000E+02  0.51100000000E-03 0. -1.
    9900012    2    1    2    0    0 -0.78610501668E+00  0.66406169827E+00  0.57785711040E+00  0.90007806001E+02  0.90000068240E+02 0.  0.
         12    1    1    2    0    0  0.78610501668E+00 -0.66406169827E+00 -0.57785711040E+00  0.11801939995E+01  0.00000000000E+00 0. -1.
         11    1    3    3    0    0  0.14830873345E+02  0.10744352727E+02  0.40523370163E+01  0.18756794909E+02  0.51100000000E-03 0. -1.
        -11    1    3    3    0    0  0.24419823573E+02  0.82699615194E+01 -0.79560287764E+01  0.26981816859E+02  0.51100000000E-03 0.  1.
        -12    1    3    3    0    0 -0.40036801935E+02 -0.18350252548E+02  0.44815488705E+01  0.44269194233E+02  0.00000000000E+00 0.  1.
</event>
<event>
 7    1  0.1971192E-015  0.9000775E+02  0.7816164E-02  0.1186339E+00
        -11   -1    0    0    0    0  0.00000000000E+00  0.00000000000E+00  0.45593999997E+02  0.45594000000E+02  0.51100000000E-03 0. -1.
         11   -1    0    0    0    0 -0.00000000000E+00 -0.00000000000E+00 -0.45593999997E+02  0.45594000000E+02  0.51100000000E-03 0.  1.
    9900012    2    1    2    0    0  0.64243264595E+00  0.70217870771E+00 -0.69800652360E+00  0.90007750980E+02  0.90000012493E+02 0.  0.
         12    1    1    2    0    0 -0.64243264595E+00 -0.70217870771E+00  0.69800652360E+00  0.11802490200E+01  0.00000000000E+00 0. -1.
         11    1    3    3    0    0  0.62432605067E+01 -0.14022711889E+02  0.33765168207E+02  0.37090448026E+02  0.51100000000E-03 0. -1.
        -11    1    3    3    0    0  0.72231142495E+00 -0.44200860840E+01  0.61305244402E+01  0.75922476881E+01  0.51100000000E-03 0.  1.
        -12    1    3    3    0    0 -0.63231392857E+01  0.19144976681E+02 -0.40593699170E+02  0.45325055266E+02  0.00000000000E+00 0.  1.
</event>
<event>
 7    1  0.1971192E-015  0.9000772E+02  0.7816164E-02  0.1186339E+00
        -11   -1    0    0    0    0  0.00000000000E+00  0.00000000000E+00  0.45593999997E+02  0.45594000000E+02  0.51100000000E-03 0.  1.
         11   -1    0    0    0    0 -0.00000000000E+00 -0.00000000000E+00 -0.45593999997E+02  0.45594000000E+02  0.51100000000E-03 0. -1.
    9900012    2    1    2    0    0  0.33170261326E+00 -0.75277986650E+00  0.84637326832E+00  0.90007723820E+02  0.89999984975E+02 0.  0.
         12    1    1    2    0    0 -0.33170261326E+00  0.75277986650E+00 -0.84637326832E+00  0.11802761797E+01  0.00000000000E+00 0. -1.
         11    1    3    3    0    0  0.76120589917E+00 -0.80162548650E+01  0.65160341206E+01  0.10358497835E+02  0.51100000000E-03 0. -1.
        -11    1    3    3    0    0  0.33260502632E+02 -0.33119747910E+00  0.17962287531E+02  0.37802308140E+02  0.51100000000E-03 0.  1.
         12    1    3    3    0    0 -0.33690005917E+02  0.75946724776E+01 -0.23631948383E+02  0.41846917845E+02  0.00000000000E+00 0. -1.
</event>
<event>
 7    1  0.1971192E-015  0.9000782E+02  0.7816164E-02  0.1186339E+00
        -11   -1    0    0    0    0  0.00000000000E+00  0.00000000000E+00  0.45593999997E+02  0.45594000000E+02  0.51100000000E-03 0.  1.
         11   -1    0    0    0    0 -0.00000000000E+00 -0.00000000000E+00 -0.45593999997E+02  0.45594000000E+02  0.51100000000E-03 0. -1.
    9900012    2    1    2    0    0  0.85882421691E+00 -0.53855328629E+00  0.60432555664E+00  0.90007818634E+02  0.90000081040E+02 0.  0.
         12    1    1    2    0    0 -0.85882421691E+00  0.53855328629E+00 -0.60432555664E+00  0.11801813658E+01  0.00000000000E+00 0. -1.
         11    1    3    3    0    0  0.35541220723E+02 -0.15740518474E+02  0.18341295922E+02  0.42980756492E+02  0.51100000000E-03 0. -1.
        -11    1    3    3    0    0 -0.81197218951E+01 -0.36772508263E+01 -0.10261517562E+02  0.13592306656E+02  0.51100000000E-03 0.  1.
        -12    1    3    3    0    0 -0.26562674611E+02  0.18879216014E+02 -0.74754528029E+01  0.33434755486E+02  0.00000000000E+00 0.  1.
</event>
<event>
 7    1  0.2169554E-015  0.9000783E+02  0.7816164E-02  0.1186339E+00
        -11   -1    0    0    0    0  0.00000000000E+00  0.00000000000E+00  0.45593999997E+02  0.45594000000E+02  0.51100000000E-03 0.  1.
         11   -1    0    0    0    0 -0.00000000000E+00 -0.00000000000E+00 -0.45593999997E+02  0.45594000000E+02  0.51100000000E-03 0. -1.
    9900012    2    1    2    0    0  0.95392382133E+00 -0.45333728827E+00  0.52661017826E+00  0.90007828981E+02  0.90000091524E+02 0.  0.
         12    1    1    2    0    0 -0.95392382133E+00  0.45333728827E+00 -0.52661017826E+00  0.11801710188E+01  0.00000000000E+00 0. -1.
         11    1    3    3    0    0 -0.11169760704E+02  0.20265819109E+01 -0.36630691195E+02  0.38349421458E+02  0.51100000000E-03 0. -1.
        -11    1    3    3    0    0  0.45924666599E+01 -0.81727328791E+01 -0.34339098581E+01  0.99837893562E+01  0.51100000000E-03 0.  1.
        -12    1    3    3    0    0  0.75312178656E+01  0.56928136799E+01  0.40591211232E+02  0.41674618167E+02  0.00000000000E+00 0.  1.
</event>
<event>
 7    1  0.1971192E-015  0.9000774E+02  0.7816164E-02  0.1186339E+00
        -11   -1    0    0    0    0  0.00000000000E+00  0.00000000000E+00  0.45593999997E+02  0.45594000000E+02  0.51100000000E-03 0. -1.
         11   -1    0    0    0    0 -0.00000000000E+00 -0.00000000000E+00 -0.45593999997E+02  0.45594000000E+02  0.51100000000E-03 0.  1.
    9900012    2    1    2    0    0 -0.10377731741E+01  0.56033825381E+00  0.45482924410E-01  0.90007736972E+02  0.89999998300E+02 0.  0.
         12    1    1    2    0    0  0.10377731741E+01 -0.56033825381E+00 -0.45482924410E-01  0.11802630283E+01  0.00000000000E+00 0. -1.
         11    1    3    3    0    0 -0.80948449488E+01 -0.30338105590E+02 -0.22155729708E+02  0.38429201458E+02  0.51100000000E-03 0. -1.
        -11    1    3    3    0    0 -0.41162645732E+01  0.40557782721E+01 -0.78608288144E+01  0.97563108468E+01  0.51100000000E-03 0.  1.
        -12    1    3    3    0    0  0.11173336348E+02  0.26842665571E+02  0.30062041447E+02  0.41822224667E+02  0.00000000000E+00 0.  1.
</event>
<event>
 7    1  0.1971192E-015  0.9000773E+02  0.7816164E-02  0.1186339E+00
        -11   -1    0    0    0    0  0.00000000000E+00  0.00000000000E+00  0.45593999997E+02  0.45594000000E+02  0.51100000000E-03 0.  1.
         11   -1    0    0    0    0 -0.00000000000E+00 -0.00000000000E+00 -0.45593999997E+02  0.45594000000E+02  0.51100000000E-03 0. -1.
    9900012    2    1    2    0    0 -0.57152365392E+00 -0.91238605831E+00  0.48367238014E+00  0.90007734531E+02  0.89999995827E+02 0.  0.
         12    1    1    2    0    0  0.57152365392E+00  0.91238605831E+00 -0.48367238014E+00  0.11802654692E+01  0.00000000000E+00 0. -1.
         11    1    3    3    0    0 -0.22184894117E+02 -0.24789831510E+02  0.25501606551E+02  0.41917027688E+02  0.51100000000E-03 0. -1.
        -11    1    3    3    0    0  0.83185810293E+01 -0.36664171386E+01 -0.88909339410E+00  0.91341059934E+01  0.51100000000E-03 0.  1.
        -12    1    3    3    0    0  0.13294789434E+02  0.27543862591E+02 -0.24128840776E+02  0.38956600849E+02  0.00000000000E+00 0.  1.
</event>
<event>
 7    1  0.1971192E-015  0.9000789E+02  0.7816164E-02  0.1186339E+00
        -11   -1    0    0    0    0  0.00000000000E+00  0.00000000000E+00  0.45593999997E+02  0.45594000000E+02  0.51100000000E-03 0. -1.
         11   -1    0    0    0    0 -0.00000000000E+00 -0.00000000000E+00 -0.45593999997E+02  0.45594000000E+02  0.51100000000E-03 0.  1.
    9900012    2    1    2    0    0  0.49492539712E+00 -0.17023067063E+00 -0.10577049514E+01  0.90007885855E+02  0.90000149149E+02 0.  0.
         12    1    1    2    0    0 -0.49492539712E+00  0.17023067063E+00  0.10577049514E+01  0.11801141445E+01  0.00000000000E+00 0. -1.
         11    1    3    3    0    0  0.22279294892E+01 -0.10339227817E+02 -0.16885370371E+01  0.10710483614E+02  0.51100000000E-03 0. -1.
        -11    1    3    3    0    0  0.71879950842E+01 -0.67520889752E+01 -0.36349007912E+02  0.37663090093E+02  0.51100000000E-03 0.  1.
         12    1    3    3    0    0 -0.89209991764E+01  0.16921086121E+02  0.36979839998E+02  0.41634312149E+02  0.00000000000E+00 0. -1.
</event>
<event>
 7    1  0.1971192E-015  0.9000773E+02  0.7816164E-02  0.1186339E+00
        -11   -1    0    0    0    0  0.00000000000E+00  0.00000000000E+00  0.45593999997E+02  0.45594000000E+02  0.51100000000E-03 0. -1.
         11   -1    0    0    0    0 -0.00000000000E+00 -0.00000000000E+00 -0.45593999997E+02  0.45594000000E+02  0.51100000000E-03 0.  1.
    9900012    2    1    2    0    0 -0.20248756164E+00 -0.93466288280E+00 -0.69169374052E+00  0.90007730477E+02  0.89999991719E+02 0.  0.
         12    1    1    2    0    0  0.20248756164E+00  0.93466288280E+00  0.69169374052E+00  0.11802695234E+01  0.00000000000E+00 0. -1.
         11    1    3    3    0    0 -0.57740504066E+01 -0.12180054857E+02  0.35784526902E+02  0.38239060662E+02  0.51100000000E-03 0. -1.
        -11    1    3    3    0    0 -0.12148916467E+02  0.13342395013E+02 -0.12811414505E+02  0.22130251194E+02  0.51100000000E-03 0.  1.
        -12    1    3    3    0    0  0.17720479312E+02 -0.20970030390E+01 -0.23664806138E+02  0.29638418621E+02  0.00000000000E+00 0.  1.
</event>
<event>
 7    1  0.1971192E-015  0.9000757E+02  0.7816164E-02  0.1186339E+00
        -11   -1    0    0    0    0  0.00000000000E+00  0.00000000000E+00  0.45593999997E+02  0.45594000000E+02  0.51100000000E-03 0. -1.
         11   -1    0    0    0    0 -0.00000000000E+00 -0.00000000000E+00 -0.45593999997E+02  0.45594000000E+02  0.51100000000E-03 0.  1.
    9900012    2    1    2    0    0 -0.20742149800E+00 -0.66647044381E+00 -0.95194409837E+00  0.90007574612E+02  0.89999833797E+02 0.  0.
         12    1    1    2    0    0  0.20742149800E+00  0.66647044381E+00  0.95194409837E+00  0.11804253880E+01  0.00000000000E+00 0. -1.
         11    1    3    3    0    0 -0.24298745746E+02  0.16528782161E+02  0.29371333968E+02  0.41548826023E+02  0.51100000000E-03 0. -1.
        -11    1    3    3    0    0 -0.39832876322E+01 -0.40158534993E+01 -0.96512079276E+01  0.11186575634E+02  0.51100000000E-03 0.  1.
        -12    1    3    3    0    0  0.28074611880E+02 -0.13179399105E+02 -0.20672070139E+02  0.37272172955E+02  0.00000000000E+00 0.  1.
</event>
<event>
 7    1  0.1971192E-015  0.9000753E+02  0.7816164E-02  0.1186339E+00
        -11   -1    0    0    0    0  0.00000000000E+00  0.00000000000E+00  0.45593999997E+02  0.45594000000E+02  0.51100000000E-03 0. -1.
         11   -1    0    0    0    0 -0.00000000000E+00 -0.00000000000E+00 -0.45593999997E+02  0.45594000000E+02  0.51100000000E-03 0.  1.
    9900012    2    1    2    0    0 -0.10856358185E+01  0.38067101955E+00  0.26458553748E+00  0.90007525069E+02  0.89999783600E+02 0.  0.
         12    1    1    2    0    0  0.10856358185E+01 -0.38067101955E+00 -0.26458553748E+00  0.11804749307E+01  0.00000000000E+00 0. -1.
         11    1    3    3    0    0  0.16156314862E+02  0.28601849082E+02  0.12922673134E+02  0.35299968301E+02  0.51100000000E-03 0. -1.
        -11    1    3    3    0    0  0.85466845882E+00  0.96346692859E+01  0.26736933284E+01  0.10035235259E+02  0.51100000000E-03 0.  1.
        -12    1    3    3    0    0 -0.18096619139E+02 -0.37855847349E+02 -0.15331780925E+02  0.44672321510E+02  0.00000000000E+00 0.  1.
</event>
<event>
 7    1  0.1971192E-015  0.9000788E+02  0.7816164E-02  0.1186339E+00
        -11   -1    0    0    0    0  0.00000000000E+00  0.00000000000E+00  0.45593999997E+02  0.45594000000E+02  0.51100000000E-03 0. -1.
         11   -1    0    0    0    0 -0.00000000000E+00 -0.00000000000E+00 -0.45593999997E+02  0.45594000000E+02  0.51100000000E-03 0.  1.
    9900012    2    1    2    0    0  0.76749738388E+00  0.67460871078E+00 -0.59037576919E+00  0.90007875983E+02  0.90000139146E+02 0.  0.
         12    1    1    2    0    0 -0.76749738388E+00 -0.67460871078E+00  0.59037576919E+00  0.11801240171E+01  0.00000000000E+00 0. -1.
         11    1    3    3    0    0 -0.65055991530E+01 -0.40694597326E+01 -0.54179834723E+01  0.93935013718E+01  0.51100000000E-03 0. -1.
        -11    1    3    3    0    0  0.30140719464E+01  0.88180486513E+01 -0.37111255914E+02  0.38263401934E+02  0.51100000000E-03 0.  1.
         12    1    3    3    0    0  0.42590245904E+01 -0.40739802079E+01  0.41938863618E+02  0.42350972678E+02  0.00000000000E+00 0. -1.
</event>
<event>
 7    1  0.1971192E-015  0.9000776E+02  0.7816164E-02  0.1186339E+00
        -11   -1    0    0    0    0  0.00000000000E+00  0.00000000000E+00  0.45593999997E+02  0.45594000000E+02  0.51100000000E-03 0.  1.
         11   -1    0    0    0    0 -0.00000000000E+00 -0.00000000000E+00 -0.45593999997E+02  0.45594000000E+02  0.51100000000E-03 0. -1.
    9900012    2    1    2    0    0  0.93002842664E+00 -0.72489137818E+00  0.50538085910E-01  0.90007756600E+02  0.90000018187E+02 0.  0.
         12    1    1    2    0    0 -0.93002842664E+00  0.72489137818E+00 -0.50538085910E-01  0.11802433997E+01  0.00000000000E+00 0. -1.
         11    1    3    3    0    0 -0.34362535423E+02 -0.78436770893E+01  0.65777126675E+01  0.35854893881E+02  0.51100000000E-03 0. -1.
        -11    1    3    3    0    0 -0.74289046362E+01 -0.15445105825E+01  0.49707255333E+01  0.90709563786E+01  0.51100000000E-03 0.  1.
        -12    1    3    3    0    0  0.42721468486E+02  0.86632962936E+01 -0.11497900115E+02  0.45081906341E+02  0.00000000000E+00 0.  1.
</event>
<event>
 7    1  0.1971192E-015  0.9000775E+02  0.7816164E-02  0.1186339E+00
        -11   -1    0    0    0    0  0.00000000000E+00  0.00000000000E+00  0.45593999997E+02  0.45594000000E+02  0.51100000000E-03 0.  1.
         11   -1    0    0    0    0 -0.00000000000E+00 -0.00000000000E+00 -0.45593999997E+02  0.45594000000E+02  0.51100000000E-03 0. -1.
    9900012    2    1    2    0    0 -0.77736039344E+00  0.69264918019E+00  0.55581533986E+00  0.90007753094E+02  0.90000014634E+02 0.  0.
         12    1    1    2    0    0  0.77736039344E+00 -0.69264918019E+00 -0.55581533986E+00  0.11802469064E+01  0.00000000000E+00 0. -1.
         11    1    3    3    0    0 -0.21417383142E+02 -0.95388145542E+01 -0.11110489193E+02  0.25944869514E+02  0.51100000000E-03 0. -1.
        -11    1    3    3    0    0 -0.14086913886E+02 -0.57277756037E+01 -0.11770946485E+02  0.19230281787E+02  0.51100000000E-03 0.  1.
        -12    1    3    3    0    0  0.34726936634E+02  0.15959239338E+02  0.23437251018E+02  0.44832601793E+02  0.00000000000E+00 0.  1.
</event>
<event>
 7    1  0.1971192E-015  0.9000772E+02  0.7816164E-02  0.1186339E+00
        -11   -1    0    0    0    0  0.00000000000E+00  0.00000000000E+00  0.45593999997E+02  0.45594000000E+02  0.51100000000E-03 0. -1.
         11   -1    0    0    0    0 -0.00000000000E+00 -0.00000000000E+00 -0.45593999997E+02  0.45594000000E+02  0.51100000000E-03 0.  1.
    9900012    2    1    2    0    0 -0.67768072647E-02  0.10167168124E+01 -0.59941918192E+00  0.90007719373E+02  0.89999980469E+02 0.  0.
         12    1    1    2    0    0  0.67768072647E-02 -0.10167168124E+01  0.59941918192E+00  0.11802806265E+01  0.00000000000E+00 0. -1.
         11    1    3    3    0    0 -0.66333668499E+01 -0.37936247038E+02  0.17655106570E+02  0.42365825654E+02  0.51100000000E-03 0. -1.
        -11    1    3    3    0    0 -0.56355429638E+01  0.74095952440E+01 -0.26091134850E+00  0.93128685790E+01  0.51100000000E-03 0.  1.
        -12    1    3    3    0    0  0.12262133006E+02  0.31543368606E+02 -0.17993614404E+02  0.38329025140E+02  0.00000000000E+00 0.  1.
</event>
<event>
 7    1  0.1971192E-015  0.9000731E+02  0.7816164E-02  0.1186340E+00
        -11   -1    0    0    0    0  0.00000000000E+00  0.00000000000E+00  0.45593999997E+02  0.45594000000E+02  0.51100000000E-03 0. -1.
         11   -1    0    0    0    0 -0.00000000000E+00 -0.00000000000E+00 -0.45593999997E+02  0.45594000000E+02  0.51100000000E-03 0.  1.
    9900012    2    1    2    0    0 -0.99041541630E+00 -0.21830916014E+00 -0.60452602247E+00  0.90007308127E+02  0.89999563794E+02 0.  0.
         12    1    1    2    0    0  0.99041541630E+00  0.21830916014E+00  0.60452602247E+00  0.11806918726E+01  0.00000000000E+00 0. -1.
         11    1    3    3    0    0  0.76281019601E+01  0.89141773625E+00  0.34241010869E+01  0.84087474459E+01  0.51100000000E-03 0. -1.
        -11    1    3    3    0    0  0.33449772633E+02 -0.38872688032E+01 -0.16682526727E+02  0.37580644569E+02  0.51100000000E-03 0.  1.
         12    1    3    3    0    0 -0.42068290009E+02  0.27775419068E+01  0.12653899618E+02  0.44017916113E+02  0.00000000000E+00 0. -1.
</event>
<event>
 7    1  0.1971192E-015  0.9000780E+02  0.7816164E-02  0.1186339E+00
        -11   -1    0    0    0    0  0.00000000000E+00  0.00000000000E+00  0.45593999997E+02  0.45594000000E+02  0.51100000000E-03 0. -1.
         11   -1    0    0    0    0 -0.00000000000E+00 -0.00000000000E+00 -0.45593999997E+02  0.45594000000E+02  0.51100000000E-03 0.  1.
    9900012    2    1    2    0    0 -0.11307369501E+01 -0.13827202324E+00 -0.30852045683E+00  0.90007800832E+02  0.90000063003E+02 0.  0.
         12    1    1    2    0    0  0.11307369501E+01  0.13827202324E+00  0.30852045683E+00  0.11801991676E+01  0.00000000000E+00 0. -1.
         11    1    3    3    0    0 -0.15963036998E+01  0.21778089540E+02 -0.29071867594E+02  0.36359412195E+02  0.51100000000E-03 0. -1.
        -11    1    3    3    0    0  0.27817372945E+01  0.37369897600E+01 -0.77031995472E+01  0.90023573783E+01  0.51100000000E-03 0.  1.
        -12    1    3    3    0    0 -0.23161705448E+01 -0.25653351324E+02  0.36466546684E+02  0.44646031259E+02  0.00000000000E+00 0.  1.
</event>
<event>
 7    1  0.1971192E-015  0.9000772E+02  0.7816164E-02  0.1186339E+00
        -11   -1    0    0    0    0  0.00000000000E+00  0.00000000000E+00  0.45593999997E+02  0.45594000000E+02  0.51100000000E-03 0.  1.
         11   -1    0    0    0    0 -0.00000000000E+00 -0.00000000000E+00 -0.45593999997E+02  0.45594000000E+02  0.51100000000E-03 0. -1.
    9900012    2    1    2    0    0 -0.79905038746E+00  0.70890978651E+00  0.50201918330E+00  0.90007721275E+02  0.89999982396E+02 0.  0.
         12    1    1    2    0    0  0.79905038746E+00 -0.70890978651E+00 -0.50201918330E+00  0.11802787245E+01  0.00000000000E+00 0. -1.
         11    1    3    3    0    0 -0.35693120725E+02  0.36685722366E+01 -0.13569671993E+02  0.38361351483E+02  0.51100000000E-03 0. -1.
        -11    1    3    3    0    0  0.13098739216E+01  0.75442472551E+01 -0.72145678337E+01  0.10520524019E+02  0.51100000000E-03 0.  1.
        -12    1    3    3    0    0  0.33584196416E+02 -0.10503909705E+02  0.21286259010E+02  0.41125845774E+02  0.00000000000E+00 0.  1.
</event>
<event>
 7    1  0.1971192E-015  0.9000781E+02  0.7816164E-02  0.1186339E+00
        -11   -1    0    0    0    0  0.00000000000E+00  0.00000000000E+00  0.45593999997E+02  0.45594000000E+02  0.51100000000E-03 0.  1.
         11   -1    0    0    0    0 -0.00000000000E+00 -0.00000000000E+00 -0.45593999997E+02  0.45594000000E+02  0.51100000000E-03 0. -1.
    9900012    2    1    2    0    0 -0.10743197152E+01 -0.48818190774E+00 -0.18855673626E-01  0.90007813590E+02  0.90000075930E+02 0.  0.
         12    1    1    2    0    0  0.10743197152E+01  0.48818190774E+00  0.18855673626E-01  0.11801864098E+01  0.00000000000E+00 0. -1.
         11    1    3    3    0    0 -0.14101404059E+01 -0.37823080189E+02  0.54828023917E+01  0.38244411530E+02  0.51100000000E-03 0. -1.
        -11    1    3    3    0    0 -0.12058120293E+01 -0.57577078824E+01 -0.63218241926E+01  0.86354295835E+01  0.51100000000E-03 0.  1.
        -12    1    3    3    0    0  0.15416327200E+01  0.43092606164E+02  0.82016612719E+00  0.43127972476E+02  0.00000000000E+00 0.  1.
</event>
<event>
 7    1  0.1971192E-015  0.9000777E+02  0.7816164E-02  0.1186339E+00
        -11   -1    0    0    0    0  0.00000000000E+00  0.00000000000E+00  0.45593999997E+02  0.45594000000E+02  0.51100000000E-03 0.  1.
         11   -1    0    0    0    0 -0.00000000000E+00 -0.00000000000E+00 -0.45593999997E+02  0.45594000000E+02  0.51100000000E-03 0. -1.
    9900012    2    1    2    0    0  0.10094137219E+01 -0.39167953160E+00  0.46970007814E+00  0.90007768209E+02  0.90000029949E+02 0.  0.
         12    1    1    2    0    0 -0.10094137219E+01  0.39167953160E+00 -0.46970007814E+00  0.11802317911E+01  0.00000000000E+00 0. -1.
         11    1    3    3    0    0  0.83206456855E+01 -0.14274096594E+01  0.12689995828E+01  0.85370371419E+01  0.51100000000E-03 0. -1.
        -11    1    3    3    0    0  0.85464252742E+00  0.40582088125E+02  0.40834120690E+01  0.40795962360E+02  0.51100000000E-03 0.  1.
         12    1    3    3    0    0 -0.81658744910E+01 -0.39546357998E+02 -0.48827115737E+01  0.40674768707E+02  0.00000000000E+00 0. -1.
</event>
<event>
 7    1  0.1971192E-015  0.9000768E+02  0.7816164E-02  0.1186339E+00
        -11   -1    0    0    0    0  0.00000000000E+00  0.00000000000E+00  0.45593999997E+02  0.45594000000E+02  0.51100000000E-03 0. -1.
         11   -1    0    0    0    0 -0.00000000000E+00 -0.00000000000E+00 -0.45593999997E+02  0.45594000000E+02  0.51100000000E-03 0.  1.
    9900012    2    1    2    0    0  0.53600681925E+00  0.67023670890E+00 -0.81032514398E+00  0.90007683350E+02  0.89999943970E+02 0.  0.
         12    1    1    2    0    0 -0.53600681925E+00 -0.67023670890E+00  0.81032514398E+00  0.11803166504E+01  0.00000000000E+00 0. -1.
         11    1    3    3    0    0  0.25930011953E+02 -0.17449495747E+02 -0.15437567505E+02  0.34859272976E+02  0.51100000000E-03 0. -1.
        -11    1    3    3    0    0  0.54646477221E+01 -0.79116694006E+01 -0.43321431502E+01  0.10546295651E+02  0.51100000000E-03 0.  1.
        -12    1    3    3    0    0 -0.30858652856E+02  0.26031401856E+02  0.18959385511E+02  0.44602114722E+02  0.00000000000E+00 0.  1.
</event>
<event>
 7    1  0.1971192E-015  0.9000775E+02  0.7816164E-02  0.1186339E+00
        -11   -1    0    0    0    0  0.00000000000E+00  0.00000000000E+00  0.45593999997E+02  0.45594000000E+02  0.51100000000E-03 0.  1.
         11   -1    0    0    0    0 -0.00000000000E+00 -0.00000000000E+00 -0.45593999997E+02  0.45594000000E+02  0.51100000000E-03 0. -1.
    9900012    2    1    2    0    0 -0.30815544218E+00  0.11120460588E+01  0.24773450053E+00  0.90007754858E+02  0.90000016422E+02 0.  0.
         12    1    1    2    0    0  0.30815544218E+00 -0.11120460588E+01 -0.24773450053E+00  0.11802451424E+01  0.00000000000E+00 0. -1.
         11    1    3    3    0    0  0.93387269908E+01  0.10192690347E+01  0.11567313039E+01  0.94651338472E+01  0.51100000000E-03 0. -1.
        -11    1    3    3    0    0  0.76443407221E+01  0.37961333397E+02  0.22854964249E+01  0.38790749832E+02  0.51100000000E-03 0.  1.
         12    1    3    3    0    0 -0.17291223155E+02 -0.37868556373E+02 -0.31944932282E+01  0.41751871179E+02  0.00000000000E+00 0. -1.
</event>
<event>
 7    1  0.1971192E-015  0.9000770E+02  0.7816164E-02  0.1186339E+00
        -11   -1    0    0    0    0  0.00000000000E+00  0.00000000000E+00  0.45593999997E+02  0.45594000000E+02  0.51100000000E-03 0. -1.
         11   -1    0    0    0    0 -0.00000000000E+00 -0.00000000000E+00 -0.45593999997E+02  0.45594000000E+02  0.51100000000E-03 0.  1.
    9900012    2    1    2    0    0 -0.90077755923E+00  0.37924047349E+00 -0.66172449589E+00  0.90007702217E+02  0.89999963086E+02 0.  0.
         12    1    1    2    0    0  0.90077755923E+00 -0.37924047349E+00  0.66172449589E+00  0.11802977829E+01  0.00000000000E+00 0. -1.
         11    1    3    3    0    0 -0.32971639761E+02 -0.22397164306E+02 -0.99503827045E+01  0.41082503742E+02  0.51100000000E-03 0. -1.
        -11    1    3    3    0    0  0.22154691915E+01  0.89161546746E+01 -0.76056752556E+01  0.11926961653E+02  0.51100000000E-03 0.  1.
        -12    1    3    3    0    0  0.29855393010E+02  0.13860250104E+02  0.16894333464E+02  0.36998236822E+02  0.00000000000E+00 0.  1.
</event>
<event>
 7    1  0.1971192E-015  0.9000777E+02  0.7816164E-02  0.1186339E+00
        -11   -1    0    0    0    0  0.00000000000E+00  0.00000000000E+00  0.45593999997E+02  0.45594000000E+02  0.51100000000E-03 0.  1.
         11   -1    0    0    0    0 -0.00000000000E+00 -0.00000000000E+00 -0.45593999997E+02  0.45594000000E+02  0.51100000000E-03 0. -1.
    9900012    2    1    2    0    0 -0.74673188306E+00  0.91384524506E+00  0.14869040900E-01  0.90007770054E+02  0.90000031819E+02 0.  0.
         12    1    1    2    0    0  0.74673188306E+00 -0.91384524506E+00 -0.14869040900E-01  0.11802299460E+01  0.00000000000E+00 0. -1.
         11    1    3    3    0    0  0.98812397989E+01 -0.21107555339E+02 -0.22217575275E+02  0.32199199426E+02  0.51100000000E-03 0. -1.
        -11    1    3    3    0    0  0.15693710992E+02 -0.41251853172E+01  0.58109942192E+01  0.17235932602E+02  0.51100000000E-03 0.  1.
        -12    1    3    3    0    0 -0.26321682674E+02  0.26146585901E+02  0.16421450097E+02  0.40572638025E+02  0.00000000000E+00 0.  1.
</event>
<event>
 7    1  0.1971192E-015  0.9000779E+02  0.7816164E-02  0.1186339E+00
        -11   -1    0    0    0    0  0.00000000000E+00  0.00000000000E+00  0.45593999997E+02  0.45594000000E+02  0.51100000000E-03 0.  1.
         11   -1    0    0    0    0 -0.00000000000E+00 -0.00000000000E+00 -0.45593999997E+02  0.45594000000E+02  0.51100000000E-03 0. -1.
    9900012    2    1    2    0    0 -0.83357932072E-02  0.11547318221E+01  0.24378744453E+00  0.90007785026E+02  0.90000046988E+02 0.  0.
         12    1    1    2    0    0  0.83357932072E-02 -0.11547318221E+01 -0.24378744453E+00  0.11802149739E+01  0.00000000000E+00 0. -1.
         11    1    3    3    0    0  0.46912397113E+01  0.64712690241E+01 -0.45930902991E+01  0.92185428116E+01  0.51100000000E-03 0. -1.
        -11    1    3    3    0    0 -0.30661435007E+02  0.22130975579E+02 -0.11649825858E+02  0.39567943080E+02  0.51100000000E-03 0.  1.
         12    1    3    3    0    0  0.25961859502E+02 -0.27447512781E+02  0.16486703602E+02  0.41221299135E+02  0.00000000000E+00 0. -1.
</event>
<event>
 7    1  0.1971192E-015  0.9000774E+02  0.7816164E-02  0.1186339E+00
        -11   -1    0    0    0    0  0.00000000000E+00  0.00000000000E+00  0.45593999997E+02  0.45594000000E+02  0.51100000000E-03 0.  1.
         11   -1    0    0    0    0 -0.00000000000E+00 -0.00000000000E+00 -0.45593999997E+02  0.45594000000E+02  0.51100000000E-03 0. -1.
    9900012    2    1    2    0    0 -0.92458944453E+00 -0.57341742293E+00  0.45753652436E+00  0.90007740345E+02  0.90000001718E+02 0.  0.
         12    1    1    2    0    0  0.92458944453E+00  0.57341742293E+00 -0.45753652436E+00  0.11802596549E+01  0.00000000000E+00 0. -1.
         11    1    3    3    0    0  0.58652129999E+01  0.58608907436E+01 -0.40223496189E+01  0.92157506780E+01  0.51100000000E-03 0. -1.
        -11    1    3    3    0    0 -0.18470453095E+02 -0.30149830085E+01  0.39504322623E+02  0.43713147521E+02  0.51100000000E-03 0.  1.
         12    1    3    3    0    0  0.11680650651E+02 -0.34193251580E+01 -0.35024436479E+02  0.37078842146E+02  0.00000000000E+00 0. -1.
</event>
<event>
 7    1  0.1971192E-015  0.9000766E+02  0.7816164E-02  0.1186339E+00
        -11   -1    0    0    0    0  0.00000000000E+00  0.00000000000E+00  0.45593999997E+02  0.45594000000E+02  0.51100000000E-03 0.  1.
         11   -1    0    0    0    0 -0.00000000000E+00 -0.00000000000E+00 -0.45593999997E+02  0.45594000000E+02  0.51100000000E-03 0. -1.
    9900012    2    1    2    0    0 -0.44089862625E+00  0.37904160655E+00  0.10271970183E+01  0.90007661975E+02  0.89999922313E+02 0.  0.
         12    1    1    2    0    0  0.44089862625E+00 -0.37904160655E+00 -0.10271970183E+01  0.11803380247E+01  0.00000000000E+00 0. -1.
         11    1    3    3    0    0 -0.60671632348E+01 -0.48199147184E+01  0.28694749727E+01  0.82629252987E+01  0.51100000000E-03 0. -1.
        -11    1    3    3    0    0  0.14606311279E+02 -0.35372071648E+02  0.78742455978E+01  0.39070852638E+02  0.51100000000E-03 0.  1.
         12    1    3    3    0    0 -0.89800466704E+01  0.40571027973E+02 -0.97165235523E+01  0.42673884039E+02  0.00000000000E+00 0. -1.
</event>
<event>
 7    1  0.1971192E-015  0.9000780E+02  0.7816164E-02  0.1186339E+00
        -11   -1    0    0    0    0  0.00000000000E+00  0.00000000000E+00  0.45593999997E+02  0.45594000000E+02  0.51100000000E-03 0.  1.
         11   -1    0    0    0    0 -0.00000000000E+00 -0.00000000000E+00 -0.45593999997E+02  0.45594000000E+02  0.51100000000E-03 0. -1.
    9900012    2    1    2    0    0 -0.74947838279E+00  0.88920973904E+00  0.20115944464E+00  0.90007797929E+02  0.90000060062E+02 0.  0.
         12    1    1    2    0    0  0.74947838279E+00 -0.88920973904E+00 -0.20115944464E+00  0.11802020710E+01  0.00000000000E+00 0. -1.
         11    1    3    3    0    0 -0.71041191889E+01  0.21862690213E+01  0.59395298874E+01  0.95145308465E+01  0.51100000000E-03 0. -1.
        -11    1    3    3    0    0 -0.28705818694E+02  0.18202803356E+02 -0.18105488629E+02  0.38512008460E+02  0.51100000000E-03 0.  1.
         12    1    3    3    0    0  0.35060459500E+02 -0.19499862638E+02  0.12367118187E+02  0.41981258622E+02  0.00000000000E+00 0. -1.
</event>
<event>
 7    1  0.1971192E-015  0.9000776E+02  0.7816164E-02  0.1186339E+00
        -11   -1    0    0    0    0  0.00000000000E+00  0.00000000000E+00  0.45593999997E+02  0.45594000000E+02  0.51100000000E-03 0. -1.
         11   -1    0    0    0    0 -0.00000000000E+00 -0.00000000000E+00 -0.45593999997E+02  0.45594000000E+02  0.51100000000E-03 0.  1.
    9900012    2    1    2    0    0  0.10684867833E+01 -0.22909483041E-01 -0.50078275009E+00  0.90007757562E+02  0.90000019161E+02 0.  0.
         12    1    1    2    0    0 -0.10684867833E+01  0.22909483041E-01  0.50078275009E+00  0.11802424384E+01  0.00000000000E+00 0. -1.
         11    1    3    3    0    0  0.26024103857E+01 -0.23090930755E+02  0.54670491843E+01  0.23871578289E+02  0.51100000000E-03 0. -1.
        -11    1    3    3    0    0  0.28390479652E+02  0.12914868015E+01 -0.63688307737E+01  0.29124719375E+02  0.51100000000E-03 0.  1.
         12    1    3    3    0    0 -0.29924403254E+02  0.21776534471E+02  0.40099883932E+00  0.37011459897E+02  0.00000000000E+00 0. -1.
</event>
<event>
 7    1  0.1971192E-015  0.9000765E+02  0.7816164E-02  0.1186339E+00
        -11   -1    0    0    0    0  0.00000000000E+00  0.00000000000E+00  0.45593999997E+02  0.45594000000E+02  0.51100000000E-03 0.  1.
         11   -1    0    0    0    0 -0.00000000000E+00 -0.00000000000E+00 -0.45593999997E+02  0.45594000000E+02  0.51100000000E-03 0. -1.
    9900012    2    1    2    0    0  0.80883726544E+00  0.81640056361E+00  0.26924237007E+00  0.90007652993E+02  0.89999913213E+02 0.  0.
         12    1    1    2    0    0 -0.80883726544E+00 -0.81640056361E+00 -0.26924237007E+00  0.11803470066E+01  0.00000000000E+00 0. -1.
         11    1    3    3    0    0  0.30094788577E+01 -0.35999985941E+02 -0.98345673014E+01  0.37440281316E+02  0.51100000000E-03 0. -1.
        -11    1    3    3    0    0  0.86368134842E+01 -0.38543099821E+01  0.10617114579E+01  0.95172203967E+01  0.51100000000E-03 0.  1.
        -12    1    3    3    0    0 -0.10837455076E+02  0.40670696486E+02  0.90420982136E+01  0.43050151281E+02  0.00000000000E+00 0.  1.
</event>
<event>
 7    1  0.1971192E-015  0.9000774E+02  0.7816164E-02  0.1186339E+00
        -11   -1    0    0    0    0  0.00000000000E+00  0.00000000000E+00  0.45593999997E+02  0.45594000000E+02  0.51100000000E-03 0. -1.
         11   -1    0    0    0    0 -0.00000000000E+00 -0.00000000000E+00 -0.45593999997E+02  0.45594000000E+02  0.51100000000E-03 0.  1.
    9900012    2    1    2    0    0 -0.55025917922E-01  0.61929107101E+00 -0.10032242835E+01  0.90007742297E+02  0.90000003695E+02 0.  0.
         12    1    1    2    0    0  0.55025917922E-01 -0.61929107101E+00  0.10032242835E+01  0.11802577029E+01  0.00000000000E+00 0. -1.
         11    1    3    3    0    0  0.75850451878E+01 -0.24592742269E+01 -0.66598985333E+00  0.80015300393E+01  0.51100000000E-03 0. -1.
        -11    1    3    3    0    0  0.18604027867E+02  0.30768701661E+02  0.17386975130E+02  0.39939075593E+02  0.51100000000E-03 0.  1.
         12    1    3    3    0    0 -0.26244098973E+02 -0.27690136363E+02 -0.17724209560E+02  0.42067136665E+02  0.00000000000E+00 0. -1.
</event>
<event>
 7    1  0.1971192E-015  0.9000778E+02  0.7816164E-02  0.1186339E+00
        -11   -1    0    0    0    0  0.00000000000E+00  0.00000000000E+00  0.45593999997E+02  0.45594000000E+02  0.51100000000E-03 0. -1.
         11   -1    0    0    0    0 -0.00000000000E+00 -0.00000000000E+00 -0.45593999997E+02  0.45594000000E+02  0.51100000000E-03 0.  1.
    9900012    2    1    2    0    0  0.50919332057E+00  0.10628822060E+01 -0.62716672795E-01  0.90007775529E+02  0.90000037366E+02 0.  0.
         12    1    1    2    0    0 -0.50919332057E+00 -0.10628822060E+01  0.62716672795E-01  0.11802244713E+01  0.00000000000E+00 0. -1.
         11    1    3    3    0    0 -0.20945397666E+02 -0.11533775041E+01  0.34618990395E+02  0.40478567901E+02  0.51100000000E-03 0. -1.
        -11    1    3    3    0    0 -0.62284506325E+01 -0.32569909156E+01 -0.54028492332E+01  0.88652336238E+01  0.51100000000E-03 0.  1.
        -12    1    3    3    0    0  0.27683041619E+02  0.54732506257E+01 -0.29278857835E+02  0.40663974004E+02  0.00000000000E+00 0.  1.
</event>
<event>
 7    1  0.1971192E-015  0.9000768E+02  0.7816164E-02  0.1186339E+00
        -11   -1    0    0    0    0  0.00000000000E+00  0.00000000000E+00  0.45593999997E+02  0.45594000000E+02  0.51100000000E-03 0. -1.
         11   -1    0    0    0    0 -0.00000000000E+00 -0.00000000000E+00 -0.45593999997E+02  0.45594000000E+02  0.51100000000E-03 0.  1.
    9900012    2    1    2    0    0  0.73315453456E+00 -0.12987011825E+00 -0.91584311242E+00  0.90007682066E+02  0.89999942669E+02 0.  0.
         12    1    1    2    0    0 -0.73315453456E+00  0.12987011825E+00  0.91584311242E+00  0.11803179342E+01  0.00000000000E+00 0. -1.
         11    1    3    3    0    0 -0.81831976627E+01 -0.53442748360E+01 -0.39073271715E+01  0.10525835045E+02  0.51100000000E-03 0. -1.
        -11    1    3    3    0    0 -0.32424770356E+02  0.15074771194E+02 -0.53924594750E+01  0.36162039194E+02  0.51100000000E-03 0.  1.
         12    1    3    3    0    0  0.41341122553E+02 -0.98603664767E+01  0.83839435341E+01  0.43319807827E+02  0.00000000000E+00 0. -1.
</event>
<event>
 7    1  0.1971192E-015  0.9000774E+02  0.7816164E-02  0.1186339E+00
        -11   -1    0    0    0    0  0.00000000000E+00  0.00000000000E+00  0.45593999997E+02  0.45594000000E+02  0.51100000000E-03 0. -1.
         11   -1    0    0    0    0 -0.00000000000E+00 -0.00000000000E+00 -0.45593999997E+02  0.45594000000E+02  0.51100000000E-03 0.  1.
    9900012    2    1    2    0    0  0.11261727716E+01  0.14195201484E+00 -0.32343139918E+00  0.90007735896E+02  0.89999997209E+02 0.  0.
         12    1    1    2    0    0 -0.11261727716E+01 -0.14195201484E+00  0.32343139918E+00  0.11802641044E+01  0.00000000000E+00 0. -1.
         11    1    3    3    0    0  0.23626315834E+02 -0.26200324789E+02 -0.21278736566E+02  0.41200053993E+02  0.51100000000E-03 0. -1.
        -11    1    3    3    0    0  0.63389581589E+01  0.64633916687E+01  0.42064406863E+01  0.99825831282E+01  0.51100000000E-03 0.  1.
        -12    1    3    3    0    0 -0.28839101221E+02  0.19878885135E+02  0.16748864480E+02  0.38825098774E+02  0.00000000000E+00 0.  1.
</event>
<event>
 7    1  0.1971192E-015  0.9000770E+02  0.7816164E-02  0.1186339E+00
        -11   -1    0    0    0    0  0.00000000000E+00  0.00000000000E+00  0.45593999997E+02  0.45594000000E+02  0.51100000000E-03 0. -1.
         11   -1    0    0    0    0 -0.00000000000E+00 -0.00000000000E+00 -0.45593999997E+02  0.45594000000E+02  0.51100000000E-03 0.  1.
    9900012    2    1    2    0    0 -0.14990149295E+00  0.38096302921E+00 -0.11070242112E+01  0.90007700931E+02  0.89999961784E+02 0.  0.
         12    1    1    2    0    0  0.14990149295E+00 -0.38096302921E+00  0.11070242112E+01  0.11802990687E+01  0.00000000000E+00 0. -1.
         11    1    3    3    0    0  0.74648697994E+01 -0.59291670127E+01 -0.20697796226E+01  0.97551673760E+01  0.51100000000E-03 0. -1.
        -11    1    3    3    0    0  0.14765606303E+02  0.28476535232E+01 -0.34806972690E+02  0.37916455638E+02  0.51100000000E-03 0.  1.
         12    1    3    3    0    0 -0.22380377595E+02  0.34624765188E+01  0.35769728101E+02  0.42336077917E+02  0.00000000000E+00 0. -1.
</event>
<event>
 7    1  0.1971192E-015  0.9000780E+02  0.7816164E-02  0.1186339E+00
        -11   -1    0    0    0    0  0.00000000000E+00  0.00000000000E+00  0.45593999997E+02  0.45594000000E+02  0.51100000000E-03 0. -1.
         11   -1    0    0    0    0 -0.00000000000E+00 -0.00000000000E+00 -0.45593999997E+02  0.45594000000E+02  0.51100000000E-03 0.  1.
    9900012    2    1    2    0    0  0.10443447545E+01  0.24448369247E+00 -0.49238661938E+00  0.90007799667E+02  0.90000061823E+02 0.  0.
         12    1    1    2    0    0 -0.10443447545E+01 -0.24448369247E+00  0.49238661938E+00  0.11802003326E+01  0.00000000000E+00 0. -1.
         11    1    3    3    0    0  0.66121982133E+01 -0.20162230886E+02  0.22907901579E+02  0.31225128895E+02  0.51100000000E-03 0. -1.
        -11    1    3    3    0    0  0.47832446036E+01 -0.38373067031E+01  0.12687719084E+02  0.14091932709E+02  0.51100000000E-03 0.  1.
        -12    1    3    3    0    0 -0.10351098062E+02  0.24244021282E+02 -0.36088007282E+02  0.44690738063E+02  0.00000000000E+00 0.  1.
</event>
<event>
 7    1  0.1971192E-015  0.9000722E+02  0.7816164E-02  0.1186340E+00
        -11   -1    0    0    0    0  0.00000000000E+00  0.00000000000E+00  0.45593999997E+02  0.45594000000E+02  0.51100000000E-03 0.  1.
         11   -1    0    0    0    0 -0.00000000000E+00 -0.00000000000E+00 -0.45593999997E+02  0.45594000000E+02  0.51100000000E-03 0. -1.
    9900012    2    1    2    0    0 -0.11356797153E+01  0.17149346001E+00 -0.27395578213E+00  0.90007224749E+02  0.89999479314E+02 0.  0.
         12    1    1    2    0    0  0.11356797153E+01 -0.17149346001E+00  0.27395578213E+00  0.11807752509E+01  0.00000000000E+00 0. -1.
         11    1    3    3    0    0  0.89934185850E+01  0.50887947927E+00  0.37372765771E+01  0.97523213977E+01  0.51100000000E-03 0. -1.
        -11    1    3    3    0    0 -0.12352879379E+02  0.27297540680E+02  0.25803390453E+02  0.39541931102E+02  0.51100000000E-03 0.  1.
         12    1    3    3    0    0  0.22237810783E+01 -0.27634926700E+02 -0.29814622812E+02  0.40712972250E+02  0.00000000000E+00 0. -1.
</event>
<event>
 7    1  0.1971192E-015  0.9000779E+02  0.7816164E-02  0.1186339E+00
        -11   -1    0    0    0    0  0.00000000000E+00  0.00000000000E+00  0.45593999997E+02  0.45594000000E+02  0.51100000000E-03 0. -1.
         11   -1    0    0    0    0 -0.00000000000E+00 -0.00000000000E+00 -0.45593999997E+02  0.45594000000E+02  0.51100000000E-03 0.  1.
    9900012    2    1    2    0    0  0.77510087445E+00 -0.39683790120E+00 -0.79663390546E+00  0.90007793550E+02  0.90000055625E+02 0.  0.
         12    1    1    2    0    0 -0.77510087445E+00  0.39683790120E+00  0.79663390546E+00  0.11802064500E+01  0.00000000000E+00 0. -1.
         11    1    3    3    0    0 -0.99756563837E+01  0.27101024332E+01  0.15789859126E+01  0.10457130211E+02  0.51100000000E-03 0. -1.
        -11    1    3    3    0    0 -0.25393348717E+02 -0.28738760454E+01  0.23801196691E+02  0.34922461064E+02  0.51100000000E-03 0.  1.
         12    1    3    3    0    0  0.36144105975E+02 -0.23306428900E+00 -0.26176816509E+02  0.44628202275E+02  0.00000000000E+00 0. -1.
</event>
<event>
 7    1  0.1971192E-015  0.9000773E+02  0.7816164E-02  0.1186339E+00
        -11   -1    0    0    0    0  0.00000000000E+00  0.00000000000E+00  0.45593999997E+02  0.45594000000E+02  0.51100000000E-03 0.  1.
         11   -1    0    0    0    0 -0.00000000000E+00 -0.00000000000E+00 -0.45593999997E+02  0.45594000000E+02  0.51100000000E-03 0. -1.
    9900012    2    1    2    0    0 -0.93308458600E+00 -0.66786078212E+00  0.27632452695E+00  0.90007728797E+02  0.89999990017E+02 0.  0.
         12    1    1    2    0    0  0.93308458600E+00  0.66786078212E+00 -0.27632452695E+00  0.11802712032E+01  0.00000000000E+00 0. -1.
         11    1    3    3    0    0 -0.82118038795E+01  0.86539746071E+01 -0.15920129418E+01  0.12035759424E+02  0.51100000000E-03 0. -1.
        -11    1    3    3    0    0 -0.28632740383E+02  0.17100853093E+02  0.15351463576E+01  0.33386070043E+02  0.51100000000E-03 0.  1.
         12    1    3    3    0    0  0.35911459676E+02 -0.26422688482E+02  0.33319111112E+00  0.44585899329E+02  0.00000000000E+00 0. -1.
</event>
<event>
 7    1  0.1971192E-015  0.9000771E+02  0.7816164E-02  0.1186339E+00
        -11   -1    0    0    0    0  0.00000000000E+00  0.00000000000E+00  0.45593999997E+02  0.45594000000E+02  0.51100000000E-03 0.  1.
         11   -1    0    0    0    0 -0.00000000000E+00 -0.00000000000E+00 -0.45593999997E+02  0.45594000000E+02  0.51100000000E-03 0. -1.
    9900012    2    1    2    0    0  0.42968404566E+00  0.11460344243E-01  0.10992401496E+01  0.90007708246E+02  0.89999969195E+02 0.  0.
         12    1    1    2    0    0 -0.42968404566E+00 -0.11460344243E-01 -0.10992401496E+01  0.11802917542E+01  0.00000000000E+00 0. -1.
         11    1    3    3    0    0  0.19577123458E+01 -0.29241255874E+00  0.83143184774E+01  0.85466973000E+01  0.51100000000E-03 0. -1.
        -11    1    3    3    0    0  0.22113699999E+02 -0.30953411283E+02  0.89288576083E+01  0.39074977878E+02  0.51100000000E-03 0.  1.
         12    1    3    3    0    0 -0.23641728299E+02  0.31257284186E+02 -0.16143935936E+02  0.42386033068E+02  0.00000000000E+00 0. -1.
</event>
<event>
 7    1  0.1971192E-015  0.9000775E+02  0.7816164E-02  0.1186339E+00
        -11   -1    0    0    0    0  0.00000000000E+00  0.00000000000E+00  0.45593999997E+02  0.45594000000E+02  0.51100000000E-03 0.  1.
         11   -1    0    0    0    0 -0.00000000000E+00 -0.00000000000E+00 -0.45593999997E+02  0.45594000000E+02  0.51100000000E-03 0. -1.
    9900012    2    1    2    0    0  0.36140528123E-01  0.10138709419E+01  0.60311286959E+00  0.90007751908E+02  0.90000013433E+02 0.  0.
         12    1    1    2    0    0 -0.36140528123E-01 -0.10138709419E+01 -0.60311286959E+00  0.11802480918E+01  0.00000000000E+00 0. -1.
         11    1    3    3    0    0  0.73859290783E+01 -0.10185216156E+01  0.50573806743E+01  0.90092415983E+01  0.51100000000E-03 0. -1.
        -11    1    3    3    0    0  0.15877774543E+02 -0.34273568704E+02 -0.17436777194E+01  0.37812982538E+02  0.51100000000E-03 0.  1.
         12    1    3    3    0    0 -0.23227563094E+02  0.36305961261E+02 -0.27105900854E+01  0.43185527772E+02  0.00000000000E+00 0. -1.
</event>
<event>
 7    1  0.1971192E-015  0.9000774E+02  0.7816164E-02  0.1186339E+00
        -11   -1    0    0    0    0  0.00000000000E+00  0.00000000000E+00  0.45593999997E+02  0.45594000000E+02  0.51100000000E-03 0. -1.
         11   -1    0    0    0    0 -0.00000000000E+00 -0.00000000000E+00 -0.45593999997E+02  0.45594000000E+02  0.51100000000E-03 0.  1.
    9900012    2    1    2    0    0 -0.11431788965E+01 -0.29351863760E+00  0.24148575565E-02  0.90007738583E+02  0.89999999933E+02 0.  0.
         12    1    1    2    0    0  0.11431788965E+01  0.29351863760E+00 -0.24148575565E-02  0.11802614167E+01  0.00000000000E+00 0. -1.
         11    1    3    3    0    0  0.82796623575E+01 -0.37564506655E+02 -0.11657451409E+02  0.40193794827E+02  0.51100000000E-03 0. -1.
        -11    1    3    3    0    0  0.46407938363E+01  0.17707341523E+01 -0.59614840104E+01  0.77596236208E+01  0.51100000000E-03 0.  1.
        -12    1    3    3    0    0 -0.14063635090E+02  0.35500253865E+02  0.17621350276E+02  0.42054320135E+02  0.00000000000E+00 0.  1.
</event>
<event>
 7    1  0.1971192E-015  0.9000768E+02  0.7816164E-02  0.1186339E+00
        -11   -1    0    0    0    0  0.00000000000E+00  0.00000000000E+00  0.45593999997E+02  0.45594000000E+02  0.51100000000E-03 0. -1.
         11   -1    0    0    0    0 -0.00000000000E+00 -0.00000000000E+00 -0.45593999997E+02  0.45594000000E+02  0.51100000000E-03 0.  1.
    9900012    2    1    2    0    0  0.15194851746E+00  0.15830508585E+00 -0.11597402976E+01  0.90007683767E+02  0.89999944393E+02 0.  0.
         12    1    1    2    0    0 -0.15194851746E+00 -0.15830508585E+00  0.11597402976E+01  0.11803162331E+01  0.00000000000E+00 0. -1.
         11    1    3    3    0    0  0.27564074071E+02 -0.24765133669E+02 -0.18234459479E+00  0.37055678038E+02  0.51100000000E-03 0. -1.
        -11    1    3    3    0    0 -0.15869370439E+01 -0.95597761333E+01 -0.18299952009E+01  0.98618746492E+01  0.51100000000E-03 0.  1.
        -12    1    3    3    0    0 -0.25825188510E+02  0.34483214888E+02  0.85259949810E+00  0.43090131080E+02  0.00000000000E+00 0.  1.
</event>
<event>
 7    1  0.1971192E-015  0.9000776E+02  0.7816164E-02  0.1186339E+00
        -11   -1    0    0    0    0  0.00000000000E+00  0.00000000000E+00  0.45593999997E+02  0.45594000000E+02  0.51100000000E-03 0.  1.
         11   -1    0    0    0    0 -0.00000000000E+00 -0.00000000000E+00 -0.45593999997E+02  0.45594000000E+02  0.51100000000E-03 0. -1.
    9900012    2    1    2    0    0 -0.26109118023E+00  0.62714024303E+00  0.96514110562E+00  0.90007758142E+02  0.90000019750E+02 0.  0.
         12    1    1    2    0    0  0.26109118023E+00 -0.62714024303E+00 -0.96514110562E+00  0.11802418577E+01  0.00000000000E+00 0. -1.
         11    1    3    3    0    0  0.49341887746E+01  0.56169917173E+01  0.17266348700E+01  0.76732055264E+01  0.51100000000E-03 0. -1.
        -11    1    3    3    0    0 -0.15208827976E+02  0.24211884991E+02  0.28088729707E+02  0.40081174634E+02  0.51100000000E-03 0.  1.
         12    1    3    3    0    0  0.10013548021E+02 -0.29201736465E+02 -0.28850223471E+02  0.42253377982E+02  0.00000000000E+00 0. -1.
</event>
<event>
 7    1  0.3024313E-015  0.9000801E+02  0.7816164E-02  0.1186339E+00
        -11   -1    0    0    0    0  0.00000000000E+00  0.00000000000E+00  0.45593999997E+02  0.45594000000E+02  0.51100000000E-03 0. -1.
         11   -1    0    0    0    0 -0.00000000000E+00 -0.00000000000E+00 -0.45593999997E+02  0.45594000000E+02  0.51100000000E-03 0.  1.
    9900012    2    1    2    0    0  0.54495492465E+00  0.27548551033E+00 -0.10097107644E+01  0.90008006795E+02  0.90000271684E+02 0.  0.
         12    1    1    2    0    0 -0.54495492465E+00 -0.27548551033E+00  0.10097107644E+01  0.11799932051E+01  0.00000000000E+00 0. -1.
         11    1    3    3    0    0  0.12896063949E+02  0.21097634455E+02  0.30759856838E+02  0.39466282292E+02  0.51100000000E-03 0. -1.
        -11    1    3    3    0    0  0.71150194537E+01  0.36642580912E+01 -0.57697322237E+01  0.98661086239E+01  0.51100000000E-03 0.  1.
        -12    1    3    3    0    0 -0.19466128478E+02 -0.24486407035E+02 -0.25999835379E+02  0.40675615879E+02  0.00000000000E+00 0.  1.
</event>
<event>
 7    1  0.1971192E-015  0.9000783E+02  0.7816164E-02  0.1186339E+00
        -11   -1    0    0    0    0  0.00000000000E+00  0.00000000000E+00  0.45593999997E+02  0.45594000000E+02  0.51100000000E-03 0.  1.
         11   -1    0    0    0    0 -0.00000000000E+00 -0.00000000000E+00 -0.45593999997E+02  0.45594000000E+02  0.51100000000E-03 0. -1.
    9900012    2    1    2    0    0 -0.32089439080E+00  0.32415974535E+00  0.10884638929E+01  0.90007827811E+02  0.90000090338E+02 0.  0.
         12    1    1    2    0    0  0.32089439080E+00 -0.32415974535E+00 -0.10884638929E+01  0.11801721894E+01  0.00000000000E+00 0. -1.
         11    1    3    3    0    0 -0.32540549763E+02 -0.21938186699E+02  0.93123700783E+01  0.40334744963E+02  0.51100000000E-03 0. -1.
        -11    1    3    3    0    0 -0.21427870362E+01  0.24911678134E+01 -0.94548691158E+01  0.10009595577E+02  0.51100000000E-03 0.  1.
        -12    1    3    3    0    0  0.34362442408E+02  0.19771178631E+02  0.12309629304E+01  0.39663487270E+02  0.00000000000E+00 0.  1.
</event>
<event>
 7    1  0.1971192E-015  0.9000784E+02  0.7816164E-02  0.1186339E+00
        -11   -1    0    0    0    0  0.00000000000E+00  0.00000000000E+00  0.45593999997E+02  0.45594000000E+02  0.51100000000E-03 0. -1.
         11   -1    0    0    0    0 -0.00000000000E+00 -0.00000000000E+00 -0.45593999997E+02  0.45594000000E+02  0.51100000000E-03 0.  1.
    9900012    2    1    2    0    0  0.16740997104E+00  0.11621764334E+01  0.11868488573E+00  0.90007844814E+02  0.90000107566E+02 0.  0.
         12    1    1    2    0    0 -0.16740997104E+00 -0.11621764334E+01 -0.11868488573E+00  0.11801551859E+01  0.00000000000E+00 0. -1.
         11    1    3    3    0    0 -0.63143302043E+01  0.43160127950E+01  0.10059355583E+02  0.12636825843E+02  0.51100000000E-03 0. -1.
        -11    1    3    3    0    0 -0.31096354129E+01 -0.31523914302E+01 -0.42857312031E+02  0.43085456930E+02  0.51100000000E-03 0.  1.
         12    1    3    3    0    0  0.95913755883E+01 -0.14449314731E-02  0.32916641334E+02  0.34285562041E+02  0.00000000000E+00 0. -1.
</event>
<event>
 7    1  0.1971192E-015  0.9000775E+02  0.7816164E-02  0.1186339E+00
        -11   -1    0    0    0    0  0.00000000000E+00  0.00000000000E+00  0.45593999997E+02  0.45594000000E+02  0.51100000000E-03 0. -1.
         11   -1    0    0    0    0 -0.00000000000E+00 -0.00000000000E+00 -0.45593999997E+02  0.45594000000E+02  0.51100000000E-03 0.  1.
    9900012    2    1    2    0    0 -0.74755196197E+00  0.26311723447E+00 -0.87459412659E+00  0.90007754474E+02  0.90000016033E+02 0.  0.
         12    1    1    2    0    0  0.74755196197E+00 -0.26311723447E+00  0.87459412659E+00  0.11802455258E+01  0.00000000000E+00 0. -1.
         11    1    3    3    0    0  0.87424886929E+01 -0.33596080012E+02  0.18498156981E+02  0.39335855306E+02  0.51100000000E-03 0. -1.
        -11    1    3    3    0    0  0.86758214617E+01  0.28906695898E+01  0.13088270087E+01  0.92379043680E+01  0.51100000000E-03 0.  1.
        -12    1    3    3    0    0 -0.18165862117E+02  0.30968527657E+02 -0.20681578117E+02  0.41433994800E+02  0.00000000000E+00 0.  1.
</event>
<event>
 7    1  0.1971192E-015  0.9000782E+02  0.7816164E-02  0.1186339E+00
        -11   -1    0    0    0    0  0.00000000000E+00  0.00000000000E+00  0.45593999997E+02  0.45594000000E+02  0.51100000000E-03 0. -1.
         11   -1    0    0    0    0 -0.00000000000E+00 -0.00000000000E+00 -0.45593999997E+02  0.45594000000E+02  0.51100000000E-03 0.  1.
    9900012    2    1    2    0    0 -0.99397601895E+00  0.47299412666E+00  0.42557489366E+00  0.90007819607E+02  0.90000082026E+02 0.  0.
         12    1    1    2    0    0  0.99397601895E+00 -0.47299412666E+00 -0.42557489366E+00  0.11801803931E+01  0.00000000000E+00 0. -1.
         11    1    3    3    0    0 -0.62364822214E+01 -0.39258009351E+02 -0.60136786902E+01  0.40202603651E+02  0.51100000000E-03 0. -1.
        -11    1    3    3    0    0 -0.93834038047E+01  0.34803043218E+01 -0.83990060543E+00  0.10043217533E+02  0.51100000000E-03 0.  1.
        -12    1    3    3    0    0  0.14625910007E+02  0.36250699156E+02  0.72791541893E+01  0.39761998422E+02  0.00000000000E+00 0.  1.
</event>
<event>
 7    1  0.1971192E-015  0.9000767E+02  0.7816164E-02  0.1186339E+00
        -11   -1    0    0    0    0  0.00000000000E+00  0.00000000000E+00  0.45593999997E+02  0.45594000000E+02  0.51100000000E-03 0. -1.
         11   -1    0    0    0    0 -0.00000000000E+00 -0.00000000000E+00 -0.45593999997E+02  0.45594000000E+02  0.51100000000E-03 0.  1.
    9900012    2    1    2    0    0  0.89712045052E+00 -0.20274074743E+00 -0.73976244642E+00  0.90007670643E+02  0.89999931096E+02 0.  0.
         12    1    1    2    0    0 -0.89712045052E+00  0.20274074743E+00  0.73976244642E+00  0.11803293568E+01  0.00000000000E+00 0. -1.
         11    1    3    3    0    0 -0.22183747431E+01  0.72574956986E+01  0.40395971128E+01  0.85971376289E+01  0.51100000000E-03 0. -1.
        -11    1    3    3    0    0 -0.30398241609E+01  0.28019739472E+02 -0.27054589767E+02  0.39067853265E+02  0.51100000000E-03 0.  1.
         12    1    3    3    0    0  0.61553193545E+01 -0.35479975918E+02  0.22275230208E+02  0.42342679749E+02  0.00000000000E+00 0. -1.
</event>
<event>
 7    1  0.1971192E-015  0.9000760E+02  0.7816164E-02  0.1186339E+00
        -11   -1    0    0    0    0  0.00000000000E+00  0.00000000000E+00  0.45593999997E+02  0.45594000000E+02  0.51100000000E-03 0.  1.
         11   -1    0    0    0    0 -0.00000000000E+00 -0.00000000000E+00 -0.45593999997E+02  0.45594000000E+02  0.51100000000E-03 0. -1.
    9900012    2    1    2    0    0  0.11238689803E+01 -0.30632061496E+00 -0.19086053596E+00  0.90007601106E+02  0.89999860641E+02 0.  0.
         12    1    1    2    0    0 -0.11238689803E+01  0.30632061496E+00  0.19086053596E+00  0.11803988937E+01  0.00000000000E+00 0. -1.
         11    1    3    3    0    0 -0.40157779124E+02 -0.71341795273E+01  0.19589270484E+01  0.40833578549E+02  0.51100000000E-03 0. -1.
        -11    1    3    3    0    0 -0.33337705641E+01  0.57853602383E+00 -0.23552061265E+01  0.41225873265E+01  0.51100000000E-03 0.  1.
        -12    1    3    3    0    0  0.44615418669E+02  0.62493228885E+01  0.20541854212E+00  0.45051435230E+02  0.00000000000E+00 0.  1.
</event>
<event>
 7    1  0.1971192E-015  0.9000769E+02  0.7816164E-02  0.1186339E+00
        -11   -1    0    0    0    0  0.00000000000E+00  0.00000000000E+00  0.45593999997E+02  0.45594000000E+02  0.51100000000E-03 0.  1.
         11   -1    0    0    0    0 -0.00000000000E+00 -0.00000000000E+00 -0.45593999997E+02  0.45594000000E+02  0.51100000000E-03 0. -1.
    9900012    2    1    2    0    0 -0.13895723346E+00 -0.67453757185E+00  0.95855017045E+00  0.90007691363E+02  0.89999952089E+02 0.  0.
         12    1    1    2    0    0  0.13895723346E+00  0.67453757185E+00 -0.95855017045E+00  0.11803086367E+01  0.00000000000E+00 0. -1.
         11    1    3    3    0    0  0.71325477826E+01  0.11765024033E+01  0.10509790594E+02  0.12755904294E+02  0.51100000000E-03 0. -1.
        -11    1    3    3    0    0  0.11140620194E+01 -0.20826298077E+02  0.27663930458E+02  0.34644896802E+02  0.51100000000E-03 0.  1.
         12    1    3    3    0    0 -0.83855670354E+01  0.18975258102E+02 -0.37215170881E+02  0.42606890267E+02  0.00000000000E+00 0. -1.
</event>
<event>
 7    1  0.2702896E-015  0.9000768E+02  0.7816164E-02  0.1186339E+00
        -11   -1    0    0    0    0  0.00000000000E+00  0.00000000000E+00  0.45593999997E+02  0.45594000000E+02  0.51100000000E-03 0. -1.
         11   -1    0    0    0    0 -0.00000000000E+00 -0.00000000000E+00 -0.45593999997E+02  0.45594000000E+02  0.51100000000E-03 0.  1.
    9900012    2    1    2    0    0 -0.70731187748E-01 -0.63871664530E+00 -0.99004875951E+00  0.90007678688E+02  0.89999939246E+02 0.  0.
         12    1    1    2    0    0  0.70731187748E-01  0.63871664530E+00  0.99004875951E+00  0.11803213122E+01  0.00000000000E+00 0. -1.
         11    1    3    3    0    0  0.19585511224E+02 -0.19908861176E+02  0.30105200226E+02  0.41064316433E+02  0.51100000000E-03 0. -1.
        -11    1    3    3    0    0  0.60309479812E+01  0.87552151331E+00 -0.64501068697E+01  0.88737111945E+01  0.51100000000E-03 0.  1.
        -12    1    3    3    0    0 -0.25687190393E+02  0.18394623017E+02 -0.24645142115E+02  0.40069651060E+02  0.00000000000E+00 0.  1.
</event>
<event>
 7    1  0.1971192E-015  0.9000776E+02  0.7816164E-02  0.1186339E+00
        -11   -1    0    0    0    0  0.00000000000E+00  0.00000000000E+00  0.45593999997E+02  0.45594000000E+02  0.51100000000E-03 0.  1.
         11   -1    0    0    0    0 -0.00000000000E+00 -0.00000000000E+00 -0.45593999997E+02  0.45594000000E+02  0.51100000000E-03 0. -1.
    9900012    2    1    2    0    0 -0.31834849548E+00  0.91534470580E+00 -0.67362801281E+00  0.90007755790E+02  0.90000017367E+02 0.  0.
         12    1    1    2    0    0  0.31834849548E+00 -0.91534470580E+00  0.67362801281E+00  0.11802442098E+01  0.00000000000E+00 0. -1.
         11    1    3    3    0    0  0.34157995229E+02  0.12339604763E+00 -0.14753700692E+02  0.37208272589E+02  0.51100000000E-03 0. -1.
        -11    1    3    3    0    0 -0.37459078880E+01 -0.15475679935E+02  0.65833437235E+01  0.17229884219E+02  0.51100000000E-03 0.  1.
        -12    1    3    3    0    0 -0.30730435836E+02  0.16267628593E+02  0.74967289560E+01  0.35569598983E+02  0.00000000000E+00 0.  1.
</event>
<event>
 7    1  0.1971192E-015  0.9000774E+02  0.7816164E-02  0.1186339E+00
        -11   -1    0    0    0    0  0.00000000000E+00  0.00000000000E+00  0.45593999997E+02  0.45594000000E+02  0.51100000000E-03 0.  1.
         11   -1    0    0    0    0 -0.00000000000E+00 -0.00000000000E+00 -0.45593999997E+02  0.45594000000E+02  0.51100000000E-03 0. -1.
    9900012    2    1    2    0    0  0.10715226710E+01  0.44372630811E+00 -0.21900875053E+00  0.90007737866E+02  0.89999999206E+02 0.  0.
         12    1    1    2    0    0 -0.10715226710E+01 -0.44372630811E+00  0.21900875053E+00  0.11802621335E+01  0.00000000000E+00 0. -1.
         11    1    3    3    0    0 -0.89534320539E+01 -0.32179185492E+01 -0.26737097017E+01  0.98826954402E+01  0.51100000000E-03 0. -1.
        -11    1    3    3    0    0 -0.62135161380E+01  0.25686466113E+02  0.30896547002E+02  0.40657089678E+02  0.51100000000E-03 0.  1.
         12    1    3    3    0    0  0.16238470863E+02 -0.22024821256E+02 -0.28441846051E+02  0.39467952748E+02  0.00000000000E+00 0. -1.
</event>
<event>
 7    1  0.1971192E-015  0.9000778E+02  0.7816164E-02  0.1186339E+00
        -11   -1    0    0    0    0  0.00000000000E+00  0.00000000000E+00  0.45593999997E+02  0.45594000000E+02  0.51100000000E-03 0.  1.
         11   -1    0    0    0    0 -0.00000000000E+00 -0.00000000000E+00 -0.45593999997E+02  0.45594000000E+02  0.51100000000E-03 0. -1.
    9900012    2    1    2    0    0 -0.68020921816E+00  0.80350868236E+00  0.53349325339E+00  0.90007777210E+02  0.90000039069E+02 0.  0.
         12    1    1    2    0    0  0.68020921816E+00 -0.80350868236E+00 -0.53349325339E+00  0.11802227902E+01  0.00000000000E+00 0. -1.
         11    1    3    3    0    0 -0.33968860595E+02  0.20283427575E+02 -0.55265757288E+01  0.39948015769E+02  0.51100000000E-03 0. -1.
        -11    1    3    3    0    0  0.30736847484E+01 -0.42717929593E+01 -0.10985668081E+02  0.12181159899E+02  0.51100000000E-03 0.  1.
        -12    1    3    3    0    0  0.30214966629E+02 -0.15208125933E+02  0.17045737064E+02  0.37878601542E+02  0.00000000000E+00 0.  1.
</event>
<event>
 7    1  0.1971192E-015  0.9000774E+02  0.7816164E-02  0.1186339E+00
        -11   -1    0    0    0    0  0.00000000000E+00  0.00000000000E+00  0.45593999997E+02  0.45594000000E+02  0.51100000000E-03 0.  1.
         11   -1    0    0    0    0 -0.00000000000E+00 -0.00000000000E+00 -0.45593999997E+02  0.45594000000E+02  0.51100000000E-03 0. -1.
    9900012    2    1    2    0    0 -0.39931944719E+00 -0.65985024947E-01  0.11086953801E+01  0.90007739228E+02  0.90000000586E+02 0.  0.
         12    1    1    2    0    0  0.39931944719E+00  0.65985024947E-01 -0.11086953801E+01  0.11802607721E+01  0.00000000000E+00 0. -1.
         11    1    3    3    0    0 -0.10481474962E+02  0.31077181548E+02 -0.16461357018E+02  0.36696441319E+02  0.51100000000E-03 0. -1.
        -11    1    3    3    0    0 -0.24250758624E+01  0.28677770478E+01 -0.80827141595E+01  0.89126542949E+01  0.51100000000E-03 0.  1.
        -12    1    3    3    0    0  0.12507231377E+02 -0.34010943621E+02  0.25652766558E+02  0.44398643614E+02  0.00000000000E+00 0.  1.
</event>
<event>
 7    1  0.1971192E-015  0.9000794E+02  0.7816164E-02  0.1186339E+00
        -11   -1    0    0    0    0  0.00000000000E+00  0.00000000000E+00  0.45593999997E+02  0.45594000000E+02  0.51100000000E-03 0. -1.
         11   -1    0    0    0    0 -0.00000000000E+00 -0.00000000000E+00 -0.45593999997E+02  0.45594000000E+02  0.51100000000E-03 0.  1.
    9900012    2    1    2    0    0  0.96809949432E+00 -0.40174149368E+00  0.54214395034E+00  0.90007943679E+02  0.90000207735E+02 0.  0.
         12    1    1    2    0    0 -0.96809949432E+00  0.40174149368E+00 -0.54214395034E+00  0.11800563213E+01  0.00000000000E+00 0. -1.
         11    1    3    3    0    0  0.22744164392E+02  0.20871920607E+02  0.20142006954E+02  0.36859659902E+02  0.51100000000E-03 0. -1.
        -11    1    3    3    0    0  0.10029052040E+02  0.16662894375E+01 -0.34153491023E+01  0.10724878324E+02  0.51100000000E-03 0.  1.
        -12    1    3    3    0    0 -0.31805116938E+02 -0.22939951538E+02 -0.16184513901E+02  0.42423405453E+02  0.00000000000E+00 0.  1.
</event>
<event>
 8    1  0.1971192E-015  0.9000775E+02  0.7816164E-02  0.1186339E+00
        -11   -1    0    0    0    0  0.00000000000E+00  0.00000000000E+00  0.45593999997E+02  0.45594000000E+02  0.51100000000E-03 0. -1.
         11   -1    0    0    0    0 -0.00000000000E+00 -0.00000000000E+00 -0.45593999997E+02  0.45594000000E+02  0.51100000000E-03 0.  1.
    9900012    2    1    2    0    0  0.11575447730E+01  0.20308408789E+00  0.10884603355E+00  0.90007745575E+02  0.90000007017E+02 0.  0.
         23    2    3    3    0    0  0.15620048523E+02  0.20613378416E+02 -0.31810532675E+01  0.64777454917E+02  0.59305162339E+02 0.  0.
         12    1    1    2    0    0 -0.11575447730E+01 -0.20308408789E+00 -0.10884603355E+00  0.11802544248E+01  0.00000000000E+00 0. -1.
         11    1    4    4    0    0  0.26055235793E+02  0.10560696365E+02 -0.25639944128E+02  0.38050103221E+02  0.51100000000E-03 0.  1.
        -11    1    4    4    0    0 -0.10435187270E+02  0.10052682050E+02  0.22458890861E+02  0.26727351697E+02  0.51100000000E-03 0. -1.
        -12    1    3    3    0    0 -0.14462503750E+02 -0.20410294328E+02  0.32898993011E+01  0.25230290658E+02  0.00000000000E+00 0.  1.
</event>
<event>
 7    1  0.1971192E-015  0.9000776E+02  0.7816164E-02  0.1186339E+00
        -11   -1    0    0    0    0  0.00000000000E+00  0.00000000000E+00  0.45593999997E+02  0.45594000000E+02  0.51100000000E-03 0. -1.
         11   -1    0    0    0    0 -0.00000000000E+00 -0.00000000000E+00 -0.45593999997E+02  0.45594000000E+02  0.51100000000E-03 0.  1.
    9900012    2    1    2    0    0  0.39974746382E+00 -0.82118303438E+00 -0.74755373553E+00  0.90007755873E+02  0.90000017451E+02 0.  0.
         12    1    1    2    0    0 -0.39974746382E+00  0.82118303438E+00  0.74755373553E+00  0.11802441266E+01  0.00000000000E+00 0. -1.
         11    1    3    3    0    0  0.11597175426E+01  0.24989399310E+01 -0.92242753223E+01  0.96268842851E+01  0.51100000000E-03 0. -1.
        -11    1    3    3    0    0 -0.21541689627E+02 -0.17983941995E+02 -0.25514674216E+02  0.37927103268E+02  0.51100000000E-03 0.  1.
         12    1    3    3    0    0  0.20781719549E+02  0.14663819030E+02  0.33991395803E+02  0.42453768320E+02  0.00000000000E+00 0. -1.
</event>
<event>
 7    1  0.1971192E-015  0.9000784E+02  0.7816164E-02  0.1186339E+00
        -11   -1    0    0    0    0  0.00000000000E+00  0.00000000000E+00  0.45593999997E+02  0.45594000000E+02  0.51100000000E-03 0. -1.
         11   -1    0    0    0    0 -0.00000000000E+00 -0.00000000000E+00 -0.45593999997E+02  0.45594000000E+02  0.51100000000E-03 0.  1.
    9900012    2    1    2    0    0 -0.76684134583E+00  0.17095771918E+00 -0.88063227751E+00  0.90007836706E+02  0.90000099351E+02 0.  0.
         12    1    1    2    0    0  0.76684134583E+00 -0.17095771918E+00  0.88063227751E+00  0.11801632936E+01  0.00000000000E+00 0. -1.
         11    1    3    3    0    0 -0.42841929368E+02  0.10089903055E+02  0.78940915226E+01  0.44716369898E+02  0.51100000000E-03 0. -1.
        -11    1    3    3    0    0  0.10083375811E+02  0.20216717670E+01 -0.22051316700E+01  0.10517805400E+02  0.51100000000E-03 0.  1.
        -12    1    3    3    0    0  0.31991712211E+02 -0.11940617102E+02 -0.65695921301E+01  0.34773661409E+02  0.00000000000E+00 0.  1.
</event>
<event>
 7    1  0.1971192E-015  0.9000723E+02  0.7816164E-02  0.1186340E+00
        -11   -1    0    0    0    0  0.00000000000E+00  0.00000000000E+00  0.45593999997E+02  0.45594000000E+02  0.51100000000E-03 0. -1.
         11   -1    0    0    0    0 -0.00000000000E+00 -0.00000000000E+00 -0.45593999997E+02  0.45594000000E+02  0.51100000000E-03 0.  1.
    9900012    2    1    2    0    0  0.57765270625E-01 -0.10691446782E+01 -0.49780981486E+00  0.90007228311E+02  0.89999482923E+02 0.  0.
         12    1    1    2    0    0 -0.57765270625E-01  0.10691446782E+01  0.49780981486E+00  0.11807716888E+01  0.00000000000E+00 0. -1.
         11    1    3    3    0    0  0.22328186374E+01  0.11201549871E+02  0.19104982433E+01  0.11580595943E+02  0.51100000000E-03 0. -1.
        -11    1    3    3    0    0 -0.26036565337E+01  0.18183524687E+02 -0.31399250755E+02  0.36377637988E+02  0.51100000000E-03 0.  1.
         12    1    3    3    0    0  0.42860316691E+00 -0.30454219236E+02  0.28990942697E+02  0.42048994380E+02  0.00000000000E+00 0. -1.
</event>
<event>
 7    1  0.1971192E-015  0.9000781E+02  0.7816164E-02  0.1186339E+00
        -11   -1    0    0    0    0  0.00000000000E+00  0.00000000000E+00  0.45593999997E+02  0.45594000000E+02  0.51100000000E-03 0. -1.
         11   -1    0    0    0    0 -0.00000000000E+00 -0.00000000000E+00 -0.45593999997E+02  0.45594000000E+02  0.51100000000E-03 0.  1.
    9900012    2    1    2    0    0  0.10436800457E+01  0.16393729082E+00 -0.52602176998E+00  0.90007812568E+02  0.90000074893E+02 0.  0.
         12    1    1    2    0    0 -0.10436800457E+01 -0.16393729082E+00  0.52602176998E+00  0.11801874324E+01  0.00000000000E+00 0. -1.
         11    1    3    3    0    0  0.31434278867E+02  0.17522438967E+01  0.20083389510E+02  0.37343363279E+02  0.51100000000E-03 0. -1.
        -11    1    3    3    0    0  0.55643638201E+01  0.59293652228E+00  0.57541167258E+01  0.80264299659E+01  0.51100000000E-03 0.  1.
        -12    1    3    3    0    0 -0.35954962641E+02 -0.21812431281E+01 -0.26363528005E+02  0.44638019322E+02  0.00000000000E+00 0.  1.
</event>
<event>
 7    1  0.1971192E-015  0.9000781E+02  0.7816164E-02  0.1186339E+00
        -11   -1    0    0    0    0  0.00000000000E+00  0.00000000000E+00  0.45593999997E+02  0.45594000000E+02  0.51100000000E-03 0.  1.
         11   -1    0    0    0    0 -0.00000000000E+00 -0.00000000000E+00 -0.45593999997E+02  0.45594000000E+02  0.51100000000E-03 0. -1.
    9900012    2    1    2    0    0  0.11373253948E+01  0.30256412567E+00  0.88340583131E-01  0.90007805879E+02  0.90000068117E+02 0.  0.
         12    1    1    2    0    0 -0.11373253948E+01 -0.30256412567E+00 -0.88340583131E-01  0.11801941206E+01  0.00000000000E+00 0. -1.
         11    1    3    3    0    0  0.12433999779E+01 -0.91176211103E+01  0.23529095045E+01  0.94980651510E+01  0.51100000000E-03 0. -1.
        -11    1    3    3    0    0  0.28685773137E+02  0.59004794477E+01  0.26618566676E+02  0.39575716422E+02  0.51100000000E-03 0.  1.
         12    1    3    3    0    0 -0.28791847720E+02  0.35197057882E+01 -0.28883135598E+02  0.40934024306E+02  0.00000000000E+00 0. -1.
</event>
<event>
 7    1  0.1971192E-015  0.9000775E+02  0.7816164E-02  0.1186339E+00
        -11   -1    0    0    0    0  0.00000000000E+00  0.00000000000E+00  0.45593999997E+02  0.45594000000E+02  0.51100000000E-03 0.  1.
         11   -1    0    0    0    0 -0.00000000000E+00 -0.00000000000E+00 -0.45593999997E+02  0.45594000000E+02  0.51100000000E-03 0. -1.
    9900012    2    1    2    0    0 -0.49469400441E+00  0.82481943809E+00  0.68406692741E+00  0.90007747135E+02  0.90000008597E+02 0.  0.
         12    1    1    2    0    0  0.49469400441E+00 -0.82481943809E+00 -0.68406692741E+00  0.11802528647E+01  0.00000000000E+00 0. -1.
         11    1    3    3    0    0 -0.11128556025E+01  0.11024935668E+02  0.31832593325E+01  0.11529128081E+02  0.51100000000E-03 0. -1.
        -11    1    3    3    0    0  0.27261369375E+02  0.32431806821E+01 -0.28008159372E+02  0.39219350744E+02  0.51100000000E-03 0.  1.
         12    1    3    3    0    0 -0.26643207777E+02 -0.13443296912E+02  0.25508966967E+02  0.39259268310E+02  0.00000000000E+00 0. -1.
</event>
<event>
 7    1  0.1971192E-015  0.9000783E+02  0.7816164E-02  0.1186339E+00
        -11   -1    0    0    0    0  0.00000000000E+00  0.00000000000E+00  0.45593999997E+02  0.45594000000E+02  0.51100000000E-03 0.  1.
         11   -1    0    0    0    0 -0.00000000000E+00 -0.00000000000E+00 -0.45593999997E+02  0.45594000000E+02  0.51100000000E-03 0. -1.
    9900012    2    1    2    0    0 -0.49361138209E-01 -0.31186446564E+00  0.11371436318E+01  0.90007834077E+02  0.90000096687E+02 0.  0.
         12    1    1    2    0    0  0.49361138209E-01  0.31186446564E+00 -0.11371436318E+01  0.11801659232E+01  0.00000000000E+00 0. -1.
         11    1    3    3    0    0  0.14988332461E+02 -0.21980776754E+02 -0.29649051201E+02  0.39835548121E+02  0.51100000000E-03 0. -1.
        -11    1    3    3    0    0  0.54153344146E+01  0.87663377332E+01 -0.86475051299E+00  0.10340324839E+02  0.51100000000E-03 0.  1.
        -12    1    3    3    0    0 -0.20453028014E+02  0.12902574555E+02  0.31650945346E+02  0.39831961117E+02  0.00000000000E+00 0.  1.
</event>
<event>
 7    1  0.1971192E-015  0.9000765E+02  0.7816164E-02  0.1186339E+00
        -11   -1    0    0    0    0  0.00000000000E+00  0.00000000000E+00  0.45593999997E+02  0.45594000000E+02  0.51100000000E-03 0. -1.
         11   -1    0    0    0    0 -0.00000000000E+00 -0.00000000000E+00 -0.45593999997E+02  0.45594000000E+02  0.51100000000E-03 0.  1.
    9900012    2    1    2    0    0 -0.74147934727E+00 -0.90897173699E+00 -0.13120358321E+00  0.90007645976E+02  0.89999906103E+02 0.  0.
         12    1    1    2    0    0  0.74147934727E+00  0.90897173699E+00  0.13120358321E+00  0.11803540237E+01  0.00000000000E+00 0. -1.
         11    1    3    3    0    0 -0.26747307469E+02 -0.19536650986E+02 -0.12411246734E+02  0.35371432462E+02  0.51100000000E-03 0. -1.
        -11    1    3    3    0    0 -0.10759688681E+02  0.12241014168E+01 -0.29142854790E+01  0.11214382948E+02  0.51100000000E-03 0.  1.
        -12    1    3    3    0    0  0.36765516804E+02  0.17403577833E+02  0.15194328630E+02  0.43421830566E+02  0.00000000000E+00 0.  1.
</event>
<event>
 7    1  0.1971192E-015  0.9000786E+02  0.7816164E-02  0.1186339E+00
        -11   -1    0    0    0    0  0.00000000000E+00  0.00000000000E+00  0.45593999997E+02  0.45594000000E+02  0.51100000000E-03 0. -1.
         11   -1    0    0    0    0 -0.00000000000E+00 -0.00000000000E+00 -0.45593999997E+02  0.45594000000E+02  0.51100000000E-03 0.  1.
    9900012    2    1    2    0    0 -0.44494782050E+00 -0.52703836842E+00  0.95759624947E+00  0.90007856542E+02  0.90000119448E+02 0.  0.
         12    1    1    2    0    0  0.44494782050E+00  0.52703836842E+00 -0.95759624947E+00  0.11801434581E+01  0.00000000000E+00 0. -1.
         11    1    3    3    0    0 -0.12513005671E+02  0.22911199126E+02  0.27203597982E+02  0.37703237258E+02  0.51100000000E-03 0. -1.
        -11    1    3    3    0    0 -0.92574520364E+01 -0.26067092647E+01  0.34584335362E+01  0.10220377399E+02  0.51100000000E-03 0.  1.
        -12    1    3    3    0    0  0.21325509887E+02 -0.20831528230E+02 -0.29704435269E+02  0.42084241884E+02  0.00000000000E+00 0.  1.
</event>
<event>
 7    1  0.1971192E-015  0.9000774E+02  0.7816164E-02  0.1186339E+00
        -11   -1    0    0    0    0  0.00000000000E+00  0.00000000000E+00  0.45593999997E+02  0.45594000000E+02  0.51100000000E-03 0. -1.
         11   -1    0    0    0    0 -0.00000000000E+00 -0.00000000000E+00 -0.45593999997E+02  0.45594000000E+02  0.51100000000E-03 0.  1.
    9900012    2    1    2    0    0 -0.11211068848E+01 -0.26471674109E+00 -0.25701491188E+00  0.90007740594E+02  0.90000001970E+02 0.  0.
         12    1    1    2    0    0  0.11211068848E+01  0.26471674109E+00  0.25701491188E+00  0.11802594058E+01  0.00000000000E+00 0. -1.
         11    1    3    3    0    0  0.48452145106E+01  0.33320867914E+00 -0.90391968033E+01  0.10261296740E+02  0.51100000000E-03 0. -1.
        -11    1    3    3    0    0 -0.35497355208E+02 -0.22813900002E+02  0.67816013169E+01  0.42737879882E+02  0.51100000000E-03 0.  1.
         12    1    3    3    0    0  0.29531033813E+02  0.22215974582E+02  0.20005805744E+01  0.37008563973E+02  0.00000000000E+00 0. -1.
</event>
<event>
 7    1  0.2454364E-015  0.9000775E+02  0.7816164E-02  0.1186339E+00
        -11   -1    0    0    0    0  0.00000000000E+00  0.00000000000E+00  0.45593999997E+02  0.45594000000E+02  0.51100000000E-03 0. -1.
         11   -1    0    0    0    0 -0.00000000000E+00 -0.00000000000E+00 -0.45593999997E+02  0.45594000000E+02  0.51100000000E-03 0.  1.
    9900012    2    1    2    0    0  0.65892233945E+00 -0.57504670784E+00 -0.79255249137E+00  0.90007747138E+02  0.90000008601E+02 0.  0.
         12    1    1    2    0    0 -0.65892233945E+00  0.57504670784E+00  0.79255249137E+00  0.11802528615E+01  0.00000000000E+00 0. -1.
         11    1    3    3    0    0  0.61433961828E+01 -0.16412268739E+01  0.36904252474E+02  0.37448081303E+02  0.51100000000E-03 0. -1.
        -11    1    3    3    0    0  0.86052700778E+01  0.12652169897E+01  0.32275391510E+01  0.92773086817E+01  0.51100000000E-03 0.  1.
        -12    1    3    3    0    0 -0.14089743921E+02 -0.19903682366E+00 -0.40924344117E+02  0.43282357154E+02  0.00000000000E+00 0.  1.
</event>
<event>
 7    1  0.1971192E-015  0.9000772E+02  0.7816164E-02  0.1186339E+00
        -11   -1    0    0    0    0  0.00000000000E+00  0.00000000000E+00  0.45593999997E+02  0.45594000000E+02  0.51100000000E-03 0. -1.
         11   -1    0    0    0    0 -0.00000000000E+00 -0.00000000000E+00 -0.45593999997E+02  0.45594000000E+02  0.51100000000E-03 0.  1.
    9900012    2    1    2    0    0  0.34597456706E+00 -0.11269936266E+01 -0.56960920183E-01  0.90007721396E+02  0.89999982519E+02 0.  0.
         12    1    1    2    0    0 -0.34597456706E+00  0.11269936266E+01  0.56960920183E-01  0.11802786035E+01  0.00000000000E+00 0. -1.
         11    1    3    3    0    0 -0.31818908324E+00 -0.73137831139E+01 -0.55011658444E+01  0.91572645281E+01  0.51100000000E-03 0. -1.
        -11    1    3    3    0    0  0.24093818207E+02 -0.20148697671E+02 -0.20126110244E+02  0.37303383324E+02  0.51100000000E-03 0.  1.
         12    1    3    3    0    0 -0.23429654557E+02  0.26335487158E+02  0.25570315168E+02  0.43547073544E+02  0.00000000000E+00 0. -1.
</event>
<event>
 7    1  0.1971192E-015  0.9000775E+02  0.7816164E-02  0.1186339E+00
        -11   -1    0    0    0    0  0.00000000000E+00  0.00000000000E+00  0.45593999997E+02  0.45594000000E+02  0.51100000000E-03 0. -1.
         11   -1    0    0    0    0 -0.00000000000E+00 -0.00000000000E+00 -0.45593999997E+02  0.45594000000E+02  0.51100000000E-03 0.  1.
    9900012    2    1    2    0    0 -0.81723222299E+00  0.12370118672E+00 -0.84251072434E+00  0.90007747989E+02  0.90000009462E+02 0.  0.
         12    1    1    2    0    0  0.81723222299E+00 -0.12370118672E+00  0.84251072434E+00  0.11802520114E+01  0.00000000000E+00 0. -1.
         11    1    3    3    0    0  0.83835321896E+01  0.35456918483E+00 -0.36050058412E+01  0.91326556191E+01  0.51100000000E-03 0. -1.
        -11    1    3    3    0    0  0.30314285338E+02  0.18720177163E+02 -0.61446735788E+01  0.36154639290E+02  0.51100000000E-03 0.  1.
         12    1    3    3    0    0 -0.39515049750E+02 -0.18951045161E+02  0.89071686957E+01  0.44720453079E+02  0.00000000000E+00 0. -1.
</event>
<event>
 7    1  0.1971192E-015  0.9000776E+02  0.7816164E-02  0.1186339E+00
        -11   -1    0    0    0    0  0.00000000000E+00  0.00000000000E+00  0.45593999997E+02  0.45594000000E+02  0.51100000000E-03 0.  1.
         11   -1    0    0    0    0 -0.00000000000E+00 -0.00000000000E+00 -0.45593999997E+02  0.45594000000E+02  0.51100000000E-03 0. -1.
    9900012    2    1    2    0    0  0.48520293565E+00  0.27956968770E+00  0.10389374545E+01  0.90007757596E+02  0.90000019196E+02 0.  0.
         12    1    1    2    0    0 -0.48520293565E+00 -0.27956968770E+00 -0.10389374545E+01  0.11802424045E+01  0.00000000000E+00 0. -1.
         11    1    3    3    0    0 -0.10671639265E+02 -0.62069423089E+01  0.64643653441E+01  0.13935495577E+02  0.51100000000E-03 0. -1.
        -11    1    3    3    0    0 -0.65355966690E+01 -0.53321177106E+01  0.31961088732E+02  0.33055358057E+02  0.51100000000E-03 0.  1.
         12    1    3    3    0    0  0.17692438869E+02  0.11818629707E+02 -0.37386516621E+02  0.43016903961E+02  0.00000000000E+00 0. -1.
</event>
<event>
 7    1  0.1971192E-015  0.9000768E+02  0.7816164E-02  0.1186339E+00
        -11   -1    0    0    0    0  0.00000000000E+00  0.00000000000E+00  0.45593999997E+02  0.45594000000E+02  0.51100000000E-03 0.  1.
         11   -1    0    0    0    0 -0.00000000000E+00 -0.00000000000E+00 -0.45593999997E+02  0.45594000000E+02  0.51100000000E-03 0. -1.
    9900012    2    1    2    0    0 -0.75251802324E+00 -0.31388946526E+00  0.85343800101E+00  0.90007675302E+02  0.89999935816E+02 0.  0.
         12    1    1    2    0    0  0.75251802325E+00  0.31388946526E+00 -0.85343800101E+00  0.11803246982E+01  0.00000000000E+00 0. -1.
         11    1    3    3    0    0  0.27581789707E+02  0.29459930187E+02  0.36368992783E+00  0.40358083213E+02  0.51100000000E-03 0. -1.
        -11    1    3    3    0    0  0.27194963355E+01 -0.56987539548E+01  0.74274037661E+01  0.97487324264E+01  0.51100000000E-03 0.  1.
        -12    1    3    3    0    0 -0.31053804065E+02 -0.24075065697E+02 -0.69376556929E+01  0.39900859662E+02  0.00000000000E+00 0.  1.
</event>
<event>
 7    1  0.1971192E-015  0.9000773E+02  0.7816164E-02  0.1186339E+00
        -11   -1    0    0    0    0  0.00000000000E+00  0.00000000000E+00  0.45593999997E+02  0.45594000000E+02  0.51100000000E-03 0. -1.
         11   -1    0    0    0    0 -0.00000000000E+00 -0.00000000000E+00 -0.45593999997E+02  0.45594000000E+02  0.51100000000E-03 0.  1.
    9900012    2    1    2    0    0 -0.10163803464E+01  0.16416369878E+00 -0.57711995105E+00  0.90007726232E+02  0.89999987419E+02 0.  0.
         12    1    1    2    0    0  0.10163803464E+01 -0.16416369878E+00  0.57711995105E+00  0.11802737676E+01  0.00000000000E+00 0. -1.
         11    1    3    3    0    0  0.18593592292E+01  0.67608035581E+01 -0.72816304807E+01  0.10108799346E+02  0.51100000000E-03 0. -1.
        -11    1    3    3    0    0 -0.31412944920E+02  0.18078882389E+02 -0.11480596319E+02  0.38018721560E+02  0.51100000000E-03 0.  1.
         12    1    3    3    0    0  0.28537205344E+02 -0.24675522248E+02  0.18185106849E+02  0.41880205326E+02  0.00000000000E+00 0. -1.
</event>
<event>
 7    1  0.1971192E-015  0.9000771E+02  0.7816164E-02  0.1186339E+00
        -11   -1    0    0    0    0  0.00000000000E+00  0.00000000000E+00  0.45593999997E+02  0.45594000000E+02  0.51100000000E-03 0. -1.
         11   -1    0    0    0    0 -0.00000000000E+00 -0.00000000000E+00 -0.45593999997E+02  0.45594000000E+02  0.51100000000E-03 0.  1.
    9900012    2    1    2    0    0  0.38313293397E-01 -0.59530983641E+00 -0.10184424983E+01  0.90007709005E+02  0.89999969964E+02 0.  0.
         12    1    1    2    0    0 -0.38313293397E-01  0.59530983641E+00  0.10184424983E+01  0.11802909947E+01  0.00000000000E+00 0. -1.
         11    1    3    3    0    0 -0.59464088034E+01  0.63956680274E+01 -0.17886951263E+01  0.89142457723E+01  0.51100000000E-03 0. -1.
        -11    1    3    3    0    0  0.21828793785E+02  0.23929714348E+02  0.23108210326E+02  0.39788400969E+02  0.51100000000E-03 0.  1.
         12    1    3    3    0    0 -0.15844071688E+02 -0.30920692212E+02 -0.22337957698E+02  0.41305062264E+02  0.00000000000E+00 0. -1.
</event>
<event>
 7    1  0.1971192E-015  0.9000774E+02  0.7816164E-02  0.1186339E+00
        -11   -1    0    0    0    0  0.00000000000E+00  0.00000000000E+00  0.45593999997E+02  0.45594000000E+02  0.51100000000E-03 0.  1.
         11   -1    0    0    0    0 -0.00000000000E+00 -0.00000000000E+00 -0.45593999997E+02  0.45594000000E+02  0.51100000000E-03 0. -1.
    9900012    2    1    2    0    0 -0.76366731051E+00  0.56207865302E+00  0.70277421550E+00  0.90007740803E+02  0.90000002182E+02 0.  0.
         12    1    1    2    0    0  0.76366731051E+00 -0.56207865302E+00 -0.70277421550E+00  0.11802591967E+01  0.00000000000E+00 0. -1.
         11    1    3    3    0    0  0.63729193868E+00 -0.57538009211E+01 -0.44560881409E+00  0.58061117395E+01  0.51100000000E-03 0. -1.
        -11    1    3    3    0    0 -0.34410909829E+02 -0.17891109239E+02  0.14099162251E+02  0.41267285851E+02  0.51100000000E-03 0.  1.
         12    1    3    3    0    0  0.33009950580E+02  0.24206988813E+02 -0.12950779221E+02  0.42934343213E+02  0.00000000000E+00 0. -1.
</event>
<event>
 7    1  0.1971192E-015  0.9000774E+02  0.7816164E-02  0.1186339E+00
        -11   -1    0    0    0    0  0.00000000000E+00  0.00000000000E+00  0.45593999997E+02  0.45594000000E+02  0.51100000000E-03 0.  1.
         11   -1    0    0    0    0 -0.00000000000E+00 -0.00000000000E+00 -0.45593999997E+02  0.45594000000E+02  0.51100000000E-03 0. -1.
    9900012    2    1    2    0    0  0.11294507282E+01  0.25942403697E+00  0.22371018211E+00  0.90007743238E+02  0.90000004649E+02 0.  0.
         12    1    1    2    0    0 -0.11294507282E+01 -0.25942403697E+00 -0.22371018211E+00  0.11802567619E+01  0.00000000000E+00 0. -1.
         11    1    3    3    0    0 -0.20603123223E+02 -0.31994526879E+02 -0.40242939014E+01  0.38266609183E+02  0.51100000000E-03 0. -1.
        -11    1    3    3    0    0  0.71412794132E+01 -0.64328050066E+01 -0.22900570396E+01  0.98804460130E+01  0.51100000000E-03 0.  1.
        -12    1    3    3    0    0  0.14591294538E+02  0.38686755922E+02  0.65380611232E+01  0.41860688042E+02  0.00000000000E+00 0.  1.
</event>
<event>
 7    1  0.1971192E-015  0.9000776E+02  0.7816164E-02  0.1186339E+00
        -11   -1    0    0    0    0  0.00000000000E+00  0.00000000000E+00  0.45593999997E+02  0.45594000000E+02  0.51100000000E-03 0.  1.
         11   -1    0    0    0    0 -0.00000000000E+00 -0.00000000000E+00 -0.45593999997E+02  0.45594000000E+02  0.51100000000E-03 0. -1.
    9900012    2    1    2    0    0 -0.69602640225E+00 -0.49060455988E+00  0.81720072486E+00  0.90007761629E+02  0.90000023283E+02 0.  0.
         12    1    1    2    0    0  0.69602640225E+00  0.49060455988E+00 -0.81720072486E+00  0.11802383706E+01  0.00000000000E+00 0. -1.
         11    1    3    3    0    0  0.34595943829E+02  0.19350010616E+02 -0.80949970621E+01  0.40457770798E+02  0.51100000000E-03 0. -1.
        -11    1    3    3    0    0  0.22052406664E+01 -0.94710378353E+01  0.31445676833E+01  0.10220173690E+02  0.51100000000E-03 0.  1.
        -12    1    3    3    0    0 -0.37497210898E+02 -0.10369577341E+02  0.57676301037E+01  0.39329817141E+02  0.00000000000E+00 0.  1.
</event>
<event>
 7    1  0.2197069E-015  0.9000772E+02  0.7816164E-02  0.1186339E+00
        -11   -1    0    0    0    0  0.00000000000E+00  0.00000000000E+00  0.45593999997E+02  0.45594000000E+02  0.51100000000E-03 0. -1.
         11   -1    0    0    0    0 -0.00000000000E+00 -0.00000000000E+00 -0.45593999997E+02  0.45594000000E+02  0.51100000000E-03 0.  1.
    9900012    2    1    2    0    0  0.36714343998E+00 -0.75947661842E+00 -0.82550026795E+00  0.90007724722E+02  0.89999985888E+02 0.  0.
         12    1    1    2    0    0 -0.36714343998E+00  0.75947661842E+00  0.82550026795E+00  0.11802752780E+01  0.00000000000E+00 0. -1.
         11    1    3    3    0    0 -0.34381567233E+01  0.23304196024E+01  0.36463072884E+02  0.36698875481E+02  0.51100000000E-03 0. -1.
        -11    1    3    3    0    0  0.55032824348E+01 -0.16914059705E+01  0.69447321474E+01  0.90208800332E+01  0.51100000000E-03 0.  1.
        -12    1    3    3    0    0 -0.16979822716E+01 -0.13984902504E+01 -0.44233305300E+02  0.44287969207E+02  0.00000000000E+00 0.  1.
</event>
<event>
 7    1  0.2110143E-015  0.9000777E+02  0.7816164E-02  0.1186339E+00
        -11   -1    0    0    0    0  0.00000000000E+00  0.00000000000E+00  0.45593999997E+02  0.45594000000E+02  0.51100000000E-03 0.  1.
         11   -1    0    0    0    0 -0.00000000000E+00 -0.00000000000E+00 -0.45593999997E+02  0.45594000000E+02  0.51100000000E-03 0. -1.
    9900012    2    1    2    0    0 -0.47073399071E+00 -0.10801614020E+01 -0.67881716292E-01  0.90007768213E+02  0.90000029953E+02 0.  0.
         12    1    1    2    0    0  0.47073399071E+00  0.10801614020E+01  0.67881716292E-01  0.11802317873E+01  0.00000000000E+00 0. -1.
         11    1    3    3    0    0  0.17985238617E+02 -0.13498884256E+02  0.34478945418E+02  0.41164139268E+02  0.51100000000E-03 0. -1.
        -11    1    3    3    0    0 -0.81680119685E+01  0.31632414268E+01  0.26538653762E+01  0.91523503833E+01  0.51100000000E-03 0.  1.
        -12    1    3    3    0    0 -0.10287960640E+02  0.92554814274E+01 -0.37200692510E+02  0.39691278561E+02  0.00000000000E+00 0.  1.
</event>
<event>
 7    1  0.1971192E-015  0.9000789E+02  0.7816164E-02  0.1186339E+00
        -11   -1    0    0    0    0  0.00000000000E+00  0.00000000000E+00  0.45593999997E+02  0.45594000000E+02  0.51100000000E-03 0. -1.
         11   -1    0    0    0    0 -0.00000000000E+00 -0.00000000000E+00 -0.45593999997E+02  0.45594000000E+02  0.51100000000E-03 0.  1.
    9900012    2    1    2    0    0  0.37880059368E-01  0.63935706500E+00 -0.99118351766E+00  0.90007891055E+02  0.90000154417E+02 0.  0.
         12    1    1    2    0    0 -0.37880059368E-01 -0.63935706500E+00  0.99118351766E+00  0.11801089446E+01  0.00000000000E+00 0. -1.
         11    1    3    3    0    0  0.92500657312E+01 -0.28066130127E+01 -0.18095509756E+01  0.98343920823E+01  0.51100000000E-03 0. -1.
        -11    1    3    3    0    0  0.28266173283E+02 -0.20025504574E+02  0.75180592353E+01  0.35447406117E+02  0.51100000000E-03 0.  1.
         12    1    3    3    0    0 -0.37478358954E+02  0.23471474652E+02 -0.66996917773E+01  0.44726092856E+02  0.00000000000E+00 0. -1.
</event>
<event>
 7    1  0.1971192E-015  0.9000767E+02  0.7816164E-02  0.1186339E+00
        -11   -1    0    0    0    0  0.00000000000E+00  0.00000000000E+00  0.45593999997E+02  0.45594000000E+02  0.51100000000E-03 0.  1.
         11   -1    0    0    0    0 -0.00000000000E+00 -0.00000000000E+00 -0.45593999997E+02  0.45594000000E+02  0.51100000000E-03 0. -1.
    9900012    2    1    2    0    0 -0.93250895415E+00 -0.30064997359E+00 -0.65819434734E+00  0.90007668201E+02  0.89999928622E+02 0.  0.
         12    1    1    2    0    0  0.93250895415E+00  0.30064997359E+00  0.65819434734E+00  0.11803317987E+01  0.00000000000E+00 0. -1.
         11    1    3    3    0    0 -0.29138241391E+00  0.21721810950E+01  0.81718216979E+01  0.84606113576E+01  0.51100000000E-03 0. -1.
        -11    1    3    3    0    0  0.71820095216E+01  0.15474023740E+02  0.32001471010E+02  0.36264594559E+02  0.51100000000E-03 0.  1.
         12    1    3    3    0    0 -0.78231360619E+01 -0.17946854809E+02 -0.40831487055E+02  0.45282462284E+02  0.00000000000E+00 0. -1.
</event>
<event>
 7    1  0.1971192E-015  0.9000752E+02  0.7816164E-02  0.1186339E+00
        -11   -1    0    0    0    0  0.00000000000E+00  0.00000000000E+00  0.45593999997E+02  0.45594000000E+02  0.51100000000E-03 0. -1.
         11   -1    0    0    0    0 -0.00000000000E+00 -0.00000000000E+00 -0.45593999997E+02  0.45594000000E+02  0.51100000000E-03 0.  1.
    9900012    2    1    2    0    0 -0.89436412400E+00 -0.71931575019E+00  0.27609495807E+00  0.90007520961E+02  0.89999779438E+02 0.  0.
         12    1    1    2    0    0  0.89436412400E+00  0.71931575019E+00 -0.27609495807E+00  0.11804790386E+01  0.00000000000E+00 0. -1.
         11    1    3    3    0    0  0.11039125911E+01  0.33819851629E+01  0.74169985014E+00  0.36340838708E+01  0.51100000000E-03 0. -1.
        -11    1    3    3    0    0  0.26402223706E+02  0.22925325827E+02  0.21879660584E+02  0.41247636640E+02  0.51100000000E-03 0.  1.
         12    1    3    3    0    0 -0.28400500421E+02 -0.27026626740E+02 -0.22345265476E+02  0.45125800450E+02  0.00000000000E+00 0. -1.
</event>
<event>
 7    1  0.1971192E-015  0.9000792E+02  0.7816164E-02  0.1186339E+00
        -11   -1    0    0    0    0  0.00000000000E+00  0.00000000000E+00  0.45593999997E+02  0.45594000000E+02  0.51100000000E-03 0.  1.
         11   -1    0    0    0    0 -0.00000000000E+00 -0.00000000000E+00 -0.45593999997E+02  0.45594000000E+02  0.51100000000E-03 0. -1.
    9900012    2    1    2    0    0  0.84558780638E+00  0.23534232921E+00 -0.78878763013E+00  0.90007919208E+02  0.90000182941E+02 0.  0.
         12    1    1    2    0    0 -0.84558780638E+00 -0.23534232921E+00  0.78878763013E+00  0.11800807920E+01  0.00000000000E+00 0. -1.
         11    1    3    3    0    0  0.10129756388E+02  0.36440402195E+02 -0.14307530997E+02  0.40437857511E+02  0.51100000000E-03 0. -1.
        -11    1    3    3    0    0 -0.49179400191E+00 -0.16751928189E+01 -0.78367159799E+01  0.80288386415E+01  0.51100000000E-03 0.  1.
        -12    1    3    3    0    0 -0.87923745800E+01 -0.34529867047E+02  0.21355459347E+02  0.41541223055E+02  0.00000000000E+00 0.  1.
</event>
<event>
 7    1  0.1971192E-015  0.9000774E+02  0.7816164E-02  0.1186339E+00
        -11   -1    0    0    0    0  0.00000000000E+00  0.00000000000E+00  0.45593999997E+02  0.45594000000E+02  0.51100000000E-03 0.  1.
         11   -1    0    0    0    0 -0.00000000000E+00 -0.00000000000E+00 -0.45593999997E+02  0.45594000000E+02  0.51100000000E-03 0. -1.
    9900012    2    1    2    0    0  0.26060143345E+00  0.42131013302E+00  0.10712587994E+01  0.90007741236E+02  0.90000002620E+02 0.  0.
         12    1    1    2    0    0 -0.26060143345E+00 -0.42131013302E+00 -0.10712587994E+01  0.11802587642E+01  0.00000000000E+00 0. -1.
         11    1    3    3    0    0  0.19074643282E+02 -0.35351713978E+02 -0.60359162125E+01  0.40620413369E+02  0.51100000000E-03 0. -1.
        -11    1    3    3    0    0 -0.26936747953E+01  0.34346495066E+01 -0.88647647757E+01  0.98811313080E+01  0.51100000000E-03 0.  1.
        -12    1    3    3    0    0 -0.16120367053E+02  0.32338374604E+02  0.15971939788E+02  0.39506196559E+02  0.00000000000E+00 0.  1.
</event>
<event>
 7    1  0.2703654E-015  0.9000776E+02  0.7816164E-02  0.1186339E+00
        -11   -1    0    0    0    0  0.00000000000E+00  0.00000000000E+00  0.45593999997E+02  0.45594000000E+02  0.51100000000E-03 0. -1.
         11   -1    0    0    0    0 -0.00000000000E+00 -0.00000000000E+00 -0.45593999997E+02  0.45594000000E+02  0.51100000000E-03 0.  1.
    9900012    2    1    2    0    0 -0.48264606084E+00 -0.30100574992E+00 -0.10341198624E+01  0.90007764612E+02  0.90000026305E+02 0.  0.
         12    1    1    2    0    0  0.48264606084E+00  0.30100574992E+00  0.10341198624E+01  0.11802353881E+01  0.00000000000E+00 0. -1.
         11    1    3    3    0    0 -0.11015340906E+02  0.15805454776E+02  0.38238958463E+02  0.42817847687E+02  0.51100000000E-03 0. -1.
        -11    1    3    3    0    0  0.33644334068E+01 -0.82313790150E+01 -0.29981896867E+01  0.93842503321E+01  0.51100000000E-03 0.  1.
        -12    1    3    3    0    0  0.71682614380E+01 -0.78750815111E+01 -0.36274888638E+02  0.37805666593E+02  0.00000000000E+00 0.  1.
</event>
<event>
 7    1  0.1971192E-015  0.9000791E+02  0.7816164E-02  0.1186339E+00
        -11   -1    0    0    0    0  0.00000000000E+00  0.00000000000E+00  0.45593999997E+02  0.45594000000E+02  0.51100000000E-03 0.  1.
         11   -1    0    0    0    0 -0.00000000000E+00 -0.00000000000E+00 -0.45593999997E+02  0.45594000000E+02  0.51100000000E-03 0. -1.
    9900012    2    1    2    0    0  0.89507344056E+00 -0.56139402910E+00  0.52564460785E+00  0.90007905947E+02  0.90000169505E+02 0.  0.
         12    1    1    2    0    0 -0.89507344056E+00  0.56139402910E+00 -0.52564460785E+00  0.11800940529E+01  0.00000000000E+00 0. -1.
         11    1    3    3    0    0  0.40752436150E+02  0.13988736101E+01 -0.28540218077E+01  0.40876195277E+02  0.51100000000E-03 0. -1.
        -11    1    3    3    0    0 -0.36492531193E+01 -0.49212414201E+01 -0.88812977878E+01  0.10789491003E+02  0.51100000000E-03 0.  1.
        -12    1    3    3    0    0 -0.36208109590E+02  0.29609737809E+01  0.12260964203E+02  0.38342219668E+02  0.00000000000E+00 0.  1.
</event>
<event>
 7    1  0.1971192E-015  0.9000772E+02  0.7816164E-02  0.1186339E+00
        -11   -1    0    0    0    0  0.00000000000E+00  0.00000000000E+00  0.45593999997E+02  0.45594000000E+02  0.51100000000E-03 0.  1.
         11   -1    0    0    0    0 -0.00000000000E+00 -0.00000000000E+00 -0.45593999997E+02  0.45594000000E+02  0.51100000000E-03 0. -1.
    9900012    2    1    2    0    0 -0.69828703360E+00  0.19634152844E+00 -0.93107219396E+00  0.90007724521E+02  0.89999985684E+02 0.  0.
         12    1    1    2    0    0  0.69828703360E+00 -0.19634152844E+00  0.93107219396E+00  0.11802754795E+01  0.00000000000E+00 0. -1.
         11    1    3    3    0    0 -0.27241802383E+02  0.81093507200E+01  0.23595519469E+02  0.36940843323E+02  0.51100000000E-03 0. -1.
        -11    1    3    3    0    0 -0.39558607018E+01 -0.15133183375E+02 -0.67678512673E+01  0.17043059702E+02  0.51100000000E-03 0.  1.
        -12    1    3    3    0    0  0.30499376051E+02  0.72201741837E+01 -0.17758740395E+02  0.36023821496E+02  0.00000000000E+00 0.  1.
</event>
<event>
 7    1  0.1971192E-015  0.9000777E+02  0.7816164E-02  0.1186339E+00
        -11   -1    0    0    0    0  0.00000000000E+00  0.00000000000E+00  0.45593999997E+02  0.45594000000E+02  0.51100000000E-03 0.  1.
         11   -1    0    0    0    0 -0.00000000000E+00 -0.00000000000E+00 -0.45593999997E+02  0.45594000000E+02  0.51100000000E-03 0. -1.
    9900012    2    1    2    0    0  0.92511983848E+00  0.47718732411E+00 -0.55622264415E+00  0.90007772019E+02  0.90000033809E+02 0.  0.
         12    1    1    2    0    0 -0.92511983848E+00 -0.47718732411E+00  0.55622264415E+00  0.11802279812E+01  0.00000000000E+00 0. -1.
         11    1    3    3    0    0  0.23342190518E+02  0.19656178261E+02 -0.20439597352E+02  0.36728740003E+02  0.51100000000E-03 0. -1.
        -11    1    3    3    0    0  0.59415332194E+01  0.53931270085E+01 -0.38293068929E+01  0.88910757205E+01  0.51100000000E-03 0.  1.
        -12    1    3    3    0    0 -0.28358603899E+02 -0.24572117945E+02  0.23712681601E+02  0.44387956296E+02  0.00000000000E+00 0.  1.
</event>
<event>
 7    1  0.1971192E-015  0.9000772E+02  0.7816164E-02  0.1186339E+00
        -11   -1    0    0    0    0  0.00000000000E+00  0.00000000000E+00  0.45593999997E+02  0.45594000000E+02  0.51100000000E-03 0.  1.
         11   -1    0    0    0    0 -0.00000000000E+00 -0.00000000000E+00 -0.45593999997E+02  0.45594000000E+02  0.51100000000E-03 0. -1.
    9900012    2    1    2    0    0  0.63843249891E+00  0.37263691939E+00  0.92011410296E+00  0.90007718554E+02  0.89999979639E+02 0.  0.
         12    1    1    2    0    0 -0.63843249891E+00 -0.37263691939E+00 -0.92011410296E+00  0.11802814460E+01  0.00000000000E+00 0. -1.
         11    1    3    3    0    0 -0.10807657223E+02  0.10716034205E+02 -0.35263899887E+02  0.38408091325E+02  0.51100000000E-03 0. -1.
        -11    1    3    3    0    0 -0.88595121582E+01 -0.91732507373E+01  0.37096517222E+01  0.13281603854E+02  0.51100000000E-03 0.  1.
        -12    1    3    3    0    0  0.20305601880E+02 -0.11701465485E+01  0.32474362268E+02  0.38318023375E+02  0.00000000000E+00 0.  1.
</event>
<event>
 7    1  0.1971192E-015  0.9000788E+02  0.7816164E-02  0.1186339E+00
        -11   -1    0    0    0    0  0.00000000000E+00  0.00000000000E+00  0.45593999997E+02  0.45594000000E+02  0.51100000000E-03 0.  1.
         11   -1    0    0    0    0 -0.00000000000E+00 -0.00000000000E+00 -0.45593999997E+02  0.45594000000E+02  0.51100000000E-03 0. -1.
    9900012    2    1    2    0    0 -0.10835834029E+01 -0.46430069467E+00  0.54330583321E-01  0.90007881388E+02  0.90000144622E+02 0.  0.
         12    1    1    2    0    0  0.10835834029E+01  0.46430069467E+00 -0.54330583321E-01  0.11801186120E+01  0.00000000000E+00 0. -1.
         11    1    3    3    0    0 -0.51992785835E+01 -0.64110578211E+01 -0.40477879394E+00  0.82642607840E+01  0.51100000000E-03 0. -1.
        -11    1    3    3    0    0 -0.19087491919E+02 -0.31832342448E+02 -0.32184803197E+01  0.37255724248E+02  0.51100000000E-03 0.  1.
         12    1    3    3    0    0  0.23203187099E+02  0.37779099574E+02  0.36775896970E+01  0.44487896356E+02  0.00000000000E+00 0. -1.
</event>
<event>
 7    1  0.2555299E-015  0.9000710E+02  0.7816164E-02  0.1186340E+00
        -11   -1    0    0    0    0  0.00000000000E+00  0.00000000000E+00  0.45593999997E+02  0.45594000000E+02  0.51100000000E-03 0. -1.
         11   -1    0    0    0    0 -0.00000000000E+00 -0.00000000000E+00 -0.45593999997E+02  0.45594000000E+02  0.51100000000E-03 0.  1.
    9900012    2    1    2    0    0 -0.65005493545E+00 -0.96696648632E+00 -0.19218193031E+00  0.90007098015E+02  0.89999350906E+02 0.  0.
         12    1    1    2    0    0  0.65005493545E+00  0.96696648632E+00  0.19218193031E+00  0.11809019854E+01  0.00000000000E+00 0. -1.
         11    1    3    3    0    0  0.22571691267E+02 -0.28298948524E+01  0.29775318522E+02  0.37470777212E+02  0.51100000000E-03 0. -1.
        -11    1    3    3    0    0  0.91401119702E+01  0.21002163231E+01 -0.16267016957E+01  0.95183356790E+01  0.51100000000E-03 0.  1.
        -12    1    3    3    0    0 -0.32361858172E+02 -0.23728795701E+00 -0.28340798756E+02  0.43017985124E+02  0.00000000000E+00 0.  1.
</event>
<event>
 7    1  0.1971192E-015  0.9000712E+02  0.7816164E-02  0.1186340E+00
        -11   -1    0    0    0    0  0.00000000000E+00  0.00000000000E+00  0.45593999997E+02  0.45594000000E+02  0.51100000000E-03 0.  1.
         11   -1    0    0    0    0 -0.00000000000E+00 -0.00000000000E+00 -0.45593999997E+02  0.45594000000E+02  0.51100000000E-03 0. -1.
    9900012    2    1    2    0    0 -0.10628914088E+01  0.21991302174E+00  0.46516275976E+00  0.90007120549E+02  0.89999373738E+02 0.  0.
         12    1    1    2    0    0  0.10628914088E+01 -0.21991302174E+00 -0.46516275976E+00  0.11808794507E+01  0.00000000000E+00 0. -1.
         11    1    3    3    0    0 -0.15734101563E+00  0.22695726114E+02 -0.35112402246E+02  0.41809108240E+02  0.51100000000E-03 0. -1.
        -11    1    3    3    0    0 -0.50009267492E+01  0.34556109559E+01  0.48045480472E+01  0.77481738254E+01  0.51100000000E-03 0.  1.
        -12    1    3    3    0    0  0.40953763560E+01 -0.25931424048E+02  0.30773016958E+02  0.40449838484E+02  0.00000000000E+00 0.  1.
</event>
<event>
 7    1  0.1971192E-015  0.9000764E+02  0.7816164E-02  0.1186339E+00
        -11   -1    0    0    0    0  0.00000000000E+00  0.00000000000E+00  0.45593999997E+02  0.45594000000E+02  0.51100000000E-03 0. -1.
         11   -1    0    0    0    0 -0.00000000000E+00 -0.00000000000E+00 -0.45593999997E+02  0.45594000000E+02  0.51100000000E-03 0.  1.
    9900012    2    1    2    0    0 -0.95804011540E+00 -0.68868172564E+00  0.33407032703E-01  0.90007644371E+02  0.89999904476E+02 0.  0.
         12    1    1    2    0    0  0.95804011540E+00  0.68868172564E+00 -0.33407032703E-01  0.11803556294E+01  0.00000000000E+00 0. -1.
         11    1    3    3    0    0 -0.18898174708E+02  0.23368142549E+02  0.27597791684E+02  0.40802563640E+02  0.51100000000E-03 0. -1.
        -11    1    3    3    0    0  0.39417985824E+01  0.57294729871E+01 -0.12477304980E+01  0.70655126092E+01  0.51100000000E-03 0.  1.
        -12    1    3    3    0    0  0.13998336011E+02 -0.29786297262E+02 -0.26316654153E+02  0.42139568121E+02  0.00000000000E+00 0.  1.
</event>
<event>
 7    1  0.1971192E-015  0.9000803E+02  0.7816164E-02  0.1186338E+00
        -11   -1    0    0    0    0  0.00000000000E+00  0.00000000000E+00  0.45593999997E+02  0.45594000000E+02  0.51100000000E-03 0.  1.
         11   -1    0    0    0    0 -0.00000000000E+00 -0.00000000000E+00 -0.45593999997E+02  0.45594000000E+02  0.51100000000E-03 0. -1.
    9900012    2    1    2    0    0  0.11764970239E+01 -0.15865490188E-01 -0.89064402951E-01  0.90008029903E+02  0.90000295098E+02 0.  0.
         12    1    1    2    0    0 -0.11764970239E+01  0.15865490188E-01  0.89064402951E-01  0.11799700966E+01  0.00000000000E+00 0. -1.
         11    1    3    3    0    0  0.48432978720E+01 -0.12823622502E+02  0.45328466720E+01  0.14437781255E+02  0.51100000000E-03 0. -1.
        -11    1    3    3    0    0  0.24716483454E+02  0.23707935312E+02  0.17025297529E+02  0.38246980369E+02  0.51100000000E-03 0.  1.
         12    1    3    3    0    0 -0.28383284302E+02 -0.10900178301E+02 -0.21647208604E+02  0.37323268280E+02  0.00000000000E+00 0. -1.
</event>
<event>
 7    1  0.1971192E-015  0.9000770E+02  0.7816164E-02  0.1186339E+00
        -11   -1    0    0    0    0  0.00000000000E+00  0.00000000000E+00  0.45593999997E+02  0.45594000000E+02  0.51100000000E-03 0.  1.
         11   -1    0    0    0    0 -0.00000000000E+00 -0.00000000000E+00 -0.45593999997E+02  0.45594000000E+02  0.51100000000E-03 0. -1.
    9900012    2    1    2    0    0  0.22994783633E+00  0.11523395995E+01  0.11114729604E+00  0.90007696530E+02  0.89999957324E+02 0.  0.
         12    1    1    2    0    0 -0.22994783633E+00 -0.11523395995E+01 -0.11114729604E+00  0.11803034701E+01  0.00000000000E+00 0. -1.
         11    1    3    3    0    0  0.81652007829E+01 -0.34206242683E+01 -0.36098025018E+01  0.95604314010E+01  0.51100000000E-03 0. -1.
        -11    1    3    3    0    0  0.13927496837E+02  0.28305224731E+01  0.37539387754E+02  0.40139664408E+02  0.51100000000E-03 0.  1.
         12    1    3    3    0    0 -0.21862749783E+02  0.17424413948E+01 -0.33818437956E+02  0.40307600721E+02  0.00000000000E+00 0. -1.
</event>
<event>
 7    1  0.1971192E-015  0.9000765E+02  0.7816164E-02  0.1186339E+00
        -11   -1    0    0    0    0  0.00000000000E+00  0.00000000000E+00  0.45593999997E+02  0.45594000000E+02  0.51100000000E-03 0. -1.
         11   -1    0    0    0    0 -0.00000000000E+00 -0.00000000000E+00 -0.45593999997E+02  0.45594000000E+02  0.51100000000E-03 0.  1.
    9900012    2    1    2    0    0  0.10552812651E+01  0.26954091113E+00 -0.45492655554E+00  0.90007648772E+02  0.89999908935E+02 0.  0.
         12    1    1    2    0    0 -0.10552812651E+01 -0.26954091113E+00  0.45492655554E+00  0.11803512283E+01  0.00000000000E+00 0. -1.
         11    1    3    3    0    0  0.19274141676E+02 -0.30543478000E+02 -0.18293127583E+02  0.40484998490E+02  0.51100000000E-03 0. -1.
        -11    1    3    3    0    0  0.23913079461E+01 -0.15589080683E+01  0.99406606949E+01  0.10342402205E+02  0.51100000000E-03 0.  1.
        -12    1    3    3    0    0 -0.20610168357E+02  0.32371926980E+02  0.78975403325E+01  0.39180248077E+02  0.00000000000E+00 0.  1.
</event>
<event>
 7    1  0.1971192E-015  0.9000775E+02  0.7816164E-02  0.1186339E+00
        -11   -1    0    0    0    0  0.00000000000E+00  0.00000000000E+00  0.45593999997E+02  0.45594000000E+02  0.51100000000E-03 0.  1.
         11   -1    0    0    0    0 -0.00000000000E+00 -0.00000000000E+00 -0.45593999997E+02  0.45594000000E+02  0.51100000000E-03 0. -1.
    9900012    2    1    2    0    0  0.11787102208E+01  0.59846389749E-01  0.76142762530E-02  0.90007746912E+02  0.90000008371E+02 0.  0.
         12    1    1    2    0    0 -0.11787102208E+01 -0.59846389749E-01 -0.76142762530E-02  0.11802530882E+01  0.00000000000E+00 0. -1.
         11    1    3    3    0    0 -0.42856570560E+01  0.81490637941E+01 -0.36481867872E+02  0.37625799405E+02  0.51100000000E-03 0. -1.
        -11    1    3    3    0    0 -0.75369364486E+01  0.66425792247E+01 -0.95886824976E+00  0.10092011612E+02  0.51100000000E-03 0.  1.
        -12    1    3    3    0    0  0.13001303725E+02 -0.14731796629E+02  0.37448350398E+02  0.42289935895E+02  0.00000000000E+00 0.  1.
</event>
<event>
 7    1  0.1971192E-015  0.9000760E+02  0.7816164E-02  0.1186339E+00
        -11   -1    0    0    0    0  0.00000000000E+00  0.00000000000E+00  0.45593999997E+02  0.45594000000E+02  0.51100000000E-03 0.  1.
         11   -1    0    0    0    0 -0.00000000000E+00 -0.00000000000E+00 -0.45593999997E+02  0.45594000000E+02  0.51100000000E-03 0. -1.
    9900012    2    1    2    0    0 -0.21998989379E+00  0.34927876337E+00  0.11058711800E+01  0.90007600799E+02  0.89999860329E+02 0.  0.
         12    1    1    2    0    0  0.21998989379E+00 -0.34927876337E+00 -0.11058711800E+01  0.11803992014E+01  0.00000000000E+00 0. -1.
         11    1    3    3    0    0  0.40590404677E+01 -0.65125071924E+01 -0.96512589578E+01  0.12330261927E+02  0.51100000000E-03 0. -1.
        -11    1    3    3    0    0 -0.39472672204E+02  0.67044178981E+01 -0.23866170195E+01  0.40109063955E+02  0.51100000000E-03 0.  1.
         12    1    3    3    0    0  0.35193641843E+02  0.15736805767E+00  0.13143747157E+02  0.37568274917E+02  0.00000000000E+00 0. -1.
</event>
<event>
 7    1  0.1971192E-015  0.9000769E+02  0.7816164E-02  0.1186339E+00
        -11   -1    0    0    0    0  0.00000000000E+00  0.00000000000E+00  0.45593999997E+02  0.45594000000E+02  0.51100000000E-03 0. -1.
         11   -1    0    0    0    0 -0.00000000000E+00 -0.00000000000E+00 -0.45593999997E+02  0.45594000000E+02  0.51100000000E-03 0.  1.
    9900012    2    1    2    0    0  0.43048690179E+00  0.77822938296E+00 -0.77599093429E+00  0.90007694160E+02  0.89999954923E+02 0.  0.
         12    1    1    2    0    0 -0.43048690179E+00 -0.77822938296E+00  0.77599093429E+00  0.11803058397E+01  0.00000000000E+00 0. -1.
         11    1    3    3    0    0 -0.17192841749E+02 -0.23364568275E+02  0.22716744259E+02  0.36844909120E+02  0.51100000000E-03 0. -1.
        -11    1    3    3    0    0 -0.11557051821E+02  0.42324043367E+01 -0.49474329856E+01  0.13264832704E+02  0.51100000000E-03 0.  1.
        -12    1    3    3    0    0  0.29180380472E+02  0.19910393321E+02 -0.18545302207E+02  0.39897952336E+02  0.00000000000E+00 0.  1.
</event>
<event>
 7    1  0.1971192E-015  0.9000773E+02  0.7816164E-02  0.1186339E+00
        -11   -1    0    0    0    0  0.00000000000E+00  0.00000000000E+00  0.45593999997E+02  0.45594000000E+02  0.51100000000E-03 0.  1.
         11   -1    0    0    0    0 -0.00000000000E+00 -0.00000000000E+00 -0.45593999997E+02  0.45594000000E+02  0.51100000000E-03 0. -1.
    9900012    2    1    2    0    0 -0.40578611467E+00  0.10953674381E+01 -0.16894703633E+00  0.90007730837E+02  0.89999992084E+02 0.  0.
         12    1    1    2    0    0  0.40578611467E+00 -0.10953674381E+01  0.16894703633E+00  0.11802691626E+01  0.00000000000E+00 0. -1.
         11    1    3    3    0    0  0.11882880070E+01 -0.28710513778E+01  0.10826184175E+02  0.11263268995E+02  0.51100000000E-03 0. -1.
        -11    1    3    3    0    0 -0.37373736923E+01 -0.27151675540E+01  0.33440573056E+02  0.33758140108E+02  0.51100000000E-03 0.  1.
         12    1    3    3    0    0  0.21432995706E+01  0.66815863699E+01 -0.44435704267E+02  0.44986321735E+02  0.00000000000E+00 0. -1.
</event>
<event>
 7    1  0.1971192E-015  0.9000778E+02  0.7816164E-02  0.1186339E+00
        -11   -1    0    0    0    0  0.00000000000E+00  0.00000000000E+00  0.45593999997E+02  0.45594000000E+02  0.51100000000E-03 0.  1.
         11   -1    0    0    0    0 -0.00000000000E+00 -0.00000000000E+00 -0.45593999997E+02  0.45594000000E+02  0.51100000000E-03 0. -1.
    9900012    2    1    2    0    0  0.76809709227E-01  0.74045570092E+00  0.91583621123E+00  0.90007775300E+02  0.90000037134E+02 0.  0.
         12    1    1    2    0    0 -0.76809709227E-01 -0.74045570092E+00 -0.91583621123E+00  0.11802246999E+01  0.00000000000E+00 0. -1.
         11    1    3    3    0    0 -0.91146155321E+01  0.22512058905E+01  0.41757194877E+01  0.10275250740E+02  0.51100000000E-03 0. -1.
        -11    1    3    3    0    0 -0.24134092609E+02  0.11198666753E+01  0.25866392308E+02  0.35394615109E+02  0.51100000000E-03 0.  1.
         12    1    3    3    0    0  0.33325517850E+02 -0.26306168649E+01 -0.29126275585E+02  0.44337909451E+02  0.00000000000E+00 0. -1.
</event>
<event>
 7    1  0.1971192E-015  0.9000781E+02  0.7816164E-02  0.1186339E+00
        -11   -1    0    0    0    0  0.00000000000E+00  0.00000000000E+00  0.45593999997E+02  0.45594000000E+02  0.51100000000E-03 0.  1.
         11   -1    0    0    0    0 -0.00000000000E+00 -0.00000000000E+00 -0.45593999997E+02  0.45594000000E+02  0.51100000000E-03 0. -1.
    9900012    2    1    2    0    0 -0.28381973728E+00  0.71038260590E+00  0.89868891175E+00  0.90007814061E+02  0.90000076407E+02 0.  0.
         12    1    1    2    0    0  0.28381973728E+00 -0.71038260590E+00 -0.89868891175E+00  0.11801859388E+01  0.00000000000E+00 0. -1.
         11    1    3    3    0    0 -0.11588010224E+02  0.23444905839E+02  0.30860409961E+02  0.40451334885E+02  0.51100000000E-03 0. -1.
        -11    1    3    3    0    0 -0.26416447885E+01  0.65342012957E+01 -0.56202358468E+01  0.90144952713E+01  0.51100000000E-03 0.  1.
        -12    1    3    3    0    0  0.13945835275E+02 -0.29268724529E+02 -0.24341485203E+02  0.40541983905E+02  0.00000000000E+00 0.  1.
</event>
<event>
 7    1  0.2047978E-015  0.9000749E+02  0.7816164E-02  0.1186340E+00
        -11   -1    0    0    0    0  0.00000000000E+00  0.00000000000E+00  0.45593999997E+02  0.45594000000E+02  0.51100000000E-03 0. -1.
         11   -1    0    0    0    0 -0.00000000000E+00 -0.00000000000E+00 -0.45593999997E+02  0.45594000000E+02  0.51100000000E-03 0.  1.
    9900012    2    1    2    0    0 -0.75443640194E+00 -0.70705476205E+00 -0.56964148142E+00  0.90007494965E+02  0.89999753098E+02 0.  0.
         12    1    1    2    0    0  0.75443640194E+00  0.70705476205E+00  0.56964148142E+00  0.11805050353E+01  0.00000000000E+00 0. -1.
         11    1    3    3    0    0 -0.12430822359E+02  0.61523066621E+01  0.32777576419E+02  0.35591371678E+02  0.51100000000E-03 0. -1.
        -11    1    3    3    0    0  0.16229002633E+01  0.40494726397E+01  0.87523059770E+01  0.97793094900E+01  0.51100000000E-03 0.  1.
        -12    1    3    3    0    0  0.10053485694E+02 -0.10908834064E+02 -0.42099523877E+02  0.44636813797E+02  0.00000000000E+00 0.  1.
</event>
<event>
 7    1  0.1971192E-015  0.9000770E+02  0.7816164E-02  0.1186339E+00
        -11   -1    0    0    0    0  0.00000000000E+00  0.00000000000E+00  0.45593999997E+02  0.45594000000E+02  0.51100000000E-03 0.  1.
         11   -1    0    0    0    0 -0.00000000000E+00 -0.00000000000E+00 -0.45593999997E+02  0.45594000000E+02  0.51100000000E-03 0. -1.
    9900012    2    1    2    0    0  0.10655574432E+01  0.50703996749E+00  0.24832345276E-01  0.90007695447E+02  0.89999956226E+02 0.  0.
         12    1    1    2    0    0 -0.10655574432E+01 -0.50703996749E+00 -0.24832345276E-01  0.11803045534E+01  0.00000000000E+00 0. -1.
         11    1    3    3    0    0 -0.50623222757E+01  0.68019222161E+01 -0.22279466713E+01  0.87668123790E+01  0.51100000000E-03 0. -1.
        -11    1    3    3    0    0 -0.26346761562E+02  0.82019451427E+01  0.26452226701E+02  0.38224913952E+02  0.51100000000E-03 0.  1.
         12    1    3    3    0    0  0.32474641281E+02 -0.14496827391E+02 -0.24199447684E+02  0.43015969116E+02  0.00000000000E+00 0. -1.
</event>
<event>
 7    1  0.1971192E-015  0.9000748E+02  0.7816164E-02  0.1186340E+00
        -11   -1    0    0    0    0  0.00000000000E+00  0.00000000000E+00  0.45593999997E+02  0.45594000000E+02  0.51100000000E-03 0.  1.
         11   -1    0    0    0    0 -0.00000000000E+00 -0.00000000000E+00 -0.45593999997E+02  0.45594000000E+02  0.51100000000E-03 0. -1.
    9900012    2    1    2    0    0  0.54928612453E+00  0.87719976723E+00  0.56782213129E+00  0.90007484582E+02  0.89999742579E+02 0.  0.
         12    1    1    2    0    0 -0.54928612453E+00 -0.87719976723E+00 -0.56782213129E+00  0.11805154175E+01  0.00000000000E+00 0. -1.
         11    1    3    3    0    0  0.75992066244E+01  0.75507938639E+01 -0.30451612126E+02  0.32281002317E+02  0.51100000000E-03 0. -1.
        -11    1    3    3    0    0  0.12296174123E+02 -0.38003656962E+01 -0.72335030182E+01  0.14763544414E+02  0.51100000000E-03 0.  1.
        -12    1    3    3    0    0 -0.19346094623E+02 -0.28732284005E+01  0.38252937275E+02  0.42962937851E+02  0.00000000000E+00 0.  1.
</event>
<event>
 7    1  0.1971192E-015  0.9000774E+02  0.7816164E-02  0.1186339E+00
        -11   -1    0    0    0    0  0.00000000000E+00  0.00000000000E+00  0.45593999997E+02  0.45594000000E+02  0.51100000000E-03 0.  1.
         11   -1    0    0    0    0 -0.00000000000E+00 -0.00000000000E+00 -0.45593999997E+02  0.45594000000E+02  0.51100000000E-03 0. -1.
    9900012    2    1    2    0    0  0.14366319833E+00 -0.18193026614E+00  0.11572743780E+01  0.90007736588E+02  0.89999997911E+02 0.  0.
         12    1    1    2    0    0 -0.14366319833E+00  0.18193026614E+00 -0.11572743780E+01  0.11802634123E+01  0.00000000000E+00 0. -1.
         11    1    3    3    0    0  0.34740097318E+02  0.10166851308E+02 -0.96168510344E+01  0.37452944494E+02  0.51100000000E-03 0. -1.
        -11    1    3    3    0    0  0.47684056102E+01  0.54223246819E+01  0.68735421944E+01  0.99691965363E+01  0.51100000000E-03 0.  1.
        -12    1    3    3    0    0 -0.39364839730E+02 -0.15771106256E+02  0.39005832180E+01  0.42585595557E+02  0.00000000000E+00 0.  1.
</event>
<event>
 7    1  0.1971192E-015  0.9000770E+02  0.7816164E-02  0.1186339E+00
        -11   -1    0    0    0    0  0.00000000000E+00  0.00000000000E+00  0.45593999997E+02  0.45594000000E+02  0.51100000000E-03 0. -1.
         11   -1    0    0    0    0 -0.00000000000E+00 -0.00000000000E+00 -0.45593999997E+02  0.45594000000E+02  0.51100000000E-03 0.  1.
    9900012    2    1    2    0    0  0.14413596705E-01  0.67312715888E+00 -0.96942879374E+00  0.90007703381E+02  0.89999964265E+02 0.  0.
         12    1    1    2    0    0 -0.14413596705E-01 -0.67312715888E+00  0.96942879374E+00  0.11802966195E+01  0.00000000000E+00 0. -1.
         11    1    3    3    0    0 -0.24293727897E+02 -0.76912193914E+01  0.27254466665E+02  0.37311473093E+02  0.51100000000E-03 0. -1.
        -11    1    3    3    0    0  0.36310507989E+01  0.55386730424E+01  0.83073345280E+01  0.10624181672E+02  0.51100000000E-03 0.  1.
        -12    1    3    3    0    0  0.20677090695E+02  0.28256735079E+01 -0.36531229987E+02  0.42072048616E+02  0.00000000000E+00 0.  1.
</event>
<event>
 7    1  0.1971192E-015  0.9000775E+02  0.7816164E-02  0.1186339E+00
        -11   -1    0    0    0    0  0.00000000000E+00  0.00000000000E+00  0.45593999997E+02  0.45594000000E+02  0.51100000000E-03 0.  1.
         11   -1    0    0    0    0 -0.00000000000E+00 -0.00000000000E+00 -0.45593999997E+02  0.45594000000E+02  0.51100000000E-03 0. -1.
    9900012    2    1    2    0    0 -0.96737124457E+00  0.76815072028E-01  0.67178071251E+00  0.90007747059E+02  0.90000008520E+02 0.  0.
         12    1    1    2    0    0  0.96737124457E+00 -0.76815072028E-01 -0.67178071251E+00  0.11802529415E+01  0.00000000000E+00 0. -1.
         11    1    3    3    0    0  0.41748564403E+00 -0.31552691822E+01  0.49681872542E+01  0.59002459889E+01  0.51100000000E-03 0. -1.
        -11    1    3    3    0    0 -0.24870977908E+02  0.25382574630E+02  0.22577575270E+02  0.42102108525E+02  0.51100000000E-03 0.  1.
         12    1    3    3    0    0  0.23486121019E+02 -0.22150490376E+02 -0.26873981811E+02  0.42005392545E+02  0.00000000000E+00 0. -1.
</event>
<event>
 7    1  0.1971192E-015  0.9000774E+02  0.7816164E-02  0.1186339E+00
        -11   -1    0    0    0    0  0.00000000000E+00  0.00000000000E+00  0.45593999997E+02  0.45594000000E+02  0.51100000000E-03 0. -1.
         11   -1    0    0    0    0 -0.00000000000E+00 -0.00000000000E+00 -0.45593999997E+02  0.45594000000E+02  0.51100000000E-03 0.  1.
    9900012    2    1    2    0    0 -0.84450594200E+00 -0.76740702801E+00 -0.30150983837E+00  0.90007740700E+02  0.90000002077E+02 0.  0.
         12    1    1    2    0    0  0.84450594200E+00  0.76740702801E+00  0.30150983837E+00  0.11802593000E+01  0.00000000000E+00 0. -1.
         11    1    3    3    0    0 -0.67749067647E+00  0.98027001316E+01 -0.30836490314E+01  0.10298583160E+02  0.51100000000E-03 0. -1.
        -11    1    3    3    0    0  0.25281035661E+02 -0.43904481281E+01  0.31642265655E+02  0.40738676646E+02  0.51100000000E-03 0.  1.
         12    1    3    3    0    0 -0.25448050927E+02 -0.61796590316E+01 -0.28860126462E+02  0.38970480894E+02  0.00000000000E+00 0. -1.
</event>
<event>
 7    1  0.1971192E-015  0.9000775E+02  0.7816164E-02  0.1186339E+00
        -11   -1    0    0    0    0  0.00000000000E+00  0.00000000000E+00  0.45593999997E+02  0.45594000000E+02  0.51100000000E-03 0.  1.
         11   -1    0    0    0    0 -0.00000000000E+00 -0.00000000000E+00 -0.45593999997E+02  0.45594000000E+02  0.51100000000E-03 0. -1.
    9900012    2    1    2    0    0  0.18954235425E+00 -0.11347334535E+01 -0.26350574720E+00  0.90007753588E+02  0.90000015135E+02 0.  0.
         12    1    1    2    0    0 -0.18954235425E+00  0.11347334535E+01  0.26350574720E+00  0.11802464121E+01  0.00000000000E+00 0. -1.
         11    1    3    3    0    0 -0.39355328020E+01 -0.40066957910E+02 -0.56361094681E+01  0.40652370962E+02  0.51100000000E-03 0. -1.
        -11    1    3    3    0    0 -0.12069091835E+02  0.94607007514E+01  0.31422706321E+01  0.15653807889E+02  0.51100000000E-03 0.  1.
        -12    1    3    3    0    0  0.16194166991E+02  0.29471523706E+02  0.22303330888E+01  0.33701574737E+02  0.00000000000E+00 0.  1.
</event>
<event>
 7    1  0.2679545E-015  0.9000772E+02  0.7816164E-02  0.1186339E+00
        -11   -1    0    0    0    0  0.00000000000E+00  0.00000000000E+00  0.45593999997E+02  0.45594000000E+02  0.51100000000E-03 0.  1.
         11   -1    0    0    0    0 -0.00000000000E+00 -0.00000000000E+00 -0.45593999997E+02  0.45594000000E+02  0.51100000000E-03 0. -1.
    9900012    2    1    2    0    0 -0.77461556138E+00 -0.88713481384E+00  0.77611509401E-01  0.90007719952E+02  0.89999981055E+02 0.  0.
         12    1    1    2    0    0  0.77461556138E+00  0.88713481384E+00 -0.77611509401E-01  0.11802800482E+01  0.00000000000E+00 0. -1.
         11    1    3    3    0    0 -0.11681773485E+01  0.32679021103E+02 -0.14429625829E+02  0.35742092278E+02  0.51100000000E-03 0. -1.
        -11    1    3    3    0    0  0.55278808643E+00  0.52821468653E+01 -0.78237948348E+01  0.94561311356E+01  0.51100000000E-03 0.  1.
        -12    1    3    3    0    0 -0.15922629931E+00 -0.38848302782E+02  0.22331032173E+02  0.44809496538E+02  0.00000000000E+00 0.  1.
</event>
<event>
 7    1  0.1971192E-015  0.9000770E+02  0.7816164E-02  0.1186339E+00
        -11   -1    0    0    0    0  0.00000000000E+00  0.00000000000E+00  0.45593999997E+02  0.45594000000E+02  0.51100000000E-03 0. -1.
         11   -1    0    0    0    0 -0.00000000000E+00 -0.00000000000E+00 -0.45593999997E+02  0.45594000000E+02  0.51100000000E-03 0.  1.
    9900012    2    1    2    0    0 -0.82366590405E+00  0.56768812193E+00 -0.62643667347E+00  0.90007695704E+02  0.89999956487E+02 0.  0.
         12    1    1    2    0    0  0.82366590405E+00 -0.56768812193E+00  0.62643667347E+00  0.11803042960E+01  0.00000000000E+00 0. -1.
         11    1    3    3    0    0  0.10079913955E+02  0.32646188587E+02 -0.13585335122E+02  0.36768731624E+02  0.51100000000E-03 0. -1.
        -11    1    3    3    0    0 -0.12186259550E+02  0.33917409697E+01 -0.48262680642E+01  0.13538895535E+02  0.51100000000E-03 0.  1.
        -12    1    3    3    0    0  0.12826796905E+01 -0.35470241435E+02  0.17785166513E+02  0.39700068545E+02  0.00000000000E+00 0.  1.
</event>
<event>
 7    1  0.1971192E-015  0.9000782E+02  0.7816164E-02  0.1186339E+00
        -11   -1    0    0    0    0  0.00000000000E+00  0.00000000000E+00  0.45593999997E+02  0.45594000000E+02  0.51100000000E-03 0. -1.
         11   -1    0    0    0    0 -0.00000000000E+00 -0.00000000000E+00 -0.45593999997E+02  0.45594000000E+02  0.51100000000E-03 0.  1.
    9900012    2    1    2    0    0  0.35509529732E+00 -0.12049529803E+00 -0.11190209085E+01  0.90007822225E+02  0.90000084678E+02 0.  0.
         12    1    1    2    0    0 -0.35509529732E+00  0.12049529803E+00  0.11190209085E+01  0.11801777750E+01  0.00000000000E+00 0. -1.
         11    1    3    3    0    0 -0.24707073908E+02 -0.12078114697E+02  0.23704231149E+02  0.36307174640E+02  0.51100000000E-03 0. -1.
        -11    1    3    3    0    0 -0.16794457059E+01 -0.11778045783E+01 -0.23801387428E+02  0.23889617101E+02  0.51100000000E-03 0.  1.
         12    1    3    3    0    0  0.26741614912E+02  0.13135423977E+02 -0.10218646296E+01  0.29811030483E+02  0.00000000000E+00 0. -1.
</event>
<event>
 7    1  0.1971192E-015  0.9000778E+02  0.7816164E-02  0.1186339E+00
        -11   -1    0    0    0    0  0.00000000000E+00  0.00000000000E+00  0.45593999997E+02  0.45594000000E+02  0.51100000000E-03 0. -1.
         11   -1    0    0    0    0 -0.00000000000E+00 -0.00000000000E+00 -0.45593999997E+02  0.45594000000E+02  0.51100000000E-03 0.  1.
    9900012    2    1    2    0    0  0.66723121266E+00 -0.96411461298E+00  0.13493283982E+00  0.90007779110E+02  0.90000040994E+02 0.  0.
         12    1    1    2    0    0 -0.66723121266E+00  0.96411461298E+00 -0.13493283982E+00  0.11802208901E+01  0.00000000000E+00 0. -1.
         11    1    3    3    0    0  0.12314978337E+02  0.11160177363E+02  0.39464056465E+02  0.42820789380E+02  0.51100000000E-03 0. -1.
        -11    1    3    3    0    0 -0.37410814849E+00  0.52881309929E+01 -0.71367890794E+01  0.88903343542E+01  0.51100000000E-03 0.  1.
        -12    1    3    3    0    0 -0.11273638976E+02 -0.17412422969E+02 -0.32192334546E+02  0.38296655375E+02  0.00000000000E+00 0.  1.
</event>
<event>
 7    1  0.1971192E-015  0.9000777E+02  0.7816164E-02  0.1186339E+00
        -11   -1    0    0    0    0  0.00000000000E+00  0.00000000000E+00  0.45593999997E+02  0.45594000000E+02  0.51100000000E-03 0.  1.
         11   -1    0    0    0    0 -0.00000000000E+00 -0.00000000000E+00 -0.45593999997E+02  0.45594000000E+02  0.51100000000E-03 0. -1.
    9900012    2    1    2    0    0 -0.47762888153E+00 -0.11971850673E-01  0.10791988649E+01  0.90007769995E+02  0.90000031759E+02 0.  0.
         12    1    1    2    0    0  0.47762888153E+00  0.11971850673E-01 -0.10791988649E+01  0.11802300046E+01  0.00000000000E+00 0. -1.
         11    1    3    3    0    0  0.48546188749E+01  0.28189119573E+01  0.57809757990E+01  0.80581182973E+01  0.51100000000E-03 0. -1.
        -11    1    3    3    0    0  0.24669046347E+02 -0.11218277118E+02 -0.31004552838E+02  0.41178803845E+02  0.51100000000E-03 0.  1.
         12    1    3    3    0    0 -0.30001294104E+02  0.83873933098E+01  0.26302775903E+02  0.40770847853E+02  0.00000000000E+00 0. -1.
</event>
<event>
 7    1  0.1971192E-015  0.9000776E+02  0.7816164E-02  0.1186339E+00
        -11   -1    0    0    0    0  0.00000000000E+00  0.00000000000E+00  0.45593999997E+02  0.45594000000E+02  0.51100000000E-03 0. -1.
         11   -1    0    0    0    0 -0.00000000000E+00 -0.00000000000E+00 -0.45593999997E+02  0.45594000000E+02  0.51100000000E-03 0.  1.
    9900012    2    1    2    0    0 -0.10339265845E+01  0.52931670976E+00 -0.20922618224E+00  0.90007764449E+02  0.90000026139E+02 0.  0.
         12    1    1    2    0    0  0.10339265845E+01 -0.52931670976E+00  0.20922618224E+00  0.11802355514E+01  0.00000000000E+00 0. -1.
         11    1    3    3    0    0  0.14054420106E+02  0.26762421851E+02 -0.17782167342E+01  0.30280620913E+02  0.51100000000E-03 0. -1.
        -11    1    3    3    0    0  0.87854105127E+01  0.11445013664E+02 -0.34669864465E+01  0.14838860163E+02  0.51100000000E-03 0.  1.
        -12    1    3    3    0    0 -0.23873757204E+02 -0.37678118806E+02  0.50359769984E+01  0.44888283372E+02  0.00000000000E+00 0.  1.
</event>
<event>
 7    1  0.1971192E-015  0.9000773E+02  0.7816164E-02  0.1186339E+00
        -11   -1    0    0    0    0  0.00000000000E+00  0.00000000000E+00  0.45593999997E+02  0.45594000000E+02  0.51100000000E-03 0. -1.
         11   -1    0    0    0    0 -0.00000000000E+00 -0.00000000000E+00 -0.45593999997E+02  0.45594000000E+02  0.51100000000E-03 0.  1.
    9900012    2    1    2    0    0 -0.45062871309E+00 -0.87796837644E+00 -0.64740512624E+00  0.90007733884E+02  0.89999995171E+02 0.  0.
         12    1    1    2    0    0  0.45062871309E+00  0.87796837644E+00  0.64740512624E+00  0.11802661160E+01  0.00000000000E+00 0. -1.
         11    1    3    3    0    0 -0.12654731583E+02  0.34837507113E+01  0.26133971620E+02  0.29244883713E+02  0.51100000000E-03 0. -1.
        -11    1    3    3    0    0 -0.61654439754E+01  0.14548611696E+02  0.75210417242E+01  0.17499739158E+02  0.51100000000E-03 0.  1.
        -12    1    3    3    0    0  0.18369546846E+02 -0.18910330784E+02 -0.34302418470E+02  0.43263111014E+02  0.00000000000E+00 0.  1.
</event>
<event>
 7    1  0.1971192E-015  0.9000826E+02  0.7816164E-02  0.1186338E+00
        -11   -1    0    0    0    0  0.00000000000E+00  0.00000000000E+00  0.45593999997E+02  0.45594000000E+02  0.51100000000E-03 0.  1.
         11   -1    0    0    0    0 -0.00000000000E+00 -0.00000000000E+00 -0.45593999997E+02  0.45594000000E+02  0.51100000000E-03 0. -1.
    9900012    2    1    2    0    0  0.86590403013E-01 -0.85402600188E+00  0.80927926653E+00  0.90008257977E+02  0.90000526181E+02 0.  0.
         12    1    1    2    0    0 -0.86590403013E-01  0.85402600188E+00 -0.80927926653E+00  0.11797420231E+01  0.00000000000E+00 0. -1.
         11    1    3    3    0    0 -0.20612687175E+01 -0.42741402933E+02  0.63206309674E+01  0.43255366482E+02  0.51100000000E-03 0. -1.
        -11    1    3    3    0    0  0.74590338801E+01  0.96708625837E+01  0.38158223890E+01  0.12795439434E+02  0.51100000000E-03 0.  1.
        -12    1    3    3    0    0 -0.53111747596E+01  0.32216514347E+02 -0.93271740898E+01  0.33957452061E+02  0.00000000000E+00 0.  1.
</event>
<event>
 7    1  0.1971192E-015  0.9000778E+02  0.7816164E-02  0.1186339E+00
        -11   -1    0    0    0    0  0.00000000000E+00  0.00000000000E+00  0.45593999997E+02  0.45594000000E+02  0.51100000000E-03 0. -1.
         11   -1    0    0    0    0 -0.00000000000E+00 -0.00000000000E+00 -0.45593999997E+02  0.45594000000E+02  0.51100000000E-03 0.  1.
    9900012    2    1    2    0    0 -0.20808214281E-01  0.11800260501E+01  0.54672088436E-02  0.90007777838E+02  0.90000039706E+02 0.  0.
         12    1    1    2    0    0  0.20808214281E-01 -0.11800260501E+01 -0.54672088436E-02  0.11802221617E+01  0.00000000000E+00 0. -1.
         11    1    3    3    0    0 -0.10311580888E+02  0.11442757247E+02  0.37138510551E+02  0.40206148286E+02  0.51100000000E-03 0. -1.
        -11    1    3    3    0    0 -0.33148512267E+01 -0.15478064984E+01  0.41125095972E+01  0.55042419151E+01  0.51100000000E-03 0.  1.
        -12    1    3    3    0    0  0.13605623901E+02 -0.87149246984E+01 -0.41245552939E+02  0.44297387637E+02  0.00000000000E+00 0.  1.
</event>
<event>
 7    1  0.1971192E-015  0.9000766E+02  0.7816164E-02  0.1186339E+00
        -11   -1    0    0    0    0  0.00000000000E+00  0.00000000000E+00  0.45593999997E+02  0.45594000000E+02  0.51100000000E-03 0.  1.
         11   -1    0    0    0    0 -0.00000000000E+00 -0.00000000000E+00 -0.45593999997E+02  0.45594000000E+02  0.51100000000E-03 0. -1.
    9900012    2    1    2    0    0 -0.17522546144E+00  0.75442633851E+00  0.89070117916E+00  0.90007656129E+02  0.89999916390E+02 0.  0.
         12    1    1    2    0    0  0.17522546144E+00 -0.75442633851E+00 -0.89070117916E+00  0.11803438707E+01  0.00000000000E+00 0. -1.
         11    1    3    3    0    0  0.44329510093E+01  0.35246493452E+01  0.80376565378E+01  0.98325037776E+01  0.51100000000E-03 0. -1.
        -11    1    3    3    0    0 -0.12192162691E+02 -0.17372738700E+02  0.31607484283E+02  0.38072220108E+02  0.51100000000E-03 0.  1.
         12    1    3    3    0    0  0.75839862199E+01  0.14602515693E+02 -0.38754439642E+02  0.42102932243E+02  0.00000000000E+00 0. -1.
</event>
<event>
 7    1  0.1971192E-015  0.9000779E+02  0.7816164E-02  0.1186339E+00
        -11   -1    0    0    0    0  0.00000000000E+00  0.00000000000E+00  0.45593999997E+02  0.45594000000E+02  0.51100000000E-03 0. -1.
         11   -1    0    0    0    0 -0.00000000000E+00 -0.00000000000E+00 -0.45593999997E+02  0.45594000000E+02  0.51100000000E-03 0.  1.
    9900012    2    1    2    0    0  0.47989980235E+00 -0.44778953913E+00 -0.98085892704E+00  0.90007786661E+02  0.90000048645E+02 0.  0.
         12    1    1    2    0    0 -0.47989980235E+00  0.44778953913E+00  0.98085892704E+00  0.11802133394E+01  0.00000000000E+00 0. -1.
         11    1    3    3    0    0  0.32903974020E+00  0.24676561232E+00  0.92506904259E+01  0.92598290500E+01  0.51100000000E-03 0. -1.
        -11    1    3    3    0    0 -0.29150094027E+02 -0.17819313042E+02 -0.26379393698E+02  0.43163970058E+02  0.51100000000E-03 0.  1.
         12    1    3    3    0    0  0.29300954089E+02  0.17124757891E+02  0.16147844345E+02  0.37583987552E+02  0.00000000000E+00 0. -1.
</event>
<event>
 7    1  0.1971192E-015  0.9000775E+02  0.7816164E-02  0.1186339E+00
        -11   -1    0    0    0    0  0.00000000000E+00  0.00000000000E+00  0.45593999997E+02  0.45594000000E+02  0.51100000000E-03 0. -1.
         11   -1    0    0    0    0 -0.00000000000E+00 -0.00000000000E+00 -0.45593999997E+02  0.45594000000E+02  0.51100000000E-03 0.  1.
    9900012    2    1    2    0    0 -0.34315282302E+00 -0.82437240960E+00  0.77178123019E+00  0.90007750028E+02  0.90000011528E+02 0.  0.
         12    1    1    2    0    0  0.34315282302E+00  0.82437240960E+00 -0.77178123019E+00  0.11802499722E+01  0.00000000000E+00 0. -1.
         11    1    3    3    0    0  0.35608265489E+02  0.14439150924E+02  0.11367722904E+02  0.40070722165E+02  0.51100000000E-03 0. -1.
        -11    1    3    3    0    0  0.28252559594E+01 -0.88550132173E+01 -0.38453948476E+01  0.10058846460E+02  0.51100000000E-03 0.  1.
        -12    1    3    3    0    0 -0.38776674272E+02 -0.64085101166E+01 -0.67505468264E+01  0.39878181402E+02  0.00000000000E+00 0.  1.
</event>
<event>
 7    1  0.1971192E-015  0.9000776E+02  0.7816164E-02  0.1186339E+00
        -11   -1    0    0    0    0  0.00000000000E+00  0.00000000000E+00  0.45593999997E+02  0.45594000000E+02  0.51100000000E-03 0. -1.
         11   -1    0    0    0    0 -0.00000000000E+00 -0.00000000000E+00 -0.45593999997E+02  0.45594000000E+02  0.51100000000E-03 0.  1.
    9900012    2    1    2    0    0 -0.18604191446E+00  0.93559102769E+00 -0.69499644709E+00  0.90007761792E+02  0.90000023448E+02 0.  0.
         12    1    1    2    0    0  0.18604191446E+00 -0.93559102769E+00  0.69499644709E+00  0.11802382075E+01  0.00000000000E+00 0. -1.
         11    1    3    3    0    0  0.74663164492E+01  0.10584227416E+01  0.65137044977E+01  0.99646618891E+01  0.51100000000E-03 0. -1.
        -11    1    3    3    0    0  0.20620881649E+02 -0.93051563063E+01 -0.33455945181E+02  0.40386965249E+02  0.51100000000E-03 0.  1.
         12    1    3    3    0    0 -0.28273240013E+02  0.91823245924E+01  0.26247244236E+02  0.39656134654E+02  0.00000000000E+00 0. -1.
</event>
<event>
 7    1  0.1971192E-015  0.9000774E+02  0.7816164E-02  0.1186339E+00
        -11   -1    0    0    0    0  0.00000000000E+00  0.00000000000E+00  0.45593999997E+02  0.45594000000E+02  0.51100000000E-03 0.  1.
         11   -1    0    0    0    0 -0.00000000000E+00 -0.00000000000E+00 -0.45593999997E+02  0.45594000000E+02  0.51100000000E-03 0. -1.
    9900012    2    1    2    0    0  0.35318312643E+00 -0.47052135341E+00  0.10231768839E+01  0.90007737487E+02  0.89999998821E+02 0.  0.
         12    1    1    2    0    0 -0.35318312643E+00  0.47052135341E+00 -0.10231768839E+01  0.11802625134E+01  0.00000000000E+00 0. -1.
         11    1    3    3    0    0  0.35071052705E+01 -0.69700528391E+01 -0.41781370962E+01  0.88508900013E+01  0.51100000000E-03 0. -1.
        -11    1    3    3    0    0  0.17468638574E+02 -0.29261690704E+02  0.17190718424E+02  0.38169630293E+02  0.51100000000E-03 0.  1.
         12    1    3    3    0    0 -0.20622560718E+02  0.35761222190E+02 -0.11989404444E+02  0.42987217193E+02  0.00000000000E+00 0. -1.
</event>
<event>
 7    1  0.1971192E-015  0.9000792E+02  0.7816164E-02  0.1186339E+00
        -11   -1    0    0    0    0  0.00000000000E+00  0.00000000000E+00  0.45593999997E+02  0.45594000000E+02  0.51100000000E-03 0.  1.
         11   -1    0    0    0    0 -0.00000000000E+00 -0.00000000000E+00 -0.45593999997E+02  0.45594000000E+02  0.51100000000E-03 0. -1.
    9900012    2    1    2    0    0 -0.67702079256E+00 -0.36780821953E+00  0.89384262811E+00  0.90007917510E+02  0.90000181221E+02 0.  0.
         12    1    1    2    0    0  0.67702079256E+00  0.36780821953E+00 -0.89384262811E+00  0.11800824902E+01  0.00000000000E+00 0. -1.
         11    1    3    3    0    0 -0.16791471985E+01 -0.68943210517E+01 -0.71750960344E+00  0.71320416692E+01  0.51100000000E-03 0. -1.
        -11    1    3    3    0    0 -0.15543772797E+02 -0.17215986418E+02  0.32901102333E+02  0.40255205826E+02  0.51100000000E-03 0.  1.
         12    1    3    3    0    0  0.16545899203E+02  0.23742499250E+02 -0.31289750101E+02  0.42620670015E+02  0.00000000000E+00 0. -1.
</event>
<event>
 7    1  0.1971192E-015  0.9000774E+02  0.7816164E-02  0.1186339E+00
        -11   -1    0    0    0    0  0.00000000000E+00  0.00000000000E+00  0.45593999997E+02  0.45594000000E+02  0.51100000000E-03 0. -1.
         11   -1    0    0    0    0 -0.00000000000E+00 -0.00000000000E+00 -0.45593999997E+02  0.45594000000E+02  0.51100000000E-03 0.  1.
    9900012    2    1    2    0    0  0.23279607356E+00 -0.11551638676E+01  0.66473565298E-01  0.90007738882E+02  0.90000000235E+02 0.  0.
         12    1    1    2    0    0 -0.23279607356E+00  0.11551638676E+01 -0.66473565298E-01  0.11802611185E+01  0.00000000000E+00 0. -1.
         11    1    3    3    0    0  0.15990947521E+02 -0.67951230680E+01  0.37638505235E+02  0.41455291300E+02  0.51100000000E-03 0. -1.
        -11    1    3    3    0    0  0.62935476069E+01 -0.29859143107E+01 -0.69114666336E+01  0.98128893319E+01  0.51100000000E-03 0.  1.
        -12    1    3    3    0    0 -0.22051699055E+02  0.86258735111E+01 -0.30660565036E+02  0.38739558250E+02  0.00000000000E+00 0.  1.
</event>
<event>
 7    1  0.1971192E-015  0.9000772E+02  0.7816164E-02  0.1186339E+00
        -11   -1    0    0    0    0  0.00000000000E+00  0.00000000000E+00  0.45593999997E+02  0.45594000000E+02  0.51100000000E-03 0.  1.
         11   -1    0    0    0    0 -0.00000000000E+00 -0.00000000000E+00 -0.45593999997E+02  0.45594000000E+02  0.51100000000E-03 0. -1.
    9900012    2    1    2    0    0  0.49687076562E+00  0.10603639530E+01 -0.14764422710E+00  0.90007724147E+02  0.89999985306E+02 0.  0.
         12    1    1    2    0    0 -0.49687076562E+00 -0.10603639530E+01  0.14764422710E+00  0.11802758526E+01  0.00000000000E+00 0. -1.
         11    1    3    3    0    0 -0.10306491382E+02  0.40280882539E+01  0.10570595508E+01  0.11116053020E+02  0.51100000000E-03 0. -1.
        -11    1    3    3    0    0 -0.15321926892E+01 -0.27694954255E+02  0.27491868734E+02  0.39053309109E+02  0.51100000000E-03 0.  1.
         12    1    3    3    0    0  0.12335554837E+02  0.24727229955E+02 -0.28696572512E+02  0.39838362018E+02  0.00000000000E+00 0. -1.
</event>
<event>
 7    1  0.1971192E-015  0.9000788E+02  0.7816164E-02  0.1186339E+00
        -11   -1    0    0    0    0  0.00000000000E+00  0.00000000000E+00  0.45593999997E+02  0.45594000000E+02  0.51100000000E-03 0. -1.
         11   -1    0    0    0    0 -0.00000000000E+00 -0.00000000000E+00 -0.45593999997E+02  0.45594000000E+02  0.51100000000E-03 0.  1.
    9900012    2    1    2    0    0  0.11536743411E+01  0.59198038476E-01 -0.24126462428E+00  0.90007882416E+02  0.90000145664E+02 0.  0.
         12    1    1    2    0    0 -0.11536743411E+01 -0.59198038476E-01  0.24126462428E+00  0.11801175839E+01  0.00000000000E+00 0. -1.
         11    1    3    3    0    0 -0.14650128308E+01 -0.66210050492E+01  0.66935764484E+01  0.95282703776E+01  0.51100000000E-03 0. -1.
        -11    1    3    3    0    0 -0.26043759315E+02  0.23792854868E+02 -0.24315013135E+02  0.42843870110E+02  0.51100000000E-03 0.  1.
         12    1    3    3    0    0  0.28662446487E+02 -0.17112651780E+02  0.17380172062E+02  0.37635741928E+02  0.00000000000E+00 0. -1.
</event>
<event>
 7    1  0.1971192E-015  0.9000775E+02  0.7816164E-02  0.1186339E+00
        -11   -1    0    0    0    0  0.00000000000E+00  0.00000000000E+00  0.45593999997E+02  0.45594000000E+02  0.51100000000E-03 0. -1.
         11   -1    0    0    0    0 -0.00000000000E+00 -0.00000000000E+00 -0.45593999997E+02  0.45594000000E+02  0.51100000000E-03 0.  1.
    9900012    2    1    2    0    0 -0.40576956230E-01 -0.65681694191E+00 -0.97976521293E+00  0.90007747969E+02  0.90000009442E+02 0.  0.
         12    1    1    2    0    0  0.40576956230E-01  0.65681694191E+00  0.97976521293E+00  0.11802520311E+01  0.00000000000E+00 0. -1.
         11    1    3    3    0    0 -0.46768934113E+00 -0.87643539055E+01  0.26942860233E+01  0.91810571361E+01  0.51100000000E-03 0. -1.
        -11    1    3    3    0    0 -0.15088580576E+02  0.98200243166E+01 -0.38588635287E+02  0.42581462105E+02  0.51100000000E-03 0.  1.
         12    1    3    3    0    0  0.15515692961E+02 -0.17124873531E+01  0.34914584051E+02  0.38245228728E+02  0.00000000000E+00 0. -1.
</event>
<event>
 7    1  0.1971192E-015  0.9000779E+02  0.7816164E-02  0.1186339E+00
        -11   -1    0    0    0    0  0.00000000000E+00  0.00000000000E+00  0.45593999997E+02  0.45594000000E+02  0.51100000000E-03 0. -1.
         11   -1    0    0    0    0 -0.00000000000E+00 -0.00000000000E+00 -0.45593999997E+02  0.45594000000E+02  0.51100000000E-03 0.  1.
    9900012    2    1    2    0    0  0.63789998581E+00 -0.21142487562E+00 -0.97019881110E+00  0.90007787052E+02  0.90000049041E+02 0.  0.
         12    1    1    2    0    0 -0.63789998581E+00  0.21142487562E+00  0.97019881110E+00  0.11802129482E+01  0.00000000000E+00 0. -1.
         11    1    3    3    0    0  0.58305605586E+01  0.19492216196E+02 -0.10863916932E+02  0.23064401575E+02  0.51100000000E-03 0. -1.
        -11    1    3    3    0    0  0.15013674729E+02  0.44239271626E+01 -0.18725344188E+02  0.24405328837E+02  0.51100000000E-03 0.  1.
         12    1    3    3    0    0 -0.20206335302E+02 -0.24127568235E+02  0.28619062309E+02  0.42538056640E+02  0.00000000000E+00 0. -1.
</event>
<event>
 7    1  0.1971192E-015  0.9000753E+02  0.7816164E-02  0.1186339E+00
        -11   -1    0    0    0    0  0.00000000000E+00  0.00000000000E+00  0.45593999997E+02  0.45594000000E+02  0.51100000000E-03 0.  1.
         11   -1    0    0    0    0 -0.00000000000E+00 -0.00000000000E+00 -0.45593999997E+02  0.45594000000E+02  0.51100000000E-03 0. -1.
    9900012    2    1    2    0    0  0.16104428874E+00 -0.11553783793E+01 -0.18079136733E+00  0.90007525527E+02  0.89999784064E+02 0.  0.
         12    1    1    2    0    0 -0.16104428874E+00  0.11553783793E+01  0.18079136733E+00  0.11804744727E+01  0.00000000000E+00 0. -1.
         11    1    3    3    0    0  0.45902105313E+01  0.73423481608E+01  0.18967037812E+01  0.88644004158E+01  0.51100000000E-03 0. -1.
        -11    1    3    3    0    0  0.32479254172E+01 -0.36088345670E+02 -0.25365947150E+02  0.44230634042E+02  0.51100000000E-03 0.  1.
         12    1    3    3    0    0 -0.76770916597E+01  0.27590619130E+02  0.23288452001E+02  0.36912491069E+02  0.00000000000E+00 0. -1.
</event>
<event>
 7    1  0.1971192E-015  0.9000781E+02  0.7816164E-02  0.1186339E+00
        -11   -1    0    0    0    0  0.00000000000E+00  0.00000000000E+00  0.45593999997E+02  0.45594000000E+02  0.51100000000E-03 0.  1.
         11   -1    0    0    0    0 -0.00000000000E+00 -0.00000000000E+00 -0.45593999997E+02  0.45594000000E+02  0.51100000000E-03 0. -1.
    9900012    2    1    2    0    0 -0.73498947556E-01  0.59924293855E+00  0.10140816426E+01  0.90007806892E+02  0.90000069143E+02 0.  0.
         12    1    1    2    0    0  0.73498947556E-01 -0.59924293855E+00 -0.10140816426E+01  0.11801931081E+01  0.00000000000E+00 0. -1.
         11    1    3    3    0    0  0.97029543426E+01 -0.81281733452E+00 -0.12576253598E+02  0.15905035360E+02  0.51100000000E-03 0. -1.
        -11    1    3    3    0    0  0.31358398205E+02 -0.11759165090E+01  0.89152916343E+01  0.32622298245E+02  0.51100000000E-03 0.  1.
         12    1    3    3    0    0 -0.41134851495E+02  0.25879767820E+01  0.46750436060E+01  0.41480473286E+02  0.00000000000E+00 0. -1.
</event>
<event>
 7    1  0.1971192E-015  0.9000763E+02  0.7816164E-02  0.1186339E+00
        -11   -1    0    0    0    0  0.00000000000E+00  0.00000000000E+00  0.45593999997E+02  0.45594000000E+02  0.51100000000E-03 0.  1.
         11   -1    0    0    0    0 -0.00000000000E+00 -0.00000000000E+00 -0.45593999997E+02  0.45594000000E+02  0.51100000000E-03 0. -1.
    9900012    2    1    2    0    0  0.42732889911E+00  0.10577983771E+01 -0.30287094573E+00  0.90007627938E+02  0.89999887827E+02 0.  0.
         12    1    1    2    0    0 -0.42732889911E+00 -0.10577983771E+01  0.30287094573E+00  0.11803720618E+01  0.00000000000E+00 0. -1.
         11    1    3    3    0    0  0.12572765115E+01  0.90558140384E+01  0.10427160132E+01  0.92019437659E+01  0.51100000000E-03 0. -1.
        -11    1    3    3    0    0 -0.80181745343E+01  0.21916806265E+02  0.29247875047E+02  0.37417585635E+02  0.51100000000E-03 0.  1.
         12    1    3    3    0    0  0.71882269219E+01 -0.29914821927E+02 -0.30593462006E+02  0.43388098537E+02  0.00000000000E+00 0. -1.
</event>
<event>
 7    1  0.1971192E-015  0.9000772E+02  0.7816164E-02  0.1186339E+00
        -11   -1    0    0    0    0  0.00000000000E+00  0.00000000000E+00  0.45593999997E+02  0.45594000000E+02  0.51100000000E-03 0. -1.
         11   -1    0    0    0    0 -0.00000000000E+00 -0.00000000000E+00 -0.45593999997E+02  0.45594000000E+02  0.51100000000E-03 0.  1.
    9900012    2    1    2    0    0  0.29222028477E+00  0.18663032809E+00 -0.11282060615E+01  0.90007715080E+02  0.89999976120E+02 0.  0.
         12    1    1    2    0    0 -0.29222028477E+00 -0.18663032809E+00  0.11282060615E+01  0.11802849195E+01  0.00000000000E+00 0. -1.
         11    1    3    3    0    0 -0.57549299179E+01 -0.46300333439E+01 -0.47203765901E+01  0.87657505406E+01  0.51100000000E-03 0. -1.
        -11    1    3    3    0    0 -0.21176319424E+02 -0.10637501619E+02 -0.28057500857E+02  0.36726234487E+02  0.51100000000E-03 0.  1.
         12    1    3    3    0    0  0.27223469627E+02  0.15454165291E+02  0.31649671385E+02  0.44515730053E+02  0.00000000000E+00 0. -1.
</event>
<event>
 7    1  0.1971192E-015  0.9000778E+02  0.7816164E-02  0.1186339E+00
        -11   -1    0    0    0    0  0.00000000000E+00  0.00000000000E+00  0.45593999997E+02  0.45594000000E+02  0.51100000000E-03 0.  1.
         11   -1    0    0    0    0 -0.00000000000E+00 -0.00000000000E+00 -0.45593999997E+02  0.45594000000E+02  0.51100000000E-03 0. -1.
    9900012    2    1    2    0    0  0.92634663974E+00  0.14895054633E+00  0.71597020689E+00  0.90007780656E+02  0.90000042561E+02 0.  0.
         12    1    1    2    0    0 -0.92634663974E+00 -0.14895054633E+00 -0.71597020689E+00  0.11802193437E+01  0.00000000000E+00 0. -1.
         11    1    3    3    0    0  0.31577364904E+01  0.66690581529E+01  0.24148820241E+01  0.77639739722E+01  0.51100000000E-03 0. -1.
        -11    1    3    3    0    0  0.53959373634E+01  0.36855632311E+02  0.53873472592E+01  0.37636116747E+02  0.51100000000E-03 0.  1.
         12    1    3    3    0    0 -0.76273272141E+01 -0.43375739917E+02 -0.70862590764E+01  0.44607689937E+02  0.00000000000E+00 0. -1.
</event>
<event>
 7    1  0.1971192E-015  0.9000754E+02  0.7816164E-02  0.1186339E+00
        -11   -1    0    0    0    0  0.00000000000E+00  0.00000000000E+00  0.45593999997E+02  0.45594000000E+02  0.51100000000E-03 0. -1.
         11   -1    0    0    0    0 -0.00000000000E+00 -0.00000000000E+00 -0.45593999997E+02  0.45594000000E+02  0.51100000000E-03 0.  1.
    9900012    2    1    2    0    0 -0.91200370909E-01 -0.59295537840E+00 -0.10166510353E+01  0.90007536991E+02  0.89999795679E+02 0.  0.
         12    1    1    2    0    0  0.91200370909E-01  0.59295537840E+00  0.10166510353E+01  0.11804630091E+01  0.00000000000E+00 0. -1.
         11    1    3    3    0    0 -0.65811379689E+01  0.46251616238E+01 -0.47620452973E+01  0.93477576288E+01  0.51100000000E-03 0. -1.
        -11    1    3    3    0    0  0.29807306885E+02  0.25820098143E+02  0.11487036309E+02  0.41074383931E+02  0.51100000000E-03 0.  1.
         12    1    3    3    0    0 -0.23317369287E+02 -0.31038215145E+02 -0.77416420468E+01  0.39585395431E+02  0.00000000000E+00 0. -1.
</event>
<event>
 7    1  0.1971192E-015  0.9000771E+02  0.7816164E-02  0.1186339E+00
        -11   -1    0    0    0    0  0.00000000000E+00  0.00000000000E+00  0.45593999997E+02  0.45594000000E+02  0.51100000000E-03 0.  1.
         11   -1    0    0    0    0 -0.00000000000E+00 -0.00000000000E+00 -0.45593999997E+02  0.45594000000E+02  0.51100000000E-03 0. -1.
    9900012    2    1    2    0    0 -0.10104836206E+00 -0.31303664695E+00  0.11335304072E+01  0.90007706012E+02  0.89999966931E+02 0.  0.
         12    1    1    2    0    0  0.10104836206E+00  0.31303664695E+00 -0.11335304072E+01  0.11802939879E+01  0.00000000000E+00 0. -1.
         11    1    3    3    0    0 -0.28999499001E+01 -0.73163630323E+01  0.45725399181E+01  0.91020326854E+01  0.51100000000E-03 0. -1.
        -11    1    3    3    0    0 -0.24255404430E+02  0.27486382347E+02  0.17925898290E+02  0.40806417245E+02  0.51100000000E-03 0.  1.
         12    1    3    3    0    0  0.27054305968E+02 -0.20483055962E+02 -0.21364907801E+02  0.40099256082E+02  0.00000000000E+00 0. -1.
</event>
<event>
 7    1  0.1971192E-015  0.9000773E+02  0.7816164E-02  0.1186339E+00
        -11   -1    0    0    0    0  0.00000000000E+00  0.00000000000E+00  0.45593999997E+02  0.45594000000E+02  0.51100000000E-03 0.  1.
         11   -1    0    0    0    0 -0.00000000000E+00 -0.00000000000E+00 -0.45593999997E+02  0.45594000000E+02  0.51100000000E-03 0. -1.
    9900012    2    1    2    0    0 -0.10448351878E+01 -0.21803020861E+00  0.50380658814E+00  0.90007729345E+02  0.89999990572E+02 0.  0.
         12    1    1    2    0    0  0.10448351878E+01  0.21803020861E+00 -0.50380658814E+00  0.11802706553E+01  0.00000000000E+00 0. -1.
         11    1    3    3    0    0  0.88182407994E+01 -0.42331611668E+01  0.23062442846E+02  0.25051093679E+02  0.51100000000E-03 0. -1.
        -11    1    3    3    0    0 -0.20678596372E+02  0.66293247039E+01  0.14600522905E+02  0.26167299504E+02  0.51100000000E-03 0.  1.
         12    1    3    3    0    0  0.10815520385E+02 -0.26141937457E+01 -0.37159159163E+02  0.38789336161E+02  0.00000000000E+00 0. -1.
</event>
<event>
 7    1  0.1971192E-015  0.9000774E+02  0.7816164E-02  0.1186339E+00
        -11   -1    0    0    0    0  0.00000000000E+00  0.00000000000E+00  0.45593999997E+02  0.45594000000E+02  0.51100000000E-03 0.  1.
         11   -1    0    0    0    0 -0.00000000000E+00 -0.00000000000E+00 -0.45593999997E+02  0.45594000000E+02  0.51100000000E-03 0. -1.
    9900012    2    1    2    0    0  0.71991414609E+00 -0.58461914235E+00  0.73003976052E+00  0.90007739871E+02  0.90000001238E+02 0.  0.
         12    1    1    2    0    0 -0.71991414609E+00  0.58461914235E+00 -0.73003976052E+00  0.11802601287E+01  0.00000000000E+00 0. -1.
         11    1    3    3    0    0  0.27049492035E+01 -0.80131602751E+01  0.40427258012E+01  0.93739596731E+01  0.51100000000E-03 0. -1.
        -11    1    3    3    0    0 -0.10673683320E+02 -0.21354128469E+01  0.36860264414E+02  0.38433925073E+02  0.51100000000E-03 0.  1.
         12    1    3    3    0    0  0.86886482630E+01  0.95639539797E+01 -0.40172950454E+02  0.42199855125E+02  0.00000000000E+00 0. -1.
</event>
<event>
 7    1  0.1971192E-015  0.9000780E+02  0.7816164E-02  0.1186339E+00
        -11   -1    0    0    0    0  0.00000000000E+00  0.00000000000E+00  0.45593999997E+02  0.45594000000E+02  0.51100000000E-03 0.  1.
         11   -1    0    0    0    0 -0.00000000000E+00 -0.00000000000E+00 -0.45593999997E+02  0.45594000000E+02  0.51100000000E-03 0. -1.
    9900012    2    1    2    0    0 -0.48613166890E+00 -0.10069249446E+01  0.37767743366E+00  0.90007804216E+02  0.90000066432E+02 0.  0.
         12    1    1    2    0    0  0.48613166890E+00  0.10069249446E+01 -0.37767743366E+00  0.11801957835E+01  0.00000000000E+00 0. -1.
         11    1    3    3    0    0  0.12823185221E+02  0.79507585925E+01  0.82408946836E+01  0.17191887239E+02  0.51100000000E-03 0. -1.
        -11    1    3    3    0    0 -0.22000910486E+02 -0.26622902200E+02  0.19071498726E+02  0.39453023302E+02  0.51100000000E-03 0.  1.
         12    1    3    3    0    0  0.86915935958E+01  0.17665218663E+02 -0.26934715976E+02  0.33362893675E+02  0.00000000000E+00 0. -1.
</event>
<event>
 7    1  0.1971192E-015  0.9000816E+02  0.7816164E-02  0.1186338E+00
        -11   -1    0    0    0    0  0.00000000000E+00  0.00000000000E+00  0.45593999997E+02  0.45594000000E+02  0.51100000000E-03 0.  1.
         11   -1    0    0    0    0 -0.00000000000E+00 -0.00000000000E+00 -0.45593999997E+02  0.45594000000E+02  0.51100000000E-03 0. -1.
    9900012    2    1    2    0    0 -0.39703478013E+00 -0.87898166738E+00  0.67953898013E+00  0.90008161615E+02  0.90000428548E+02 0.  0.
         12    1    1    2    0    0  0.39703478013E+00  0.87898166738E+00 -0.67953898013E+00  0.11798383846E+01  0.00000000000E+00 0. -1.
         11    1    3    3    0    0 -0.10280050451E+02 -0.37334117471E+02  0.27904130532E+01  0.38823989618E+02  0.51100000000E-03 0. -1.
        -11    1    3    3    0    0  0.63512892524E+01 -0.45479719837E+01  0.52010190137E+01  0.93847495105E+01  0.51100000000E-03 0.  1.
        -12    1    3    3    0    0  0.35317264188E+01  0.41003107787E+02 -0.73118930868E+01  0.41799422487E+02  0.00000000000E+00 0.  1.
</event>
<event>
 7    1  0.1971192E-015  0.9000776E+02  0.7816164E-02  0.1186339E+00
        -11   -1    0    0    0    0  0.00000000000E+00  0.00000000000E+00  0.45593999997E+02  0.45594000000E+02  0.51100000000E-03 0.  1.
         11   -1    0    0    0    0 -0.00000000000E+00 -0.00000000000E+00 -0.45593999997E+02  0.45594000000E+02  0.51100000000E-03 0. -1.
    9900012    2    1    2    0    0  0.10476323621E+01  0.52406631529E+00 -0.14419909720E+00  0.90007757462E+02  0.90000019060E+02 0.  0.
         12    1    1    2    0    0 -0.10476323621E+01 -0.52406631529E+00  0.14419909720E+00  0.11802425381E+01  0.00000000000E+00 0. -1.
         11    1    3    3    0    0 -0.10154008100E+02 -0.96834557841E+01  0.41434890168E+01  0.14630163974E+02  0.51100000000E-03 0. -1.
        -11    1    3    3    0    0  0.10408128884E+02  0.70161570985E-01  0.34106706096E+02  0.35659521456E+02  0.51100000000E-03 0.  1.
         12    1    3    3    0    0  0.79351157855E+00  0.10137360528E+02 -0.38394394210E+02  0.39718072031E+02  0.00000000000E+00 0. -1.
</event>
<event>
 7    1  0.1971192E-015  0.9000771E+02  0.7816164E-02  0.1186339E+00
        -11   -1    0    0    0    0  0.00000000000E+00  0.00000000000E+00  0.45593999997E+02  0.45594000000E+02  0.51100000000E-03 0.  1.
         11   -1    0    0    0    0 -0.00000000000E+00 -0.00000000000E+00 -0.45593999997E+02  0.45594000000E+02  0.51100000000E-03 0. -1.
    9900012    2    1    2    0    0 -0.84894937164E+00 -0.79402207127E+00 -0.20471345407E+00  0.90007706103E+02  0.89999967023E+02 0.  0.
         12    1    1    2    0    0  0.84894937164E+00  0.79402207127E+00  0.20471345407E+00  0.11802938971E+01  0.00000000000E+00 0. -1.
         11    1    3    3    0    0 -0.23130362207E+02 -0.29119347489E+02  0.46189015233E+01  0.37473781575E+02  0.51100000000E-03 0. -1.
        -11    1    3    3    0    0  0.31625577259E+01 -0.90863107442E+01 -0.42457231228E+01  0.10516129488E+02  0.51100000000E-03 0.  1.
        -12    1    3    3    0    0  0.19118855110E+02  0.37411636162E+02 -0.57789185461E+00  0.42017795040E+02  0.00000000000E+00 0.  1.
</event>
<event>
 7    1  0.1971192E-015  0.9000775E+02  0.7816164E-02  0.1186339E+00
        -11   -1    0    0    0    0  0.00000000000E+00  0.00000000000E+00  0.45593999997E+02  0.45594000000E+02  0.51100000000E-03 0. -1.
         11   -1    0    0    0    0 -0.00000000000E+00 -0.00000000000E+00 -0.45593999997E+02  0.45594000000E+02  0.51100000000E-03 0.  1.
    9900012    2    1    2    0    0  0.28986576141E+00 -0.11071210546E+01  0.28851377580E+00  0.90007754522E+02  0.90000016082E+02 0.  0.
         12    1    1    2    0    0 -0.28986576141E+00  0.11071210546E+01 -0.28851377580E+00  0.11802454779E+01  0.00000000000E+00 0. -1.
         11    1    3    3    0    0 -0.26112823747E+02  0.62432033526E+01 -0.22076943372E+02  0.34759870268E+02  0.51100000000E-03 0. -1.
        -11    1    3    3    0    0 -0.29791089973E+01  0.12553737210E+02 -0.70114416103E+00  0.12921416786E+02  0.51100000000E-03 0.  1.
        -12    1    3    3    0    0  0.29381798506E+02 -0.19904061618E+02  0.23066601309E+02  0.42326467467E+02  0.00000000000E+00 0.  1.
</event>
<event>
 7    1  0.1971192E-015  0.9000761E+02  0.7816164E-02  0.1186339E+00
        -11   -1    0    0    0    0  0.00000000000E+00  0.00000000000E+00  0.45593999997E+02  0.45594000000E+02  0.51100000000E-03 0.  1.
         11   -1    0    0    0    0 -0.00000000000E+00 -0.00000000000E+00 -0.45593999997E+02  0.45594000000E+02  0.51100000000E-03 0. -1.
    9900012    2    1    2    0    0 -0.61500919883E+00  0.40770253748E+00  0.92133899351E+00  0.90007608872E+02  0.89999868509E+02 0.  0.
         12    1    1    2    0    0  0.61500919883E+00 -0.40770253748E+00 -0.92133899351E+00  0.11803911278E+01  0.00000000000E+00 0. -1.
         11    1    3    3    0    0 -0.32305967976E+02 -0.17459244550E+02  0.54568018847E+01  0.37125159585E+02  0.51100000000E-03 0. -1.
        -11    1    3    3    0    0  0.21455896722E+01 -0.11014581426E+02  0.65643930562E+00  0.11240794983E+02  0.51100000000E-03 0.  1.
        -12    1    3    3    0    0  0.29545369105E+02  0.28881528513E+02 -0.51919021968E+01  0.41641654305E+02  0.00000000000E+00 0.  1.
</event>
<event>
 7    1  0.1971192E-015  0.9000774E+02  0.7816164E-02  0.1186339E+00
        -11   -1    0    0    0    0  0.00000000000E+00  0.00000000000E+00  0.45593999997E+02  0.45594000000E+02  0.51100000000E-03 0. -1.
         11   -1    0    0    0    0 -0.00000000000E+00 -0.00000000000E+00 -0.45593999997E+02  0.45594000000E+02  0.51100000000E-03 0.  1.
    9900012    2    1    2    0    0 -0.90378525334E+00 -0.72961298200E+00  0.20938352485E+00  0.90007743948E+02  0.90000005368E+02 0.  0.
         12    1    1    2    0    0  0.90378525334E+00  0.72961298200E+00 -0.20938352485E+00  0.11802560519E+01  0.00000000000E+00 0. -1.
         11    1    3    3    0    0  0.38326517940E+02 -0.16844546255E+02  0.37788611712E+01  0.42034991471E+02  0.51100000000E-03 0. -1.
        -11    1    3    3    0    0 -0.27150588779E+01  0.91013960650E+01  0.35035069123E+01  0.10123315464E+02  0.51100000000E-03 0.  1.
        -12    1    3    3    0    0 -0.36515244316E+02  0.70135372084E+01 -0.70729845587E+01  0.37849437013E+02  0.00000000000E+00 0.  1.
</event>
<event>
 7    1  0.1971192E-015  0.9000772E+02  0.7816164E-02  0.1186339E+00
        -11   -1    0    0    0    0  0.00000000000E+00  0.00000000000E+00  0.45593999997E+02  0.45594000000E+02  0.51100000000E-03 0.  1.
         11   -1    0    0    0    0 -0.00000000000E+00 -0.00000000000E+00 -0.45593999997E+02  0.45594000000E+02  0.51100000000E-03 0. -1.
    9900012    2    1    2    0    0 -0.10301355982E+01 -0.53304434765E+00  0.21850043950E+00  0.90007721190E+02  0.89999982310E+02 0.  0.
         12    1    1    2    0    0  0.10301355982E+01  0.53304434765E+00 -0.21850043950E+00  0.11802788100E+01  0.00000000000E+00 0. -1.
         11    1    3    3    0    0 -0.95299825126E+01  0.17780718295E+02 -0.33742022983E+02  0.39312830285E+02  0.51100000000E-03 0. -1.
        -11    1    3    3    0    0 -0.51797029438E+00 -0.92576966258E+01 -0.43987309323E+01  0.10262654341E+02  0.51100000000E-03 0.  1.
        -12    1    3    3    0    0  0.90178172087E+01 -0.90560660167E+01  0.38359254355E+02  0.40432236564E+02  0.00000000000E+00 0.  1.
</event>
<event>
 7    1  0.1971192E-015  0.9000777E+02  0.7816164E-02  0.1186339E+00
        -11   -1    0    0    0    0  0.00000000000E+00  0.00000000000E+00  0.45593999997E+02  0.45594000000E+02  0.51100000000E-03 0. -1.
         11   -1    0    0    0    0 -0.00000000000E+00 -0.00000000000E+00 -0.45593999997E+02  0.45594000000E+02  0.51100000000E-03 0.  1.
    9900012    2    1    2    0    0  0.41420813749E-01  0.63891604372E+00 -0.99147529734E+00  0.90007765845E+02  0.90000027554E+02 0.  0.
         12    1    1    2    0    0 -0.41420813749E-01 -0.63891604372E+00  0.99147529734E+00  0.11802341547E+01  0.00000000000E+00 0. -1.
         11    1    3    3    0    0  0.16260490515E+02 -0.30896207975E+02 -0.50594414607E+01  0.35278565266E+02  0.51100000000E-03 0. -1.
        -11    1    3    3    0    0  0.44270674230E+01 -0.77081057966E+01 -0.38464984901E+01  0.96855238286E+01  0.51100000000E-03 0.  1.
        -12    1    3    3    0    0 -0.20646137124E+02  0.39243229816E+02  0.79144646534E+01  0.45043676751E+02  0.00000000000E+00 0.  1.
</event>
<event>
 7    1  0.1971192E-015  0.9000761E+02  0.7816164E-02  0.1186339E+00
        -11   -1    0    0    0    0  0.00000000000E+00  0.00000000000E+00  0.45593999997E+02  0.45594000000E+02  0.51100000000E-03 0. -1.
         11   -1    0    0    0    0 -0.00000000000E+00 -0.00000000000E+00 -0.45593999997E+02  0.45594000000E+02  0.51100000000E-03 0.  1.
    9900012    2    1    2    0    0 -0.74286550209E+00  0.91645482276E+00  0.39756403794E-01  0.90007610586E+02  0.89999870246E+02 0.  0.
         12    1    1    2    0    0  0.74286550209E+00 -0.91645482276E+00 -0.39756403794E-01  0.11803894137E+01  0.00000000000E+00 0. -1.
         11    1    3    3    0    0  0.17126338736E+01  0.50808108164E+01 -0.84623750778E+01  0.10017961148E+02  0.51100000000E-03 0. -1.
        -11    1    3    3    0    0 -0.36767055959E+02 -0.81332801287E+01 -0.12366493859E+02  0.39634540746E+02  0.51100000000E-03 0.  1.
         12    1    3    3    0    0  0.34311556583E+02  0.39689241351E+01  0.20868625341E+02  0.40355108692E+02  0.00000000000E+00 0. -1.
</event>
<event>
 7    1  0.1971192E-015  0.9000769E+02  0.7816164E-02  0.1186339E+00
        -11   -1    0    0    0    0  0.00000000000E+00  0.00000000000E+00  0.45593999997E+02  0.45594000000E+02  0.51100000000E-03 0.  1.
         11   -1    0    0    0    0 -0.00000000000E+00 -0.00000000000E+00 -0.45593999997E+02  0.45594000000E+02  0.51100000000E-03 0. -1.
    9900012    2    1    2    0    0 -0.93091731197E+00 -0.24685464034E-01  0.72519870620E+00  0.90007690898E+02  0.89999951617E+02 0.  0.
         12    1    1    2    0    0  0.93091731197E+00  0.24685464034E-01 -0.72519870620E+00  0.11803091025E+01  0.00000000000E+00 0. -1.
         11    1    3    3    0    0 -0.12221999740E+02  0.13821906789E+01 -0.30996822705E+02  0.33348024630E+02  0.51100000000E-03 0. -1.
        -11    1    3    3    0    0  0.32763360368E+01 -0.52765586693E+00 -0.11871590346E+02  0.12326696887E+02  0.51100000000E-03 0.  1.
        -12    1    3    3    0    0  0.80147463910E+01 -0.87922027596E+00  0.43593611757E+02  0.44332969380E+02  0.00000000000E+00 0.  1.
</event>
<event>
 7    1  0.1971192E-015  0.9000775E+02  0.7816164E-02  0.1186339E+00
        -11   -1    0    0    0    0  0.00000000000E+00  0.00000000000E+00  0.45593999997E+02  0.45594000000E+02  0.51100000000E-03 0.  1.
         11   -1    0    0    0    0 -0.00000000000E+00 -0.00000000000E+00 -0.45593999997E+02  0.45594000000E+02  0.51100000000E-03 0. -1.
    9900012    2    1    2    0    0 -0.92518931552E+00 -0.30278502680E+00  0.66734050121E+00  0.90007746897E+02  0.90000008356E+02 0.  0.
         12    1    1    2    0    0  0.92518931552E+00  0.30278502680E+00 -0.66734050121E+00  0.11802531027E+01  0.00000000000E+00 0. -1.
         11    1    3    3    0    0  0.19990456971E+01  0.69482824543E+01 -0.41784369134E+02  0.42405286427E+02  0.51100000000E-03 0. -1.
        -11    1    3    3    0    0  0.16763452691E+01 -0.57025459379E+01  0.11970193301E+01  0.60631690701E+01  0.51100000000E-03 0.  1.
        -12    1    3    3    0    0 -0.46005802818E+01 -0.15485215432E+01  0.41254690305E+02  0.41539291400E+02  0.00000000000E+00 0.  1.
</event>
<event>
 7    1  0.1971192E-015  0.9000753E+02  0.7816164E-02  0.1186339E+00
        -11   -1    0    0    0    0  0.00000000000E+00  0.00000000000E+00  0.45593999997E+02  0.45594000000E+02  0.51100000000E-03 0.  1.
         11   -1    0    0    0    0 -0.00000000000E+00 -0.00000000000E+00 -0.45593999997E+02  0.45594000000E+02  0.51100000000E-03 0. -1.
    9900012    2    1    2    0    0 -0.76086533331E+00 -0.88284266155E+00  0.18757082649E+00  0.90007529740E+02  0.89999788332E+02 0.  0.
         12    1    1    2    0    0  0.76086533331E+00  0.88284266155E+00 -0.18757082649E+00  0.11804702603E+01  0.00000000000E+00 0. -1.
         11    1    3    3    0    0  0.59600028940E+01  0.33727468370E+01 -0.36598860701E+01  0.77647808746E+01  0.51100000000E-03 0. -1.
        -11    1    3    3    0    0  0.14669750781E+02  0.22284586415E+02  0.29355587317E+02  0.39668058771E+02  0.51100000000E-03 0.  1.
         12    1    3    3    0    0 -0.21390619008E+02 -0.26540175913E+02 -0.25508130421E+02  0.42574690094E+02  0.00000000000E+00 0. -1.
</event>
<event>
 7    1  0.1971192E-015  0.9000776E+02  0.7816164E-02  0.1186339E+00
        -11   -1    0    0    0    0  0.00000000000E+00  0.00000000000E+00  0.45593999997E+02  0.45594000000E+02  0.51100000000E-03 0. -1.
         11   -1    0    0    0    0 -0.00000000000E+00 -0.00000000000E+00 -0.45593999997E+02  0.45594000000E+02  0.51100000000E-03 0.  1.
    9900012    2    1    2    0    0 -0.10166176259E+01 -0.58055166339E+00 -0.14971713236E+00  0.90007759833E+02  0.90000021463E+02 0.  0.
         12    1    1    2    0    0  0.10166176259E+01  0.58055166339E+00  0.14971713236E+00  0.11802401666E+01  0.00000000000E+00 0. -1.
         11    1    3    3    0    0  0.19195158902E+02 -0.12610925113E+02  0.28644519341E+02  0.36715092892E+02  0.51100000000E-03 0. -1.
        -11    1    3    3    0    0  0.13680586215E+01  0.75220031499E+01  0.75755563472E+01  0.10762953591E+02  0.51100000000E-03 0.  1.
        -12    1    3    3    0    0 -0.21579835149E+02  0.45083703001E+01 -0.36369792821E+02  0.42529713350E+02  0.00000000000E+00 0.  1.
</event>
<event>
 7    1  0.1971192E-015  0.9000769E+02  0.7816164E-02  0.1186339E+00
        -11   -1    0    0    0    0  0.00000000000E+00  0.00000000000E+00  0.45593999997E+02  0.45594000000E+02  0.51100000000E-03 0.  1.
         11   -1    0    0    0    0 -0.00000000000E+00 -0.00000000000E+00 -0.45593999997E+02  0.45594000000E+02  0.51100000000E-03 0. -1.
    9900012    2    1    2    0    0  0.48332872646E+00 -0.10768091905E+01 -0.30390688932E-02  0.90007689055E+02  0.89999949751E+02 0.  0.
         12    1    1    2    0    0 -0.48332872646E+00  0.10768091905E+01  0.30390688932E-02  0.11803109448E+01  0.00000000000E+00 0. -1.
         11    1    3    3    0    0 -0.28248294780E+01  0.91114435492E+01  0.60279554837E+01  0.11284250649E+02  0.51100000000E-03 0. -1.
        -11    1    3    3    0    0 -0.37075842860E+02 -0.54060770355E+01 -0.66452549122E+01  0.38052637305E+02  0.51100000000E-03 0.  1.
         12    1    3    3    0    0  0.40384001065E+02 -0.47821757041E+01  0.61426035968E+00  0.40670801102E+02  0.00000000000E+00 0. -1.
</event>
<event>
 7    1  0.1971192E-015  0.9000773E+02  0.7816164E-02  0.1186339E+00
        -11   -1    0    0    0    0  0.00000000000E+00  0.00000000000E+00  0.45593999997E+02  0.45594000000E+02  0.51100000000E-03 0. -1.
         11   -1    0    0    0    0 -0.00000000000E+00 -0.00000000000E+00 -0.45593999997E+02  0.45594000000E+02  0.51100000000E-03 0.  1.
    9900012    2    1    2    0    0 -0.27403317642E+00  0.41875275731E+00 -0.10689220320E+01  0.90007727843E+02  0.89999989051E+02 0.  0.
         12    1    1    2    0    0  0.27403317642E+00 -0.41875275731E+00  0.10689220320E+01  0.11802721568E+01  0.00000000000E+00 0. -1.
         11    1    3    3    0    0 -0.45211673889E+01 -0.53340972786E+01 -0.66604507344E+01  0.96568707448E+01  0.51100000000E-03 0. -1.
        -11    1    3    3    0    0 -0.35390428477E+01 -0.36627978430E+02  0.58457161685E+01  0.37259978877E+02  0.51100000000E-03 0.  1.
         12    1    3    3    0    0  0.77861770602E+01  0.42380828466E+02 -0.25418746613E+00  0.43090878222E+02  0.00000000000E+00 0. -1.
</event>
<event>
 7    1  0.1971192E-015  0.9000771E+02  0.7816164E-02  0.1186339E+00
        -11   -1    0    0    0    0  0.00000000000E+00  0.00000000000E+00  0.45593999997E+02  0.45594000000E+02  0.51100000000E-03 0.  1.
         11   -1    0    0    0    0 -0.00000000000E+00 -0.00000000000E+00 -0.45593999997E+02  0.45594000000E+02  0.51100000000E-03 0. -1.
    9900012    2    1    2    0    0 -0.16075719158E+00  0.42188916589E+00  0.10905318542E+01  0.90007706364E+02  0.89999967288E+02 0.  0.
         12    1    1    2    0    0  0.16075719158E+00 -0.42188916589E+00 -0.10905318542E+01  0.11802936364E+01  0.00000000000E+00 0. -1.
         11    1    3    3    0    0  0.10815685007E+02 -0.70606717597E+00 -0.34238331038E+02  0.35912962640E+02  0.51100000000E-03 0. -1.
        -11    1    3    3    0    0  0.23568199339E+01  0.99008395058E+01 -0.45442269914E+01  0.11145906079E+02  0.51100000000E-03 0.  1.
        -12    1    3    3    0    0 -0.13333262133E+02 -0.87728831639E+01  0.39873089884E+02  0.42948837644E+02  0.00000000000E+00 0.  1.
</event>
<event>
 7    1  0.1971192E-015  0.9000772E+02  0.7816164E-02  0.1186339E+00
        -11   -1    0    0    0    0  0.00000000000E+00  0.00000000000E+00  0.45593999997E+02  0.45594000000E+02  0.51100000000E-03 0. -1.
         11   -1    0    0    0    0 -0.00000000000E+00 -0.00000000000E+00 -0.45593999997E+02  0.45594000000E+02  0.51100000000E-03 0.  1.
    9900012    2    1    2    0    0 -0.65498402673E+00 -0.59874839729E+00 -0.77818271024E+00  0.90007715268E+02  0.89999976309E+02 0.  0.
         12    1    1    2    0    0  0.65498402673E+00  0.59874839729E+00  0.77818271024E+00  0.11802847322E+01  0.00000000000E+00 0. -1.
         11    1    3    3    0    0 -0.74819966084E+01 -0.71990756066E+01 -0.13183720985E+01  0.10466377983E+02  0.51100000000E-03 0. -1.
        -11    1    3    3    0    0 -0.28795502405E+02  0.17272194707E+02  0.18398756780E+02  0.38288691804E+02  0.51100000000E-03 0.  1.
         12    1    3    3    0    0  0.35622514987E+02 -0.10671867498E+02 -0.17858567391E+02  0.41252645480E+02  0.00000000000E+00 0. -1.
</event>
<event>
 7    1  0.1971192E-015  0.9000745E+02  0.7816164E-02  0.1186340E+00
        -11   -1    0    0    0    0  0.00000000000E+00  0.00000000000E+00  0.45593999997E+02  0.45594000000E+02  0.51100000000E-03 0. -1.
         11   -1    0    0    0    0 -0.00000000000E+00 -0.00000000000E+00 -0.45593999997E+02  0.45594000000E+02  0.51100000000E-03 0.  1.
    9900012    2    1    2    0    0 -0.37036571201E+00  0.39107295913E+00  0.10505193343E+01  0.90007449412E+02  0.89999706943E+02 0.  0.
         12    1    1    2    0    0  0.37036571201E+00 -0.39107295913E+00 -0.10505193343E+01  0.11805505884E+01  0.00000000000E+00 0. -1.
         11    1    3    3    0    0  0.10671682301E+02  0.30154300852E+01 -0.21143597317E+01  0.11289293116E+02  0.51100000000E-03 0. -1.
        -11    1    3    3    0    0  0.27750539460E+02  0.19437115622E+02 -0.10150275522E+01  0.33895784181E+02  0.51100000000E-03 0.  1.
         12    1    3    3    0    0 -0.38792587473E+02 -0.22061472748E+02  0.41799066183E+01  0.44822372115E+02  0.00000000000E+00 0. -1.
</event>
<event>
 7    1  0.1971192E-015  0.9000779E+02  0.7816164E-02  0.1186339E+00
        -11   -1    0    0    0    0  0.00000000000E+00  0.00000000000E+00  0.45593999997E+02  0.45594000000E+02  0.51100000000E-03 0. -1.
         11   -1    0    0    0    0 -0.00000000000E+00 -0.00000000000E+00 -0.45593999997E+02  0.45594000000E+02  0.51100000000E-03 0.  1.
    9900012    2    1    2    0    0  0.10510390436E+01 -0.31693283650E+00  0.43330907124E+00  0.90007793982E+02  0.90000056062E+02 0.  0.
         12    1    1    2    0    0 -0.10510390436E+01  0.31693283650E+00 -0.43330907124E+00  0.11802060181E+01  0.00000000000E+00 0. -1.
         11    1    3    3    0    0  0.14183937526E+02 -0.34094316592E+02  0.22420248904E+02  0.43200394312E+02  0.51100000000E-03 0. -1.
        -11    1    3    3    0    0 -0.49971715302E+01  0.33418523830E+01  0.28854991300E+01  0.66682686016E+01  0.51100000000E-03 0.  1.
        -12    1    3    3    0    0 -0.81357269521E+01  0.30435531372E+02 -0.24872438962E+02  0.40139131068E+02  0.00000000000E+00 0.  1.
</event>
<event>
 7    1  0.1971192E-015  0.9000773E+02  0.7816164E-02  0.1186339E+00
        -11   -1    0    0    0    0  0.00000000000E+00  0.00000000000E+00  0.45593999997E+02  0.45594000000E+02  0.51100000000E-03 0.  1.
         11   -1    0    0    0    0 -0.00000000000E+00 -0.00000000000E+00 -0.45593999997E+02  0.45594000000E+02  0.51100000000E-03 0. -1.
    9900012    2    1    2    0    0 -0.41541357507E+00 -0.20429545039E+00  0.10856939374E+01  0.90007730372E+02  0.89999991613E+02 0.  0.
         12    1    1    2    0    0  0.41541357507E+00  0.20429545039E+00 -0.10856939374E+01  0.11802696281E+01  0.00000000000E+00 0. -1.
         11    1    3    3    0    0  0.54139319792E+01 -0.33711954059E+01 -0.64046655689E+01  0.90385485146E+01  0.51100000000E-03 0. -1.
        -11    1    3    3    0    0 -0.19946243317E+02 -0.34801369783E+02  0.34379797736E+01  0.40259255661E+02  0.51100000000E-03 0.  1.
         12    1    3    3    0    0  0.14116897763E+02  0.37968269738E+02  0.40523797327E+01  0.40709926196E+02  0.00000000000E+00 0. -1.
</event>
<event>
 7    1  0.1971192E-015  0.9000767E+02  0.7816164E-02  0.1186339E+00
        -11   -1    0    0    0    0  0.00000000000E+00  0.00000000000E+00  0.45593999997E+02  0.45594000000E+02  0.51100000000E-03 0.  1.
         11   -1    0    0    0    0 -0.00000000000E+00 -0.00000000000E+00 -0.45593999997E+02  0.45594000000E+02  0.51100000000E-03 0. -1.
    9900012    2    1    2    0    0 -0.16394404294E+00  0.66532019224E+00  0.96107054102E+00  0.90007667338E+02  0.89999927747E+02 0.  0.
         12    1    1    2    0    0  0.16394404294E+00 -0.66532019224E+00 -0.96107054102E+00  0.11803326617E+01  0.00000000000E+00 0. -1.
         11    1    3    3    0    0 -0.78766188905E+01 -0.45423502036E+01  0.30360601813E+01  0.95860175362E+01  0.51100000000E-03 0. -1.
        -11    1    3    3    0    0  0.44417110513E+01 -0.12231124724E+02  0.36073569945E+02  0.38348815600E+02  0.51100000000E-03 0.  1.
         12    1    3    3    0    0  0.32709637962E+01  0.17438795120E+02 -0.38148559585E+02  0.42072834202E+02  0.00000000000E+00 0. -1.
</event>
<event>
 7    1  0.1971192E-015  0.9000760E+02  0.7816164E-02  0.1186339E+00
        -11   -1    0    0    0    0  0.00000000000E+00  0.00000000000E+00  0.45593999997E+02  0.45594000000E+02  0.51100000000E-03 0.  1.
         11   -1    0    0    0    0 -0.00000000000E+00 -0.00000000000E+00 -0.45593999997E+02  0.45594000000E+02  0.51100000000E-03 0. -1.
    9900012    2    1    2    0    0  0.28050867910E+00 -0.10271153255E+01 -0.50959750597E+00  0.90007601496E+02  0.89999861035E+02 0.  0.
         12    1    1    2    0    0 -0.28050867910E+00  0.10271153255E+01  0.50959750597E+00  0.11803985043E+01  0.00000000000E+00 0. -1.
         11    1    3    3    0    0  0.60677037467E+01 -0.34239739060E+01  0.67639168038E+01  0.97103654337E+01  0.51100000000E-03 0. -1.
        -11    1    3    3    0    0  0.13221921174E+02  0.36750949249E+02  0.44800651074E+01  0.39313133351E+02  0.51100000000E-03 0.  1.
         12    1    3    3    0    0 -0.19009116241E+02 -0.34354090668E+02 -0.11753579417E+02  0.40984102711E+02  0.00000000000E+00 0. -1.
</event>
<event>
 7    1  0.1971192E-015  0.9000752E+02  0.7816164E-02  0.1186339E+00
        -11   -1    0    0    0    0  0.00000000000E+00  0.00000000000E+00  0.45593999997E+02  0.45594000000E+02  0.51100000000E-03 0.  1.
         11   -1    0    0    0    0 -0.00000000000E+00 -0.00000000000E+00 -0.45593999997E+02  0.45594000000E+02  0.51100000000E-03 0. -1.
    9900012    2    1    2    0    0 -0.72984302894E+00 -0.92058941342E+00  0.11563278901E+00  0.90007522700E+02  0.89999781199E+02 0.  0.
         12    1    1    2    0    0  0.72984302894E+00  0.92058941342E+00 -0.11563278901E+00  0.11804773005E+01  0.00000000000E+00 0. -1.
         11    1    3    3    0    0 -0.80604554573E+01  0.44823224893E+01  0.42624687053E+00  0.92327592697E+01  0.51100000000E-03 0. -1.
        -11    1    3    3    0    0 -0.29874400452E+02 -0.10021326243E+02  0.20793054723E+02  0.37752588084E+02  0.51100000000E-03 0.  1.
         12    1    3    3    0    0  0.37205012881E+02  0.46184143405E+01 -0.21103668805E+02  0.43022175346E+02  0.00000000000E+00 0. -1.
</event>
<event>
 7    1  0.1971192E-015  0.9000770E+02  0.7816164E-02  0.1186339E+00
        -11   -1    0    0    0    0  0.00000000000E+00  0.00000000000E+00  0.45593999997E+02  0.45594000000E+02  0.51100000000E-03 0.  1.
         11   -1    0    0    0    0 -0.00000000000E+00 -0.00000000000E+00 -0.45593999997E+02  0.45594000000E+02  0.51100000000E-03 0. -1.
    9900012    2    1    2    0    0 -0.58169313569E+00  0.29891148687E+00  0.98254384954E+00  0.90007700293E+02  0.89999961137E+02 0.  0.
         12    1    1    2    0    0  0.58169313569E+00 -0.29891148687E+00 -0.98254384954E+00  0.11802997066E+01  0.00000000000E+00 0. -1.
         11    1    3    3    0    0 -0.24991071746E+02 -0.30535813245E+02 -0.44269315248E+01  0.39706262485E+02  0.51100000000E-03 0. -1.
        -11    1    3    3    0    0  0.12243392865E+01 -0.38833634012E+01  0.74646033234E+01  0.85029301438E+01  0.51100000000E-03 0.  1.
        -12    1    3    3    0    0  0.23185039324E+02  0.34718088133E+02 -0.20551279490E+01  0.41798507664E+02  0.00000000000E+00 0.  1.
</event>
<event>
 7    1  0.1971192E-015  0.9000767E+02  0.7816164E-02  0.1186339E+00
        -11   -1    0    0    0    0  0.00000000000E+00  0.00000000000E+00  0.45593999997E+02  0.45594000000E+02  0.51100000000E-03 0.  1.
         11   -1    0    0    0    0 -0.00000000000E+00 -0.00000000000E+00 -0.45593999997E+02  0.45594000000E+02  0.51100000000E-03 0. -1.
    9900012    2    1    2    0    0 -0.26526655383E+00  0.12732945005E+00  0.11430645008E+01  0.90007671407E+02  0.89999931870E+02 0.  0.
         12    1    1    2    0    0  0.26526655383E+00 -0.12732945005E+00 -0.11430645008E+01  0.11803285926E+01  0.00000000000E+00 0. -1.
         11    1    3    3    0    0 -0.16872904170E+02  0.53742043576E+01 -0.31505099315E+02  0.36140673081E+02  0.51100000000E-03 0. -1.
        -11    1    3    3    0    0  0.39376914583E+01 -0.14880575257E+01 -0.91271495198E+01  0.10051098837E+02  0.51100000000E-03 0.  1.
        -12    1    3    3    0    0  0.12669946157E+02 -0.37588173819E+01  0.41775313336E+02  0.43815899489E+02  0.00000000000E+00 0.  1.
</event>
<event>
 7    1  0.1971192E-015  0.9000771E+02  0.7816164E-02  0.1186339E+00
        -11   -1    0    0    0    0  0.00000000000E+00  0.00000000000E+00  0.45593999997E+02  0.45594000000E+02  0.51100000000E-03 0.  1.
         11   -1    0    0    0    0 -0.00000000000E+00 -0.00000000000E+00 -0.45593999997E+02  0.45594000000E+02  0.51100000000E-03 0. -1.
    9900012    2    1    2    0    0  0.64637476164E+00 -0.62501847710E+00  0.76461381204E+00  0.90007710751E+02  0.89999971733E+02 0.  0.
         12    1    1    2    0    0 -0.64637476164E+00  0.62501847710E+00 -0.76461381204E+00  0.11802892488E+01  0.00000000000E+00 0. -1.
         11    1    3    3    0    0  0.26969596831E+02 -0.80715878860E+01 -0.16050008476E+02  0.32405438688E+02  0.51100000000E-03 0. -1.
        -11    1    3    3    0    0 -0.57869123977E+01  0.13668175598E+02 -0.13766312416E+02  0.20243980268E+02  0.51100000000E-03 0.  1.
        -12    1    3    3    0    0 -0.20536309671E+02 -0.62216061894E+01  0.30580934704E+02  0.37358291796E+02  0.00000000000E+00 0.  1.
</event>
<event>
 7    1  0.1971192E-015  0.9000782E+02  0.7816164E-02  0.1186339E+00
        -11   -1    0    0    0    0  0.00000000000E+00  0.00000000000E+00  0.45593999997E+02  0.45594000000E+02  0.51100000000E-03 0.  1.
         11   -1    0    0    0    0 -0.00000000000E+00 -0.00000000000E+00 -0.45593999997E+02  0.45594000000E+02  0.51100000000E-03 0. -1.
    9900012    2    1    2    0    0 -0.20282174484E+00 -0.26250039406E-01  0.11623280840E+01  0.90007816836E+02  0.90000079219E+02 0.  0.
         12    1    1    2    0    0  0.20282174484E+00  0.26250039406E-01 -0.11623280840E+01  0.11801831636E+01  0.00000000000E+00 0. -1.
         11    1    3    3    0    0 -0.12835474550E+02  0.16357039376E+02 -0.29903199546E+02  0.36421195579E+02  0.51100000000E-03 0. -1.
        -11    1    3    3    0    0 -0.56618005245E+01  0.41921213136E+01 -0.46869525630E+01  0.84615241462E+01  0.51100000000E-03 0.  1.
        -12    1    3    3    0    0  0.18294453330E+02 -0.20575410729E+02  0.35752480193E+02  0.45125097111E+02  0.00000000000E+00 0.  1.
</event>
<event>
 7    1  0.1971192E-015  0.9000775E+02  0.7816164E-02  0.1186339E+00
        -11   -1    0    0    0    0  0.00000000000E+00  0.00000000000E+00  0.45593999997E+02  0.45594000000E+02  0.51100000000E-03 0. -1.
         11   -1    0    0    0    0 -0.00000000000E+00 -0.00000000000E+00 -0.45593999997E+02  0.45594000000E+02  0.51100000000E-03 0.  1.
    9900012    2    1    2    0    0 -0.94579217872E+00 -0.63266283783E+00 -0.31336339525E+00  0.90007753530E+02  0.90000015077E+02 0.  0.
         12    1    1    2    0    0  0.94579217872E+00  0.63266283783E+00  0.31336339525E+00  0.11802464697E+01  0.00000000000E+00 0. -1.
         11    1    3    3    0    0 -0.29846903043E+02  0.26018375901E+02 -0.16090727148E+02  0.42739969656E+02  0.51100000000E-03 0. -1.
        -11    1    3    3    0    0  0.64762685492E+01  0.18953547192E+01  0.73958508344E+01  0.10011644903E+02  0.51100000000E-03 0.  1.
        -12    1    3    3    0    0  0.22424842315E+02 -0.28546393458E+02  0.83815129187E+01  0.37256138972E+02  0.00000000000E+00 0.  1.
</event>
<event>
 7    1  0.1971192E-015  0.9000775E+02  0.7816164E-02  0.1186339E+00
        -11   -1    0    0    0    0  0.00000000000E+00  0.00000000000E+00  0.45593999997E+02  0.45594000000E+02  0.51100000000E-03 0.  1.
         11   -1    0    0    0    0 -0.00000000000E+00 -0.00000000000E+00 -0.45593999997E+02  0.45594000000E+02  0.51100000000E-03 0. -1.
    9900012    2    1    2    0    0  0.11623649785E+01  0.16169148245E-02  0.20465683303E+00  0.90007754527E+02  0.90000016087E+02 0.  0.
         12    1    1    2    0    0 -0.11623649785E+01 -0.16169148245E-02 -0.20465683303E+00  0.11802454732E+01  0.00000000000E+00 0. -1.
         11    1    3    3    0    0 -0.21139006235E+02 -0.34974251537E+02 -0.65062625769E+01  0.41381001779E+02  0.51100000000E-03 0. -1.
        -11    1    3    3    0    0  0.86712803493E+01  0.58992400580E+01  0.12156758241E+02  0.16055494616E+02  0.51100000000E-03 0.  1.
        -12    1    3    3    0    0  0.13630090864E+02  0.29076628394E+02 -0.54458388315E+01  0.32571258132E+02  0.00000000000E+00 0.  1.
</event>
<event>
 7    1  0.1971192E-015  0.9000778E+02  0.7816164E-02  0.1186339E+00
        -11   -1    0    0    0    0  0.00000000000E+00  0.00000000000E+00  0.45593999997E+02  0.45594000000E+02  0.51100000000E-03 0. -1.
         11   -1    0    0    0    0 -0.00000000000E+00 -0.00000000000E+00 -0.45593999997E+02  0.45594000000E+02  0.51100000000E-03 0.  1.
    9900012    2    1    2    0    0  0.88630487978E+00 -0.41715267544E+00 -0.65831160568E+00  0.90007776773E+02  0.90000038627E+02 0.  0.
         12    1    1    2    0    0 -0.88630487978E+00  0.41715267544E+00  0.65831160568E+00  0.11802232266E+01  0.00000000000E+00 0. -1.
         11    1    3    3    0    0 -0.18752000144E+02  0.31178012091E+02  0.62187066218E+01  0.36910408554E+02  0.51100000000E-03 0. -1.
        -11    1    3    3    0    0  0.26197412640E+01  0.82246172438E+01  0.20749133970E+01  0.88776482789E+01  0.51100000000E-03 0.  1.
        -12    1    3    3    0    0  0.17018563760E+02 -0.39819782010E+02 -0.89519316246E+01  0.44219719940E+02  0.00000000000E+00 0.  1.
</event>
<event>
 7    1  0.1971192E-015  0.9000778E+02  0.7816164E-02  0.1186339E+00
        -11   -1    0    0    0    0  0.00000000000E+00  0.00000000000E+00  0.45593999997E+02  0.45594000000E+02  0.51100000000E-03 0. -1.
         11   -1    0    0    0    0 -0.00000000000E+00 -0.00000000000E+00 -0.45593999997E+02  0.45594000000E+02  0.51100000000E-03 0.  1.
    9900012    2    1    2    0    0  0.86040013882E+00 -0.77521166282E+00  0.22735042996E+00  0.90007775556E+02  0.90000037393E+02 0.  0.
         12    1    1    2    0    0 -0.86040013882E+00  0.77521166282E+00 -0.22735042996E+00  0.11802244444E+01  0.00000000000E+00 0. -1.
         11    1    3    3    0    0 -0.42212931235E+01  0.64224078962E+01 -0.49560686370E+01  0.91449032481E+01  0.51100000000E-03 0. -1.
        -11    1    3    3    0    0 -0.77702182895E+01  0.19606894642E+02 -0.28810411974E+02  0.35704991922E+02  0.51100000000E-03 0.  1.
         12    1    3    3    0    0  0.12851911552E+02 -0.26804514201E+02  0.33993831041E+02  0.45157880386E+02  0.00000000000E+00 0. -1.
</event>
<event>
 7    1  0.1971192E-015  0.9000772E+02  0.7816164E-02  0.1186339E+00
        -11   -1    0    0    0    0  0.00000000000E+00  0.00000000000E+00  0.45593999997E+02  0.45594000000E+02  0.51100000000E-03 0.  1.
         11   -1    0    0    0    0 -0.00000000000E+00 -0.00000000000E+00 -0.45593999997E+02  0.45594000000E+02  0.51100000000E-03 0. -1.
    9900012    2    1    2    0    0  0.10150246981E+01 -0.34297104347E+00  0.49512632691E+00  0.90007722764E+02  0.89999983904E+02 0.  0.
         12    1    1    2    0    0 -0.10150246981E+01  0.34297104347E+00 -0.49512632691E+00  0.11802772361E+01  0.00000000000E+00 0. -1.
         11    1    3    3    0    0 -0.30910485415E+02  0.96907704373E+01 -0.35305554606E+01  0.32585793874E+02  0.51100000000E-03 0. -1.
        -11    1    3    3    0    0 -0.11604295809E+02 -0.67701794414E+00 -0.37709213568E+01  0.12220387992E+02  0.51100000000E-03 0.  1.
        -12    1    3    3    0    0  0.43529805923E+02 -0.93567235367E+01  0.77966031443E+01  0.45201540898E+02  0.00000000000E+00 0.  1.
</event>
<event>
 7    1  0.1971192E-015  0.9000778E+02  0.7816164E-02  0.1186339E+00
        -11   -1    0    0    0    0  0.00000000000E+00  0.00000000000E+00  0.45593999997E+02  0.45594000000E+02  0.51100000000E-03 0.  1.
         11   -1    0    0    0    0 -0.00000000000E+00 -0.00000000000E+00 -0.45593999997E+02  0.45594000000E+02  0.51100000000E-03 0. -1.
    9900012    2    1    2    0    0 -0.15261830390E+00  0.78249063290E+00  0.87024451152E+00  0.90007784152E+02  0.90000046103E+02 0.  0.
         12    1    1    2    0    0  0.15261830390E+00 -0.78249063290E+00 -0.87024451152E+00  0.11802158477E+01  0.00000000000E+00 0. -1.
         11    1    3    3    0    0 -0.71071746084E+01  0.43220015014E+01  0.64815886313E+01  0.10545265257E+02  0.51100000000E-03 0. -1.
        -11    1    3    3    0    0  0.32044558710E+02  0.24094639508E+02 -0.11422491299E+02  0.41687872381E+02  0.51100000000E-03 0.  1.
         12    1    3    3    0    0 -0.25090002405E+02 -0.27634150377E+02  0.58111471797E+01  0.37774646514E+02  0.00000000000E+00 0. -1.
</event>
<event>
 7    1  0.1971192E-015  0.9000773E+02  0.7816164E-02  0.1186339E+00
        -11   -1    0    0    0    0  0.00000000000E+00  0.00000000000E+00  0.45593999997E+02  0.45594000000E+02  0.51100000000E-03 0. -1.
         11   -1    0    0    0    0 -0.00000000000E+00 -0.00000000000E+00 -0.45593999997E+02  0.45594000000E+02  0.51100000000E-03 0.  1.
    9900012    2    1    2    0    0 -0.99941326956E+00  0.52850615216E+00 -0.33894404996E+00  0.90007733630E+02  0.89999994913E+02 0.  0.
         12    1    1    2    0    0  0.99941326956E+00 -0.52850615216E+00  0.33894404996E+00  0.11802663705E+01  0.00000000000E+00 0. -1.
         11    1    3    3    0    0  0.84051564317E+01  0.32562239528E+01  0.43644600799E+01  0.10014896960E+02  0.51100000000E-03 0. -1.
        -11    1    3    3    0    0  0.23617884766E+01 -0.38364385349E+02 -0.14705294026E+02  0.41153976487E+02  0.51100000000E-03 0.  1.
         12    1    3    3    0    0 -0.11766358178E+02  0.35636667549E+02  0.10001889896E+02  0.38838860182E+02  0.00000000000E+00 0. -1.
</event>
<event>
 7    1  0.1971192E-015  0.9000817E+02  0.7816164E-02  0.1186338E+00
        -11   -1    0    0    0    0  0.00000000000E+00  0.00000000000E+00  0.45593999997E+02  0.45594000000E+02  0.51100000000E-03 0.  1.
         11   -1    0    0    0    0 -0.00000000000E+00 -0.00000000000E+00 -0.45593999997E+02  0.45594000000E+02  0.51100000000E-03 0. -1.
    9900012    2    1    2    0    0 -0.15640802066E+00 -0.97949182543E+00 -0.63885389685E+00  0.90008168653E+02  0.90000435679E+02 0.  0.
         12    1    1    2    0    0  0.15640802066E+00  0.97949182543E+00  0.63885389685E+00  0.11798313466E+01  0.00000000000E+00 0. -1.
         11    1    3    3    0    0  0.73319803381E+01 -0.76971487624E+01  0.26474593910E+01  0.10955047980E+02  0.51100000000E-03 0. -1.
        -11    1    3    3    0    0  0.16888668934E+02 -0.28759247203E+02  0.85122804191E+01  0.34420638522E+02  0.51100000000E-03 0.  1.
         12    1    3    3    0    0 -0.24377057293E+02  0.35476904140E+02 -0.11798593707E+02  0.44632482152E+02  0.00000000000E+00 0. -1.
</event>
<event>
 7    1  0.1971192E-015  0.9000801E+02  0.7816164E-02  0.1186339E+00
        -11   -1    0    0    0    0  0.00000000000E+00  0.00000000000E+00  0.45593999997E+02  0.45594000000E+02  0.51100000000E-03 0.  1.
         11   -1    0    0    0    0 -0.00000000000E+00 -0.00000000000E+00 -0.45593999997E+02  0.45594000000E+02  0.51100000000E-03 0. -1.
    9900012    2    1    2    0    0 -0.10322307444E+01  0.56687048459E+00  0.74356074627E-01  0.90008012169E+02  0.90000277129E+02 0.  0.
         12    1    1    2    0    0  0.10322307444E+01 -0.56687048459E+00 -0.74356074627E-01  0.11799878312E+01  0.00000000000E+00 0. -1.
         11    1    3    3    0    0 -0.53976414803E+01  0.28846352899E+02 -0.14235374446E+02  0.32617364931E+02  0.51100000000E-03 0. -1.
        -11    1    3    3    0    0  0.93564249193E+01  0.10337060429E+02 -0.37946449757E+01  0.14449804024E+02  0.51100000000E-03 0.  1.
        -12    1    3    3    0    0 -0.49910141834E+01 -0.38616542844E+02  0.18104375497E+02  0.42940843214E+02  0.00000000000E+00 0.  1.
</event>
<event>
 7    1  0.1971192E-015  0.9000774E+02  0.7816164E-02  0.1186339E+00
        -11   -1    0    0    0    0  0.00000000000E+00  0.00000000000E+00  0.45593999997E+02  0.45594000000E+02  0.51100000000E-03 0. -1.
         11   -1    0    0    0    0 -0.00000000000E+00 -0.00000000000E+00 -0.45593999997E+02  0.45594000000E+02  0.51100000000E-03 0.  1.
    9900012    2    1    2    0    0  0.97537665969E+00  0.55343031426E+00 -0.36792702853E+00  0.90007739419E+02  0.90000000779E+02 0.  0.
         12    1    1    2    0    0 -0.97537665969E+00 -0.55343031426E+00  0.36792702853E+00  0.11802605811E+01  0.00000000000E+00 0. -1.
         11    1    3    3    0    0 -0.11119427655E+01 -0.77683667907E+01 -0.42460630346E+01  0.89226112133E+01  0.51100000000E-03 0. -1.
        -11    1    3    3    0    0 -0.19658701111E+02 -0.28448013634E+02 -0.10289576531E+02  0.36078101316E+02  0.51100000000E-03 0.  1.
         12    1    3    3    0    0  0.21746020537E+02  0.36769810739E+02  0.14167712537E+02  0.45007026890E+02  0.00000000000E+00 0. -1.
</event>
<event>
 7    1  0.1971192E-015  0.9000777E+02  0.7816164E-02  0.1186339E+00
        -11   -1    0    0    0    0  0.00000000000E+00  0.00000000000E+00  0.45593999997E+02  0.45594000000E+02  0.51100000000E-03 0. -1.
         11   -1    0    0    0    0 -0.00000000000E+00 -0.00000000000E+00 -0.45593999997E+02  0.45594000000E+02  0.51100000000E-03 0.  1.
    9900012    2    1    2    0    0  0.10726866746E+01 -0.43916898012E+00 -0.22227547867E+00  0.90007774393E+02  0.90000036215E+02 0.  0.
         12    1    1    2    0    0 -0.10726866746E+01  0.43916898012E+00  0.22227547867E+00  0.11802256069E+01  0.00000000000E+00 0. -1.
         11    1    3    3    0    0 -0.75471754405E-01 -0.94501678843E+01 -0.18715298363E+01  0.96340019315E+01  0.51100000000E-03 0. -1.
        -11    1    3    3    0    0  0.10704968897E+01 -0.33615016957E+02 -0.11854070775E+02  0.35659982092E+02  0.51100000000E-03 0.  1.
         12    1    3    3    0    0  0.77661539213E-01  0.42626015861E+02  0.13503325133E+02  0.44713790369E+02  0.00000000000E+00 0. -1.
</event>
<event>
 7    1  0.1971192E-015  0.9000776E+02  0.7816164E-02  0.1186339E+00
        -11   -1    0    0    0    0  0.00000000000E+00  0.00000000000E+00  0.45593999997E+02  0.45594000000E+02  0.51100000000E-03 0.  1.
         11   -1    0    0    0    0 -0.00000000000E+00 -0.00000000000E+00 -0.45593999997E+02  0.45594000000E+02  0.51100000000E-03 0. -1.
    9900012    2    1    2    0    0  0.75809545717E+00  0.26587758078E+00  0.86461451289E+00  0.90007763640E+02  0.90000025320E+02 0.  0.
         12    1    1    2    0    0 -0.75809545717E+00 -0.26587758078E+00 -0.86461451289E+00  0.11802363602E+01  0.00000000000E+00 0. -1.
         11    1    3    3    0    0 -0.10498724775E+02  0.31233862843E+02  0.22161164641E+02  0.39710132567E+02  0.51100000000E-03 0. -1.
        -11    1    3    3    0    0 -0.52339604428E+01  0.36724250889E+01 -0.66674424978E+01  0.92377398574E+01  0.51100000000E-03 0.  1.
        -12    1    3    3    0    0  0.16490780675E+02 -0.34640410351E+02 -0.14629107631E+02  0.41059891215E+02  0.00000000000E+00 0.  1.
</event>
<event>
 7    1  0.1971192E-015  0.9000761E+02  0.7816164E-02  0.1186339E+00
        -11   -1    0    0    0    0  0.00000000000E+00  0.00000000000E+00  0.45593999997E+02  0.45594000000E+02  0.51100000000E-03 0. -1.
         11   -1    0    0    0    0 -0.00000000000E+00 -0.00000000000E+00 -0.45593999997E+02  0.45594000000E+02  0.51100000000E-03 0.  1.
    9900012    2    1    2    0    0 -0.80890293821E+00 -0.41381515458E+00 -0.75349587238E+00  0.90007608974E+02  0.89999868612E+02 0.  0.
         12    1    1    2    0    0  0.80890293821E+00  0.41381515458E+00  0.75349587238E+00  0.11803910264E+01  0.00000000000E+00 0. -1.
         11    1    3    3    0    0  0.99713409018E+01 -0.35421557493E+02 -0.12554825791E+02  0.38881075416E+02  0.51100000000E-03 0. -1.
        -11    1    3    3    0    0 -0.10887261997E+00 -0.50437721614E+01  0.80607259623E+01  0.95093004035E+01  0.51100000000E-03 0.  1.
        -12    1    3    3    0    0 -0.10671371220E+02  0.40051514500E+02  0.37406039565E+01  0.41617233154E+02  0.00000000000E+00 0.  1.
</event>
<event>
 7    1  0.1971192E-015  0.9000775E+02  0.7816164E-02  0.1186339E+00
        -11   -1    0    0    0    0  0.00000000000E+00  0.00000000000E+00  0.45593999997E+02  0.45594000000E+02  0.51100000000E-03 0. -1.
         11   -1    0    0    0    0 -0.00000000000E+00 -0.00000000000E+00 -0.45593999997E+02  0.45594000000E+02  0.51100000000E-03 0.  1.
    9900012    2    1    2    0    0  0.61876735888E+00  0.86682257144E+00  0.50866674813E+00  0.90007747368E+02  0.90000008833E+02 0.  0.
         12    1    1    2    0    0 -0.61876735888E+00 -0.86682257144E+00 -0.50866674813E+00  0.11802526320E+01  0.00000000000E+00 0. -1.
         11    1    3    3    0    0 -0.78372504447E+01 -0.50147846609E+01  0.22903016712E+01  0.95820687607E+01  0.51100000000E-03 0. -1.
        -11    1    3    3    0    0 -0.23535062335E+02  0.52198027832E+01 -0.29496085672E+02  0.38094154020E+02  0.51100000000E-03 0.  1.
         12    1    3    3    0    0  0.31991080139E+02  0.66180444922E+00  0.27714450749E+02  0.42331524588E+02  0.00000000000E+00 0. -1.
</event>
<event>
 7    1  0.1971192E-015  0.9000782E+02  0.7816164E-02  0.1186339E+00
        -11   -1    0    0    0    0  0.00000000000E+00  0.00000000000E+00  0.45593999997E+02  0.45594000000E+02  0.51100000000E-03 0.  1.
         11   -1    0    0    0    0 -0.00000000000E+00 -0.00000000000E+00 -0.45593999997E+02  0.45594000000E+02  0.51100000000E-03 0. -1.
    9900012    2    1    2    0    0 -0.10860176329E+01  0.38406495334E+00  0.25669808171E+00  0.90007816077E+02  0.90000078449E+02 0.  0.
         12    1    1    2    0    0  0.10860176329E+01 -0.38406495334E+00 -0.25669808171E+00  0.11801839232E+01  0.00000000000E+00 0. -1.
         11    1    3    3    0    0  0.65130752137E+01  0.22229698874E+02  0.10530491735E+02  0.25445449833E+02  0.51100000000E-03 0. -1.
        -11    1    3    3    0    0  0.19799119556E+02 -0.12771251116E+02  0.13513663320E+02  0.27161168731E+02  0.51100000000E-03 0.  1.
         12    1    3    3    0    0 -0.27398212403E+02 -0.90743828053E+01 -0.23787456973E+02  0.37401197513E+02  0.00000000000E+00 0. -1.
</event>
<event>
 7    1  0.1971192E-015  0.9000776E+02  0.7816164E-02  0.1186339E+00
        -11   -1    0    0    0    0  0.00000000000E+00  0.00000000000E+00  0.45593999997E+02  0.45594000000E+02  0.51100000000E-03 0. -1.
         11   -1    0    0    0    0 -0.00000000000E+00 -0.00000000000E+00 -0.45593999997E+02  0.45594000000E+02  0.51100000000E-03 0.  1.
    9900012    2    1    2    0    0  0.10038909532E+01  0.60308011845E+00 -0.14650663745E+00  0.90007759825E+02  0.90000021455E+02 0.  0.
         12    1    1    2    0    0 -0.10038909532E+01 -0.60308011845E+00  0.14650663745E+00  0.11802401747E+01  0.00000000000E+00 0. -1.
         11    1    3    3    0    0 -0.30743344235E+02 -0.86692945763E+01  0.13288972732E+02  0.34596339109E+02  0.51100000000E-03 0. -1.
        -11    1    3    3    0    0 -0.99359930610E+01 -0.27755873230E+01 -0.16277132699E+01  0.10444007557E+02  0.51100000000E-03 0.  1.
        -12    1    3    3    0    0  0.41683228249E+02  0.12047962018E+02 -0.11807766100E+02  0.44967413160E+02  0.00000000000E+00 0.  1.
</event>
<event>
 7    1  0.1971192E-015  0.9000776E+02  0.7816164E-02  0.1186339E+00
        -11   -1    0    0    0    0  0.00000000000E+00  0.00000000000E+00  0.45593999997E+02  0.45594000000E+02  0.51100000000E-03 0. -1.
         11   -1    0    0    0    0 -0.00000000000E+00 -0.00000000000E+00 -0.45593999997E+02  0.45594000000E+02  0.51100000000E-03 0.  1.
    9900012    2    1    2    0    0 -0.10369485908E+01  0.41236678113E+00 -0.38426742860E+00  0.90007758415E+02  0.90000020026E+02 0.  0.
         12    1    1    2    0    0  0.10369485908E+01 -0.41236678113E+00  0.38426742860E+00  0.11802415850E+01  0.00000000000E+00 0. -1.
         11    1    3    3    0    0 -0.51164225980E+01 -0.12436073608E+02  0.11483728002E+01  0.13496387196E+02  0.51100000000E-03 0. -1.
        -11    1    3    3    0    0 -0.20295283529E+02 -0.15948475683E+02 -0.21708969878E+02  0.33727315096E+02  0.51100000000E-03 0.  1.
         12    1    3    3    0    0  0.24374757536E+02  0.28796916073E+02  0.20176329649E+02  0.42784056123E+02  0.00000000000E+00 0. -1.
</event>
<event>
 7    1  0.1971192E-015  0.9000773E+02  0.7816164E-02  0.1186339E+00
        -11   -1    0    0    0    0  0.00000000000E+00  0.00000000000E+00  0.45593999997E+02  0.45594000000E+02  0.51100000000E-03 0.  1.
         11   -1    0    0    0    0 -0.00000000000E+00 -0.00000000000E+00 -0.45593999997E+02  0.45594000000E+02  0.51100000000E-03 0. -1.
    9900012    2    1    2    0    0 -0.46650501315E-01 -0.11788207380E+01 -0.35269589158E-01  0.90007729461E+02  0.89999990690E+02 0.  0.
         12    1    1    2    0    0  0.46650501315E-01  0.11788207380E+01  0.35269589158E-01  0.11802705391E+01  0.00000000000E+00 0. -1.
         11    1    3    3    0    0 -0.21782685337E+02 -0.31448286138E+02  0.35544941618E+01  0.38420235691E+02  0.51100000000E-03 0. -1.
        -11    1    3    3    0    0 -0.70829055833E+01 -0.74234768237E+00 -0.58146196047E+01  0.91939345763E+01  0.51100000000E-03 0.  1.
        -12    1    3    3    0    0  0.28818940419E+02  0.31011813083E+02  0.22248558537E+01  0.42393559194E+02  0.00000000000E+00 0.  1.
</event>
<event>
 7    1  0.1971192E-015  0.9000779E+02  0.7816164E-02  0.1186339E+00
        -11   -1    0    0    0    0  0.00000000000E+00  0.00000000000E+00  0.45593999997E+02  0.45594000000E+02  0.51100000000E-03 0. -1.
         11   -1    0    0    0    0 -0.00000000000E+00 -0.00000000000E+00 -0.45593999997E+02  0.45594000000E+02  0.51100000000E-03 0.  1.
    9900012    2    1    2    0    0 -0.24320432494E+00 -0.11527564822E+01  0.69990544177E-01  0.90007790473E+02  0.90000052507E+02 0.  0.
         12    1    1    2    0    0  0.24320432494E+00  0.11527564822E+01 -0.69990544177E-01  0.11802095268E+01  0.00000000000E+00 0. -1.
         11    1    3    3    0    0  0.38858970013E+01 -0.93439068451E+01  0.16433708536E+01  0.10252290410E+02  0.51100000000E-03 0. -1.
        -11    1    3    3    0    0  0.13368224781E+02 -0.31781131980E+02 -0.86610445478E+01  0.35549451144E+02  0.51100000000E-03 0.  1.
         12    1    3    3    0    0 -0.17497326108E+02  0.39972282343E+02  0.70876642384E+01  0.44206048919E+02  0.00000000000E+00 0. -1.
</event>
<event>
 7    1  0.1971192E-015  0.9000776E+02  0.7816164E-02  0.1186339E+00
        -11   -1    0    0    0    0  0.00000000000E+00  0.00000000000E+00  0.45593999997E+02  0.45594000000E+02  0.51100000000E-03 0.  1.
         11   -1    0    0    0    0 -0.00000000000E+00 -0.00000000000E+00 -0.45593999997E+02  0.45594000000E+02  0.51100000000E-03 0. -1.
    9900012    2    1    2    0    0  0.27123862615E+00 -0.87369061193E+00  0.74569252117E+00  0.90007761459E+02  0.90000023110E+02 0.  0.
         12    1    1    2    0    0 -0.27123862615E+00  0.87369061193E+00 -0.74569252117E+00  0.11802385411E+01  0.00000000000E+00 0. -1.
         11    1    3    3    0    0  0.39666622279E+01  0.89860688326E+01  0.75822080997E+01  0.12408614839E+02  0.51100000000E-03 0. -1.
        -11    1    3    3    0    0  0.20361252962E+02  0.26653344083E+02 -0.40579363706E+01  0.33785325525E+02  0.51100000000E-03 0.  1.
         12    1    3    3    0    0 -0.24056676563E+02 -0.36513103528E+02 -0.27785792079E+01  0.43813821095E+02  0.00000000000E+00 0. -1.
</event>
<event>
 7    1  0.1971192E-015  0.9000786E+02  0.7816164E-02  0.1186339E+00
        -11   -1    0    0    0    0  0.00000000000E+00  0.00000000000E+00  0.45593999997E+02  0.45594000000E+02  0.51100000000E-03 0.  1.
         11   -1    0    0    0    0 -0.00000000000E+00 -0.00000000000E+00 -0.45593999997E+02  0.45594000000E+02  0.51100000000E-03 0. -1.
    9900012    2    1    2    0    0 -0.10805460044E+01 -0.35302666918E+00 -0.31706985717E+00  0.90007855606E+02  0.90000118500E+02 0.  0.
         12    1    1    2    0    0  0.10805460044E+01  0.35302666918E+00  0.31706985717E+00  0.11801443942E+01  0.00000000000E+00 0. -1.
         11    1    3    3    0    0 -0.19985121225E+02 -0.17331646534E+02 -0.23052104230E+02  0.35088325005E+02  0.51100000000E-03 0. -1.
        -11    1    3    3    0    0 -0.10570334729E+02 -0.23505501704E+01 -0.30471313825E+01  0.11249092066E+02  0.51100000000E-03 0.  1.
        -12    1    3    3    0    0  0.29474909950E+02  0.19329170035E+02  0.25782165755E+02  0.43670438535E+02  0.00000000000E+00 0.  1.
</event>
<event>
 7    1  0.1971192E-015  0.9000792E+02  0.7816164E-02  0.1186339E+00
        -11   -1    0    0    0    0  0.00000000000E+00  0.00000000000E+00  0.45593999997E+02  0.45594000000E+02  0.51100000000E-03 0.  1.
         11   -1    0    0    0    0 -0.00000000000E+00 -0.00000000000E+00 -0.45593999997E+02  0.45594000000E+02  0.51100000000E-03 0. -1.
    9900012    2    1    2    0    0  0.17213826316E+00  0.11570089414E+01 -0.15585788806E+00  0.90007918243E+02  0.90000181964E+02 0.  0.
         12    1    1    2    0    0 -0.17213826316E+00 -0.11570089414E+01  0.15585788806E+00  0.11800817570E+01  0.00000000000E+00 0. -1.
         11    1    3    3    0    0  0.88806026917E+01 -0.55069332961E+01 -0.19473342381E+01  0.10629371072E+02  0.51100000000E-03 0. -1.
        -11    1    3    3    0    0  0.28472295362E+02  0.23338591602E+02 -0.75297634906E+01  0.37577370845E+02  0.51100000000E-03 0.  1.
         12    1    3    3    0    0 -0.37180759791E+02 -0.16674649364E+02  0.93212398406E+01  0.41801176326E+02  0.00000000000E+00 0. -1.
</event>
<event>
 7    1  0.1971192E-015  0.9000786E+02  0.7816164E-02  0.1186339E+00
        -11   -1    0    0    0    0  0.00000000000E+00  0.00000000000E+00  0.45593999997E+02  0.45594000000E+02  0.51100000000E-03 0.  1.
         11   -1    0    0    0    0 -0.00000000000E+00 -0.00000000000E+00 -0.45593999997E+02  0.45594000000E+02  0.51100000000E-03 0. -1.
    9900012    2    1    2    0    0  0.86660881159E+00  0.71645617884E+00  0.35835980630E+00  0.90007855077E+02  0.90000117964E+02 0.  0.
         12    1    1    2    0    0 -0.86660881159E+00 -0.71645617884E+00 -0.35835980630E+00  0.11801449230E+01  0.00000000000E+00 0. -1.
         11    1    3    3    0    0 -0.65147132797E+01  0.25476983268E+01  0.70338850555E+01  0.99200703181E+01  0.51100000000E-03 0. -1.
        -11    1    3    3    0    0  0.19506144365E+02  0.94750916531E+00  0.33089439351E+02  0.38422629249E+02  0.51100000000E-03 0.  1.
         12    1    3    3    0    0 -0.12124822274E+02 -0.27787513133E+01 -0.39764964600E+02  0.41665155510E+02  0.00000000000E+00 0. -1.
</event>
<event>
 7    1  0.1971192E-015  0.9000780E+02  0.7816164E-02  0.1186339E+00
        -11   -1    0    0    0    0  0.00000000000E+00  0.00000000000E+00  0.45593999997E+02  0.45594000000E+02  0.51100000000E-03 0.  1.
         11   -1    0    0    0    0 -0.00000000000E+00 -0.00000000000E+00 -0.45593999997E+02  0.45594000000E+02  0.51100000000E-03 0. -1.
    9900012    2    1    2    0    0 -0.11390471950E+01 -0.15213492179E+00  0.26890255737E+00  0.90007795724E+02  0.90000057828E+02 0.  0.
         12    1    1    2    0    0  0.11390471950E+01  0.15213492179E+00 -0.26890255737E+00  0.11802042756E+01  0.00000000000E+00 0. -1.
         11    1    3    3    0    0 -0.15756105117E+02  0.31427589980E+02 -0.27133896385E+02  0.44409420101E+02  0.51100000000E-03 0. -1.
        -11    1    3    3    0    0  0.49766534996E+00 -0.81183142178E+01  0.23043116952E+01  0.84536707523E+01  0.51100000000E-03 0.  1.
        -12    1    3    3    0    0  0.14119392572E+02 -0.23461410684E+02  0.25098487247E+02  0.37144704871E+02  0.00000000000E+00 0.  1.
</event>
<event>
 7    1  0.1971192E-015  0.9000763E+02  0.7816164E-02  0.1186339E+00
        -11   -1    0    0    0    0  0.00000000000E+00  0.00000000000E+00  0.45593999997E+02  0.45594000000E+02  0.51100000000E-03 0. -1.
         11   -1    0    0    0    0 -0.00000000000E+00 -0.00000000000E+00 -0.45593999997E+02  0.45594000000E+02  0.51100000000E-03 0.  1.
    9900012    2    1    2    0    0 -0.52915348059E+00 -0.10491473365E+01  0.11202106239E+00  0.90007634693E+02  0.89999894671E+02 0.  0.
         12    1    1    2    0    0  0.52915348059E+00  0.10491473365E+01 -0.11202106239E+00  0.11803653070E+01  0.00000000000E+00 0. -1.
         11    1    3    3    0    0  0.15904678422E+01 -0.72245151147E+01  0.64189327449E+01  0.97941770682E+01  0.51100000000E-03 0. -1.
        -11    1    3    3    0    0 -0.16583139689E+02  0.29699371679E+01  0.33631959418E+02  0.37615551881E+02  0.51100000000E-03 0.  1.
         12    1    3    3    0    0  0.14463518366E+02  0.32054306103E+01 -0.39938871101E+02  0.42597905744E+02  0.00000000000E+00 0. -1.
</event>
<event>
 7    1  0.1971192E-015  0.9000778E+02  0.7816164E-02  0.1186339E+00
        -11   -1    0    0    0    0  0.00000000000E+00  0.00000000000E+00  0.45593999997E+02  0.45594000000E+02  0.51100000000E-03 0. -1.
         11   -1    0    0    0    0 -0.00000000000E+00 -0.00000000000E+00 -0.45593999997E+02  0.45594000000E+02  0.51100000000E-03 0.  1.
    9900012    2    1    2    0    0  0.73302564610E+00  0.91000558735E+00 -0.16577940030E+00  0.90007779861E+02  0.90000041755E+02 0.  0.
         12    1    1    2    0    0 -0.73302564610E+00 -0.91000558735E+00  0.16577940030E+00  0.11802201390E+01  0.00000000000E+00 0. -1.
         11    1    3    3    0    0  0.34260915980E+02  0.14122384810E+02  0.14442337360E+02  0.39772267036E+02  0.51100000000E-03 0. -1.
        -11    1    3    3    0    0  0.10087566670E+01  0.68762445101E+01 -0.63983037665E+01  0.94466194972E+01  0.51100000000E-03 0.  1.
        -12    1    3    3    0    0 -0.34536647001E+02 -0.20088623733E+02 -0.82098129939E+01  0.40788893328E+02  0.00000000000E+00 0.  1.
</event>
<event>
 7    1  0.1971192E-015  0.9000773E+02  0.7816164E-02  0.1186339E+00
        -11   -1    0    0    0    0  0.00000000000E+00  0.00000000000E+00  0.45593999997E+02  0.45594000000E+02  0.51100000000E-03 0.  1.
         11   -1    0    0    0    0 -0.00000000000E+00 -0.00000000000E+00 -0.45593999997E+02  0.45594000000E+02  0.51100000000E-03 0. -1.
    9900012    2    1    2    0    0  0.41191849523E+00  0.60146110807E+00  0.92822569408E+00  0.90007730857E+02  0.89999992104E+02 0.  0.
         12    1    1    2    0    0 -0.41191849523E+00 -0.60146110807E+00 -0.92822569408E+00  0.11802691432E+01  0.00000000000E+00 0. -1.
         11    1    3    3    0    0  0.21958115725E+01 -0.30449439044E+01  0.87418917960E+01  0.95138816620E+01  0.51100000000E-03 0. -1.
        -11    1    3    3    0    0  0.27380571616E+02 -0.24800006730E+02 -0.13555882745E+02  0.39350959240E+02  0.51100000000E-03 0.  1.
         12    1    3    3    0    0 -0.29164464694E+02  0.28446411742E+02  0.57422166429E+01  0.41142889955E+02  0.00000000000E+00 0. -1.
</event>
<event>
 7    1  0.1971192E-015  0.9000756E+02  0.7816164E-02  0.1186339E+00
        -11   -1    0    0    0    0  0.00000000000E+00  0.00000000000E+00  0.45593999997E+02  0.45594000000E+02  0.51100000000E-03 0.  1.
         11   -1    0    0    0    0 -0.00000000000E+00 -0.00000000000E+00 -0.45593999997E+02  0.45594000000E+02  0.51100000000E-03 0. -1.
    9900012    2    1    2    0    0  0.89336113802E+00  0.22727333226E+00  0.73735197973E+00  0.90007561424E+02  0.89999820434E+02 0.  0.
         12    1    1    2    0    0 -0.89336113802E+00 -0.22727333226E+00 -0.73735197973E+00  0.11804385763E+01  0.00000000000E+00 0. -1.
         11    1    3    3    0    0  0.89915320909E+01 -0.21331404806E+01 -0.10554629390E+02  0.14028476021E+02  0.51100000000E-03 0. -1.
        -11    1    3    3    0    0 -0.84805773029E+01  0.36701786893E+02 -0.49426542875E+01  0.37991725207E+02  0.51100000000E-03 0.  1.
         12    1    3    3    0    0  0.38240635002E+00 -0.34341373081E+02  0.16234635657E+02  0.37987360195E+02  0.00000000000E+00 0. -1.
</event>
<event>
 7    1  0.1971192E-015  0.9000766E+02  0.7816164E-02  0.1186339E+00
        -11   -1    0    0    0    0  0.00000000000E+00  0.00000000000E+00  0.45593999997E+02  0.45594000000E+02  0.51100000000E-03 0. -1.
         11   -1    0    0    0    0 -0.00000000000E+00 -0.00000000000E+00 -0.45593999997E+02  0.45594000000E+02  0.51100000000E-03 0.  1.
    9900012    2    1    2    0    0 -0.73080533421E+00  0.89424075913E+00 -0.24382275624E+00  0.90007664239E+02  0.89999924607E+02 0.  0.
         12    1    1    2    0    0  0.73080533421E+00 -0.89424075913E+00  0.24382275624E+00  0.11803357608E+01  0.00000000000E+00 0. -1.
         11    1    3    3    0    0 -0.48280635314E+01 -0.74544105798E+01 -0.25824421309E+01  0.92491860278E+01  0.51100000000E-03 0. -1.
        -11    1    3    3    0    0  0.25426844905E+02 -0.28060494464E+02  0.62550962846E+01  0.38380229562E+02  0.51100000000E-03 0.  1.
         12    1    3    3    0    0 -0.21329586708E+02  0.36409145803E+02 -0.39164769100E+01  0.42378248650E+02  0.00000000000E+00 0. -1.
</event>
<event>
 7    1  0.1971192E-015  0.9000776E+02  0.7816164E-02  0.1186339E+00
        -11   -1    0    0    0    0  0.00000000000E+00  0.00000000000E+00  0.45593999997E+02  0.45594000000E+02  0.51100000000E-03 0.  1.
         11   -1    0    0    0    0 -0.00000000000E+00 -0.00000000000E+00 -0.45593999997E+02  0.45594000000E+02  0.51100000000E-03 0. -1.
    9900012    2    1    2    0    0 -0.52513670269E+00  0.10143412878E+01  0.29717609438E+00  0.90007758315E+02  0.90000019924E+02 0.  0.
         12    1    1    2    0    0  0.52513670269E+00 -0.10143412878E+01 -0.29717609438E+00  0.11802416853E+01  0.00000000000E+00 0. -1.
         11    1    3    3    0    0  0.17050043623E+01 -0.48283292211E+01 -0.76553250462E+01  0.92099839721E+01  0.51100000000E-03 0. -1.
        -11    1    3    3    0    0  0.74324639848E+01 -0.25423499924E+02 -0.23499020503E+02  0.35409036052E+02  0.51100000000E-03 0.  1.
         12    1    3    3    0    0 -0.96626050498E+01  0.31266170433E+02  0.31451521644E+02  0.45388738290E+02  0.00000000000E+00 0. -1.
</event>
<event>
 7    1  0.1971192E-015  0.9000753E+02  0.7816164E-02  0.1186339E+00
        -11   -1    0    0    0    0  0.00000000000E+00  0.00000000000E+00  0.45593999997E+02  0.45594000000E+02  0.51100000000E-03 0. -1.
         11   -1    0    0    0    0 -0.00000000000E+00 -0.00000000000E+00 -0.45593999997E+02  0.45594000000E+02  0.51100000000E-03 0.  1.
    9900012    2    1    2    0    0 -0.75435105409E+00  0.83447713107E+00 -0.35793825521E+00  0.90007526625E+02  0.89999785176E+02 0.  0.
         12    1    1    2    0    0  0.75435105409E+00 -0.83447713107E+00  0.35793825521E+00  0.11804733752E+01  0.00000000000E+00 0. -1.
         11    1    3    3    0    0 -0.63339130035E+01 -0.16493576934E+01 -0.67047182707E+01  0.93697429040E+01  0.51100000000E-03 0. -1.
        -11    1    3    3    0    0  0.36480322832E+02 -0.13941027742E+02 -0.12352538371E+02  0.40960363926E+02  0.51100000000E-03 0.  1.
         12    1    3    3    0    0 -0.30900760883E+02  0.16424862567E+02  0.18699318387E+02  0.39677419795E+02  0.00000000000E+00 0. -1.
</event>
<event>
 7    1  0.1971192E-015  0.9000780E+02  0.7816164E-02  0.1186339E+00
        -11   -1    0    0    0    0  0.00000000000E+00  0.00000000000E+00  0.45593999997E+02  0.45594000000E+02  0.51100000000E-03 0.  1.
         11   -1    0    0    0    0 -0.00000000000E+00 -0.00000000000E+00 -0.45593999997E+02  0.45594000000E+02  0.51100000000E-03 0. -1.
    9900012    2    1    2    0    0 -0.86479954874E+00  0.56284554256E-01  0.80113658521E+00  0.90007802542E+02  0.90000064736E+02 0.  0.
         12    1    1    2    0    0  0.86479954874E+00 -0.56284554256E-01 -0.80113658521E+00  0.11801974575E+01  0.00000000000E+00 0. -1.
         11    1    3    3    0    0 -0.30007208514E+02  0.14368862237E+02 -0.15954364199E+02  0.36897676106E+02  0.51100000000E-03 0. -1.
        -11    1    3    3    0    0 -0.74569005981E+01 -0.17578246218E+01 -0.45789872856E+01  0.89253817147E+01  0.51100000000E-03 0.  1.
        -12    1    3    3    0    0  0.36599309563E+02 -0.12554753061E+02  0.21334488070E+02  0.44184744722E+02  0.00000000000E+00 0.  1.
</event>
<event>
 7    1  0.2240413E-015  0.9000774E+02  0.7816164E-02  0.1186339E+00
        -11   -1    0    0    0    0  0.00000000000E+00  0.00000000000E+00  0.45593999997E+02  0.45594000000E+02  0.51100000000E-03 0. -1.
         11   -1    0    0    0    0 -0.00000000000E+00 -0.00000000000E+00 -0.45593999997E+02  0.45594000000E+02  0.51100000000E-03 0.  1.
    9900012    2    1    2    0    0 -0.41785696126E+00 -0.73467675817E+00 -0.82381032838E+00  0.90007738234E+02  0.89999999579E+02 0.  0.
         12    1    1    2    0    0  0.41785696126E+00  0.73467675817E+00  0.82381032838E+00  0.11802617660E+01  0.00000000000E+00 0. -1.
         11    1    3    3    0    0 -0.34202580152E+02  0.77588379348E+01  0.20575772025E+02  0.40661756600E+02  0.51100000000E-03 0. -1.
        -11    1    3    3    0    0  0.47977125723E+01  0.75736431562E+01  0.14618357734E+01  0.90837811881E+01  0.51100000000E-03 0.  1.
        -12    1    3    3    0    0  0.28987010618E+02 -0.16067157849E+02 -0.22861418127E+02  0.40262200445E+02  0.00000000000E+00 0.  1.
</event>
<event>
 7    1  0.1971192E-015  0.9000787E+02  0.7816164E-02  0.1186339E+00
        -11   -1    0    0    0    0  0.00000000000E+00  0.00000000000E+00  0.45593999997E+02  0.45594000000E+02  0.51100000000E-03 0. -1.
         11   -1    0    0    0    0 -0.00000000000E+00 -0.00000000000E+00 -0.45593999997E+02  0.45594000000E+02  0.51100000000E-03 0.  1.
    9900012    2    1    2    0    0  0.85786341850E+00  0.76504597719E+00  0.26737180303E+00  0.90007867519E+02  0.90000130570E+02 0.  0.
         12    1    1    2    0    0 -0.85786341850E+00 -0.76504597719E+00 -0.26737180303E+00  0.11801324811E+01  0.00000000000E+00 0. -1.
         11    1    3    3    0    0 -0.75496356448E+01  0.17749099319E+00  0.35518087728E+02  0.36312023595E+02  0.51100000000E-03 0. -1.
        -11    1    3    3    0    0 -0.37544412874E+01 -0.81309606928E+01  0.53452150759E+01  0.10429749548E+02  0.51100000000E-03 0.  1.
        -12    1    3    3    0    0  0.12161940351E+02  0.87185156768E+01 -0.40595931001E+02  0.43266094376E+02  0.00000000000E+00 0.  1.
</event>
<event>
 7    1  0.1971192E-015  0.9000779E+02  0.7816164E-02  0.1186339E+00
        -11   -1    0    0    0    0  0.00000000000E+00  0.00000000000E+00  0.45593999997E+02  0.45594000000E+02  0.51100000000E-03 0. -1.
         11   -1    0    0    0    0 -0.00000000000E+00 -0.00000000000E+00 -0.45593999997E+02  0.45594000000E+02  0.51100000000E-03 0.  1.
    9900012    2    1    2    0    0  0.35599704316E+00 -0.75306843321E-01 -0.11227157539E+01  0.90007789985E+02  0.90000052013E+02 0.  0.
         12    1    1    2    0    0 -0.35599704316E+00  0.75306843321E-01  0.11227157539E+01  0.11802100150E+01  0.00000000000E+00 0. -1.
         11    1    3    3    0    0 -0.14949101604E+02  0.33626322064E+02 -0.16443373886E+01  0.36836246009E+02  0.51100000000E-03 0. -1.
        -11    1    3    3    0    0 -0.69213005535E+01  0.49853848011E+01  0.64407090658E+00  0.85541387971E+01  0.51100000000E-03 0.  1.
        -12    1    3    3    0    0  0.22226399201E+02 -0.38687013708E+02 -0.12244927193E+00  0.44617405179E+02  0.00000000000E+00 0.  1.
</event>
<event>
 7    1  0.1971192E-015  0.9000805E+02  0.7816164E-02  0.1186338E+00
        -11   -1    0    0    0    0  0.00000000000E+00  0.00000000000E+00  0.45593999997E+02  0.45594000000E+02  0.51100000000E-03 0. -1.
         11   -1    0    0    0    0 -0.00000000000E+00 -0.00000000000E+00 -0.45593999997E+02  0.45594000000E+02  0.51100000000E-03 0.  1.
    9900012    2    1    2    0    0 -0.20131108026E+00 -0.16224580376E+00 -0.11512727621E+01  0.90008051347E+02  0.90000316824E+02 0.  0.
         12    1    1    2    0    0  0.20131108026E+00  0.16224580376E+00  0.11512727621E+01  0.11799486534E+01  0.00000000000E+00 0. -1.
         11    1    3    3    0    0 -0.92843831615E+01 -0.23932483355E+01  0.89860280132E+00  0.96298959257E+01  0.51100000000E-03 0. -1.
        -11    1    3    3    0    0  0.27149963244E+02 -0.31442827948E+02 -0.59455309122E+01  0.41965715430E+02  0.51100000000E-03 0.  1.
         12    1    3    3    0    0 -0.18066891163E+02  0.33673830479E+02  0.38956553488E+01  0.38412439991E+02  0.00000000000E+00 0. -1.
</event>
<event>
 7    1  0.1971192E-015  0.9000808E+02  0.7816164E-02  0.1186338E+00
        -11   -1    0    0    0    0  0.00000000000E+00  0.00000000000E+00  0.45593999997E+02  0.45594000000E+02  0.51100000000E-03 0. -1.
         11   -1    0    0    0    0 -0.00000000000E+00 -0.00000000000E+00 -0.45593999997E+02  0.45594000000E+02  0.51100000000E-03 0.  1.
    9900012    2    1    2    0    0  0.20132122002E+00  0.10210033003E+01 -0.55609592575E+00  0.90008075998E+02  0.90000341800E+02 0.  0.
         12    1    1    2    0    0 -0.20132122002E+00 -0.10210033003E+01  0.55609592575E+00  0.11799240024E+01  0.00000000000E+00 0. -1.
         11    1    3    3    0    0  0.31576142738E+02  0.16467396709E+01 -0.30392923813E+02  0.43857660220E+02  0.51100000000E-03 0. -1.
        -11    1    3    3    0    0 -0.20721151617E+01  0.42394028687E+01  0.11524129399E+01  0.48573916634E+01  0.51100000000E-03 0.  1.
        -12    1    3    3    0    0 -0.29302706356E+02 -0.48651392393E+01  0.28684414948E+02  0.41293024114E+02  0.00000000000E+00 0.  1.
</event>
<event>
 7    1  0.1971192E-015  0.9000770E+02  0.7816164E-02  0.1186339E+00
        -11   -1    0    0    0    0  0.00000000000E+00  0.00000000000E+00  0.45593999997E+02  0.45594000000E+02  0.51100000000E-03 0.  1.
         11   -1    0    0    0    0 -0.00000000000E+00 -0.00000000000E+00 -0.45593999997E+02  0.45594000000E+02  0.51100000000E-03 0. -1.
    9900012    2    1    2    0    0  0.10412965829E+01  0.24316313240E+00  0.49968531924E+00  0.90007698216E+02  0.89999959033E+02 0.  0.
         12    1    1    2    0    0 -0.10412965829E+01 -0.24316313240E+00 -0.49968531924E+00  0.11803017838E+01  0.00000000000E+00 0. -1.
         11    1    3    3    0    0 -0.34469736593E+01 -0.81322982930E+01  0.27430537461E+01  0.92487970596E+01  0.51100000000E-03 0. -1.
        -11    1    3    3    0    0  0.11258206359E+02 -0.19220585790E+02  0.30267777536E+02  0.37580799429E+02  0.51100000000E-03 0.  1.
         12    1    3    3    0    0 -0.67699361170E+01  0.27596047216E+02 -0.32511145962E+02  0.43178101727E+02  0.00000000000E+00 0. -1.
</event>
<event>
 7    1  0.1971192E-015  0.9000761E+02  0.7816164E-02  0.1186339E+00
        -11   -1    0    0    0    0  0.00000000000E+00  0.00000000000E+00  0.45593999997E+02  0.45594000000E+02  0.51100000000E-03 0. -1.
         11   -1    0    0    0    0 -0.00000000000E+00 -0.00000000000E+00 -0.45593999997E+02  0.45594000000E+02  0.51100000000E-03 0.  1.
    9900012    2    1    2    0    0  0.18044251212E+00  0.60481357899E+00 -0.99747601963E+00  0.90007611346E+02  0.89999871015E+02 0.  0.
         12    1    1    2    0    0 -0.18044251212E+00 -0.60481357899E+00  0.99747601963E+00  0.11803886543E+01  0.00000000000E+00 0. -1.
         11    1    3    3    0    0 -0.43764479338E+01  0.32076465104E+02  0.16874294702E+02  0.36507461320E+02  0.51100000000E-03 0. -1.
        -11    1    3    3    0    0  0.10195352930E+02 -0.28850645628E+01  0.89707193939E+01  0.13883177792E+02  0.51100000000E-03 0.  1.
        -12    1    3    3    0    0 -0.56384624845E+01 -0.28586586962E+02 -0.26842490115E+02  0.39616972233E+02  0.00000000000E+00 0.  1.
</event>
<event>
 7    1  0.1971192E-015  0.9000771E+02  0.7816164E-02  0.1186339E+00
        -11   -1    0    0    0    0  0.00000000000E+00  0.00000000000E+00  0.45593999997E+02  0.45594000000E+02  0.51100000000E-03 0.  1.
         11   -1    0    0    0    0 -0.00000000000E+00 -0.00000000000E+00 -0.45593999997E+02  0.45594000000E+02  0.51100000000E-03 0. -1.
    9900012    2    1    2    0    0 -0.10692270591E+01  0.23967318754E+00  0.43861651607E+00  0.90007714361E+02  0.89999975391E+02 0.  0.
         12    1    1    2    0    0  0.10692270591E+01 -0.23967318754E+00 -0.43861651607E+00  0.11802856387E+01  0.00000000000E+00 0. -1.
         11    1    3    3    0    0 -0.77620872330E+01  0.14701736401E+00 -0.51137497012E+01  0.92963459803E+01  0.51100000000E-03 0. -1.
        -11    1    3    3    0    0  0.21524789795E+01  0.26123214671E+02  0.33310930072E+02  0.42387186425E+02  0.51100000000E-03 0.  1.
         12    1    3    3    0    0  0.45403811943E+01 -0.26030558847E+02 -0.27758563855E+02  0.38324181956E+02  0.00000000000E+00 0. -1.
</event>
<event>
 7    1  0.1971192E-015  0.9000771E+02  0.7816164E-02  0.1186339E+00
        -11   -1    0    0    0    0  0.00000000000E+00  0.00000000000E+00  0.45593999997E+02  0.45594000000E+02  0.51100000000E-03 0.  1.
         11   -1    0    0    0    0 -0.00000000000E+00 -0.00000000000E+00 -0.45593999997E+02  0.45594000000E+02  0.51100000000E-03 0. -1.
    9900012    2    1    2    0    0  0.37130993560E+00 -0.13400321009E+00  0.11123203381E+01  0.90007710009E+02  0.89999970981E+02 0.  0.
         12    1    1    2    0    0 -0.37130993560E+00  0.13400321009E+00 -0.11123203381E+01  0.11802899911E+01  0.00000000000E+00 0. -1.
         11    1    3    3    0    0 -0.12757489895E+02 -0.10365182599E+02 -0.38835187850E+02  0.42170634028E+02  0.51100000000E-03 0. -1.
        -11    1    3    3    0    0  0.11175890786E+01 -0.59616191477E+01  0.76408999912E+01  0.97556784053E+01  0.51100000000E-03 0.  1.
        -12    1    3    3    0    0  0.12011210752E+02  0.16192798537E+02  0.32306608197E+02  0.38081397576E+02  0.00000000000E+00 0.  1.
</event>
<event>
 7    1  0.1971192E-015  0.9000769E+02  0.7816164E-02  0.1186339E+00
        -11   -1    0    0    0    0  0.00000000000E+00  0.00000000000E+00  0.45593999997E+02  0.45594000000E+02  0.51100000000E-03 0.  1.
         11   -1    0    0    0    0 -0.00000000000E+00 -0.00000000000E+00 -0.45593999997E+02  0.45594000000E+02  0.51100000000E-03 0. -1.
    9900012    2    1    2    0    0  0.96729905664E+00 -0.50489104378E+00 -0.45005374341E+00  0.90007690378E+02  0.89999951091E+02 0.  0.
         12    1    1    2    0    0 -0.96729905664E+00  0.50489104378E+00  0.45005374341E+00  0.11803096217E+01  0.00000000000E+00 0. -1.
         11    1    3    3    0    0  0.71625048738E+01  0.30717059699E+01 -0.18722434411E+02  0.20279704243E+02  0.51100000000E-03 0. -1.
        -11    1    3    3    0    0 -0.32279802391E+02 -0.92396541050E+01 -0.54525225541E+01  0.34015979375E+02  0.51100000000E-03 0.  1.
         12    1    3    3    0    0  0.26084596573E+02  0.56630570913E+01  0.23724903222E+02  0.35712006761E+02  0.00000000000E+00 0. -1.
</event>
<event>
 7    1  0.1971192E-015  0.9000776E+02  0.7816164E-02  0.1186339E+00
        -11   -1    0    0    0    0  0.00000000000E+00  0.00000000000E+00  0.45593999997E+02  0.45594000000E+02  0.51100000000E-03 0.  1.
         11   -1    0    0    0    0 -0.00000000000E+00 -0.00000000000E+00 -0.45593999997E+02  0.45594000000E+02  0.51100000000E-03 0. -1.
    9900012    2    1    2    0    0  0.10266823178E+00  0.15438112667E+00  0.11655872264E+01  0.90007759397E+02  0.90000021021E+02 0.  0.
         12    1    1    2    0    0 -0.10266823178E+00 -0.15438112667E+00 -0.11655872264E+01  0.11802406028E+01  0.00000000000E+00 0. -1.
         11    1    3    3    0    0  0.90031712436E+01  0.93753697917E+01 -0.33755166437E+02  0.36171341040E+02  0.51100000000E-03 0. -1.
        -11    1    3    3    0    0 -0.14552142553E+02  0.44242753950E+01 -0.75064869232E+00  0.15228346574E+02  0.51100000000E-03 0.  1.
        -12    1    3    3    0    0  0.56516395416E+01 -0.13645264060E+02  0.35671402356E+02  0.38608071783E+02  0.00000000000E+00 0.  1.
</event>
<event>
 7    1  0.1971192E-015  0.9000771E+02  0.7816164E-02  0.1186339E+00
        -11   -1    0    0    0    0  0.00000000000E+00  0.00000000000E+00  0.45593999997E+02  0.45594000000E+02  0.51100000000E-03 0. -1.
         11   -1    0    0    0    0 -0.00000000000E+00 -0.00000000000E+00 -0.45593999997E+02  0.45594000000E+02  0.51100000000E-03 0.  1.
    9900012    2    1    2    0    0  0.96904885740E-01  0.83603157332E-01 -0.11733317886E+01  0.90007708709E+02  0.89999969664E+02 0.  0.
         12    1    1    2    0    0 -0.96904885740E-01 -0.83603157332E-01  0.11733317886E+01  0.11802912907E+01  0.00000000000E+00 0. -1.
         11    1    3    3    0    0  0.23962056535E+02 -0.18404487137E+02 -0.24222066818E+02  0.38724847596E+02  0.51100000000E-03 0. -1.
        -11    1    3    3    0    0  0.79408751593E+01 -0.14356957185E+01  0.22657832912E+01  0.83816761257E+01  0.51100000000E-03 0.  1.
        -12    1    3    3    0    0 -0.31806026808E+02  0.19923786013E+02  0.20782951738E+02  0.42901184988E+02  0.00000000000E+00 0.  1.
</event>
<event>
 7    1  0.1971192E-015  0.9000779E+02  0.7816164E-02  0.1186339E+00
        -11   -1    0    0    0    0  0.00000000000E+00  0.00000000000E+00  0.45593999997E+02  0.45594000000E+02  0.51100000000E-03 0.  1.
         11   -1    0    0    0    0 -0.00000000000E+00 -0.00000000000E+00 -0.45593999997E+02  0.45594000000E+02  0.51100000000E-03 0. -1.
    9900012    2    1    2    0    0  0.75649326078E+00  0.84778498987E+00  0.31916289997E+00  0.90007793917E+02  0.90000055996E+02 0.  0.
         12    1    1    2    0    0 -0.75649326078E+00 -0.84778498987E+00 -0.31916289997E+00  0.11802060834E+01  0.00000000000E+00 0. -1.
         11    1    3    3    0    0  0.11363259386E+01 -0.29340220459E+02 -0.18685360159E+02  0.34803483414E+02  0.51100000000E-03 0. -1.
        -11    1    3    3    0    0  0.52802005242E+01 -0.93283447593E+01 -0.58931445007E+00  0.10735260840E+02  0.51100000000E-03 0.  1.
        -12    1    3    3    0    0 -0.56600332020E+01  0.39516350208E+02  0.19593837509E+02  0.44469049663E+02  0.00000000000E+00 0.  1.
</event>
<event>
 7    1  0.1971192E-015  0.9000778E+02  0.7816164E-02  0.1186339E+00
        -11   -1    0    0    0    0  0.00000000000E+00  0.00000000000E+00  0.45593999997E+02  0.45594000000E+02  0.51100000000E-03 0.  1.
         11   -1    0    0    0    0 -0.00000000000E+00 -0.00000000000E+00 -0.45593999997E+02  0.45594000000E+02  0.51100000000E-03 0. -1.
    9900012    2    1    2    0    0 -0.21318009217E-01  0.10338396293E+01  0.56890273626E+00  0.90007775801E+02  0.90000037642E+02 0.  0.
         12    1    1    2    0    0  0.21318009217E-01 -0.10338396293E+01 -0.56890273626E+00  0.11802241990E+01  0.00000000000E+00 0. -1.
         11    1    3    3    0    0  0.18745380831E+00  0.28343283598E+01 -0.88588556358E+01  0.93031112870E+01  0.51100000000E-03 0. -1.
        -11    1    3    3    0    0  0.12127493014E+02  0.67715165403E+01 -0.32942056285E+02  0.35750644688E+02  0.51100000000E-03 0.  1.
         12    1    3    3    0    0 -0.12336264832E+02 -0.85720052708E+01  0.42369814658E+02  0.44954019826E+02  0.00000000000E+00 0. -1.
</event>
<event>
 7    1  0.1971192E-015  0.9000771E+02  0.7816164E-02  0.1186339E+00
        -11   -1    0    0    0    0  0.00000000000E+00  0.00000000000E+00  0.45593999997E+02  0.45594000000E+02  0.51100000000E-03 0.  1.
         11   -1    0    0    0    0 -0.00000000000E+00 -0.00000000000E+00 -0.45593999997E+02  0.45594000000E+02  0.51100000000E-03 0. -1.
    9900012    2    1    2    0    0 -0.10749334231E+01 -0.79052588835E-01  0.48100022295E+00  0.90007706651E+02  0.89999967578E+02 0.  0.
         12    1    1    2    0    0  0.10749334231E+01  0.79052588835E-01 -0.48100022295E+00  0.11802933493E+01  0.00000000000E+00 0. -1.
         11    1    3    3    0    0 -0.24444417248E+02  0.34590302166E+02 -0.64014902965E+00  0.42360693214E+02  0.51100000000E-03 0. -1.
        -11    1    3    3    0    0  0.11104667166E+02 -0.30946481213E+00  0.11045617577E+01  0.11163756459E+02  0.51100000000E-03 0.  1.
        -12    1    3    3    0    0  0.12264816659E+02 -0.34359889943E+02  0.16587494935E-01  0.36483256978E+02  0.00000000000E+00 0.  1.
</event>
<event>
 7    1  0.1971192E-015  0.9000771E+02  0.7816164E-02  0.1186339E+00
        -11   -1    0    0    0    0  0.00000000000E+00  0.00000000000E+00  0.45593999997E+02  0.45594000000E+02  0.51100000000E-03 0.  1.
         11   -1    0    0    0    0 -0.00000000000E+00 -0.00000000000E+00 -0.45593999997E+02  0.45594000000E+02  0.51100000000E-03 0. -1.
    9900012    2    1    2    0    0 -0.70581719297E+00  0.40344683083E+00  0.85564528363E+00  0.90007713549E+02  0.89999974568E+02 0.  0.
         12    1    1    2    0    0  0.70581719297E+00 -0.40344683083E+00 -0.85564528363E+00  0.11802864511E+01  0.00000000000E+00 0. -1.
         11    1    3    3    0    0  0.65046739124E+01 -0.35961195659E+01  0.54263347258E+01  0.92026065578E+01  0.51100000000E-03 0. -1.
        -11    1    3    3    0    0  0.29914328673E+02  0.16811998766E+01  0.20182004025E+02  0.36124877574E+02  0.51100000000E-03 0.  1.
         12    1    3    3    0    0 -0.37124819779E+02  0.23183665202E+01 -0.24752693467E+02  0.44680229417E+02  0.00000000000E+00 0. -1.
</event>
<event>
 7    1  0.1971192E-015  0.9000769E+02  0.7816164E-02  0.1186339E+00
        -11   -1    0    0    0    0  0.00000000000E+00  0.00000000000E+00  0.45593999997E+02  0.45594000000E+02  0.51100000000E-03 0. -1.
         11   -1    0    0    0    0 -0.00000000000E+00 -0.00000000000E+00 -0.45593999997E+02  0.45594000000E+02  0.51100000000E-03 0.  1.
    9900012    2    1    2    0    0 -0.80946952445E+00 -0.52946125142E+00 -0.67642763213E+00  0.90007693061E+02  0.89999953810E+02 0.  0.
         12    1    1    2    0    0  0.80946952445E+00  0.52946125142E+00  0.67642763213E+00  0.11803069386E+01  0.00000000000E+00 0. -1.
         11    1    3    3    0    0  0.66571562073E+01  0.60909954065E+01 -0.31065819637E+00  0.90285360157E+01  0.51100000000E-03 0. -1.
        -11    1    3    3    0    0  0.26878413131E+02  0.15399783537E+02 -0.18771928949E+02  0.36221371346E+02  0.51100000000E-03 0.  1.
         12    1    3    3    0    0 -0.34345038863E+02 -0.22020240195E+02  0.18406159513E+02  0.44757785700E+02  0.00000000000E+00 0. -1.
</event>
<event>
 7    1  0.1971192E-015  0.9000749E+02  0.7816164E-02  0.1186340E+00
        -11   -1    0    0    0    0  0.00000000000E+00  0.00000000000E+00  0.45593999997E+02  0.45594000000E+02  0.51100000000E-03 0.  1.
         11   -1    0    0    0    0 -0.00000000000E+00 -0.00000000000E+00 -0.45593999997E+02  0.45594000000E+02  0.51100000000E-03 0. -1.
    9900012    2    1    2    0    0  0.39649350737E+00  0.10862121308E+01  0.23776661473E+00  0.90007492966E+02  0.89999751073E+02 0.  0.
         12    1    1    2    0    0 -0.39649350737E+00 -0.10862121308E+01 -0.23776661473E+00  0.11805070341E+01  0.00000000000E+00 0. -1.
         11    1    3    3    0    0 -0.25395195520E+01  0.39833904418E+02 -0.37790397615E+01  0.40093269292E+02  0.51100000000E-03 0. -1.
        -11    1    3    3    0    0  0.64060024514E+01  0.75587145275E+00  0.77500317180E+01  0.10083213821E+02  0.51100000000E-03 0.  1.
        -12    1    3    3    0    0 -0.34699893921E+01 -0.39503563740E+02 -0.37332253418E+01  0.39831009854E+02  0.00000000000E+00 0.  1.
</event>
<event>
 7    1  0.1971192E-015  0.9000768E+02  0.7816164E-02  0.1186339E+00
        -11   -1    0    0    0    0  0.00000000000E+00  0.00000000000E+00  0.45593999997E+02  0.45594000000E+02  0.51100000000E-03 0. -1.
         11   -1    0    0    0    0 -0.00000000000E+00 -0.00000000000E+00 -0.45593999997E+02  0.45594000000E+02  0.51100000000E-03 0.  1.
    9900012    2    1    2    0    0 -0.45029562826E+00 -0.21382603592E+00 -0.10698949422E+01  0.90007676776E+02  0.89999937309E+02 0.  0.
         12    1    1    2    0    0  0.45029562826E+00  0.21382603592E+00  0.10698949422E+01  0.11803232243E+01  0.00000000000E+00 0. -1.
         11    1    3    3    0    0 -0.19747312454E+02  0.15794151809E+02  0.29191485636E+02  0.38620647514E+02  0.51100000000E-03 0. -1.
        -11    1    3    3    0    0 -0.14403124885E+01 -0.12937992439E+02  0.17368723210E+01  0.13133273550E+02  0.51100000000E-03 0.  1.
        -12    1    3    3    0    0  0.20737329314E+02 -0.30699854058E+01 -0.31998252899E+02  0.38253755712E+02  0.00000000000E+00 0.  1.
</event>
<event>
 7    1  0.1971192E-015  0.9000798E+02  0.7816164E-02  0.1186339E+00
        -11   -1    0    0    0    0  0.00000000000E+00  0.00000000000E+00  0.45593999997E+02  0.45594000000E+02  0.51100000000E-03 0.  1.
         11   -1    0    0    0    0 -0.00000000000E+00 -0.00000000000E+00 -0.45593999997E+02  0.45594000000E+02  0.51100000000E-03 0. -1.
    9900012    2    1    2    0    0 -0.61735926936E+00 -0.95904187483E+00  0.30258766895E+00  0.90007977508E+02  0.90000242010E+02 0.  0.
         12    1    1    2    0    0  0.61735926936E+00  0.95904187483E+00 -0.30258766895E+00  0.11800224924E+01  0.00000000000E+00 0. -1.
         11    1    3    3    0    0 -0.14895585265E+02 -0.18458678082E+02 -0.29894946927E+02  0.38161618269E+02  0.51100000000E-03 0. -1.
        -11    1    3    3    0    0  0.24994122617E+01 -0.10545183527E+02  0.12922186865E+02  0.16865078444E+02  0.51100000000E-03 0.  1.
        -12    1    3    3    0    0  0.11778813734E+02  0.28044819733E+02  0.17275347730E+02  0.34981280795E+02  0.00000000000E+00 0.  1.
</event>
<event>
 7    1  0.1971192E-015  0.9000786E+02  0.7816164E-02  0.1186339E+00
        -11   -1    0    0    0    0  0.00000000000E+00  0.00000000000E+00  0.45593999997E+02  0.45594000000E+02  0.51100000000E-03 0. -1.
         11   -1    0    0    0    0 -0.00000000000E+00 -0.00000000000E+00 -0.45593999997E+02  0.45594000000E+02  0.51100000000E-03 0.  1.
    9900012    2    1    2    0    0 -0.27807383222E+00 -0.34756156449E+00 -0.10929804540E+01  0.90007860021E+02  0.90000122973E+02 0.  0.
         12    1    1    2    0    0  0.27807383222E+00  0.34756156449E+00  0.10929804540E+01  0.11801399790E+01  0.00000000000E+00 0. -1.
         11    1    3    3    0    0 -0.36998726853E+02 -0.65447553028E+01  0.56615895933E+01  0.37997278951E+02  0.51100000000E-03 0. -1.
        -11    1    3    3    0    0 -0.39938203391E+01  0.66384712283E+00 -0.10005337632E+02  0.10793427412E+02  0.51100000000E-03 0.  1.
        -12    1    3    3    0    0  0.40714473360E+02  0.55333466155E+01  0.32507675850E+01  0.41217153658E+02  0.00000000000E+00 0.  1.
</event>
<event>
 7    1  0.1971192E-015  0.9000780E+02  0.7816164E-02  0.1186339E+00
        -11   -1    0    0    0    0  0.00000000000E+00  0.00000000000E+00  0.45593999997E+02  0.45594000000E+02  0.51100000000E-03 0.  1.
         11   -1    0    0    0    0 -0.00000000000E+00 -0.00000000000E+00 -0.45593999997E+02  0.45594000000E+02  0.51100000000E-03 0. -1.
    9900012    2    1    2    0    0 -0.43619566233E+00  0.95286714995E+00 -0.54280918719E+00  0.90007803290E+02  0.90000065493E+02 0.  0.
         12    1    1    2    0    0  0.43619566233E+00 -0.95286714995E+00  0.54280918719E+00  0.11801967103E+01  0.00000000000E+00 0. -1.
         11    1    3    3    0    0 -0.18627523250E+01 -0.84154991333E+00 -0.11327714579E+02  0.11510654643E+02  0.51100000000E-03 0. -1.
        -11    1    3    3    0    0  0.31376132755E+02 -0.22694789299E+02  0.17178951701E+01  0.38761660595E+02  0.51100000000E-03 0.  1.
         12    1    3    3    0    0 -0.29949576093E+02  0.24489206362E+02  0.90670102214E+01  0.39735488052E+02  0.00000000000E+00 0. -1.
</event>
<event>
 7    1  0.1971192E-015  0.9000733E+02  0.7816164E-02  0.1186340E+00
        -11   -1    0    0    0    0  0.00000000000E+00  0.00000000000E+00  0.45593999997E+02  0.45594000000E+02  0.51100000000E-03 0.  1.
         11   -1    0    0    0    0 -0.00000000000E+00 -0.00000000000E+00 -0.45593999997E+02  0.45594000000E+02  0.51100000000E-03 0. -1.
    9900012    2    1    2    0    0  0.80125967054E-01 -0.82011521283E+00 -0.84556025553E+00  0.90007330157E+02  0.89999586114E+02 0.  0.
         12    1    1    2    0    0 -0.80125967054E-01  0.82011521283E+00  0.84556025553E+00  0.11806698432E+01  0.00000000000E+00 0. -1.
         11    1    3    3    0    0 -0.51801788921E+00  0.33009370899E+01 -0.39289220037E+02  0.39431045378E+02  0.51100000000E-03 0. -1.
        -11    1    3    3    0    0  0.96100575216E+01  0.90005551622E-01 -0.12169932322E+01  0.96872276404E+01  0.51100000000E-03 0.  1.
        -12    1    3    3    0    0 -0.90119136654E+01 -0.42110578544E+01  0.39660653014E+02  0.40889057138E+02  0.00000000000E+00 0.  1.
</event>
<event>
 7    1  0.1971192E-015  0.9000774E+02  0.7816164E-02  0.1186339E+00
        -11   -1    0    0    0    0  0.00000000000E+00  0.00000000000E+00  0.45593999997E+02  0.45594000000E+02  0.51100000000E-03 0.  1.
         11   -1    0    0    0    0 -0.00000000000E+00 -0.00000000000E+00 -0.45593999997E+02  0.45594000000E+02  0.51100000000E-03 0. -1.
    9900012    2    1    2    0    0 -0.79444789752E+00  0.86874208872E-01  0.86851885223E+00  0.90007737492E+02  0.89999998827E+02 0.  0.
         12    1    1    2    0    0  0.79444789752E+00 -0.86874208872E-01 -0.86851885223E+00  0.11802625075E+01  0.00000000000E+00 0. -1.
         11    1    3    3    0    0 -0.42571710285E+01  0.82678701663E+01 -0.24315111573E+01  0.96121500728E+01  0.51100000000E-03 0. -1.
        -11    1    3    3    0    0  0.13900640910E+02  0.33833160861E+02  0.57891567815E+01  0.37032754800E+02  0.51100000000E-03 0.  1.
         12    1    3    3    0    0 -0.10437917779E+02 -0.42014156818E+02 -0.24891267720E+01  0.43362832620E+02  0.00000000000E+00 0. -1.
</event>
<event>
 7    1  0.1971192E-015  0.9000716E+02  0.7816164E-02  0.1186340E+00
        -11   -1    0    0    0    0  0.00000000000E+00  0.00000000000E+00  0.45593999997E+02  0.45594000000E+02  0.51100000000E-03 0.  1.
         11   -1    0    0    0    0 -0.00000000000E+00 -0.00000000000E+00 -0.45593999997E+02  0.45594000000E+02  0.51100000000E-03 0. -1.
    9900012    2    1    2    0    0  0.11789489319E+01 -0.58391334705E-01  0.32419535523E-01  0.90007160825E+02  0.89999414545E+02 0.  0.
         12    1    1    2    0    0 -0.11789489319E+01  0.58391334705E-01 -0.32419535523E-01  0.11808391755E+01  0.00000000000E+00 0. -1.
         11    1    3    3    0    0  0.86727083107E+01  0.46309569504E+01  0.34372655469E-01  0.98317248466E+01  0.51100000000E-03 0. -1.
        -11    1    3    3    0    0  0.19895411577E+02  0.70537857959E+01  0.30785682843E+02  0.37327490731E+02  0.51100000000E-03 0.  1.
         12    1    3    3    0    0 -0.27389170956E+02 -0.11743134081E+02 -0.30787635963E+02  0.42847945247E+02  0.00000000000E+00 0. -1.
</event>
<event>
 7    1  0.1971192E-015  0.9000773E+02  0.7816164E-02  0.1186339E+00
        -11   -1    0    0    0    0  0.00000000000E+00  0.00000000000E+00  0.45593999997E+02  0.45594000000E+02  0.51100000000E-03 0.  1.
         11   -1    0    0    0    0 -0.00000000000E+00 -0.00000000000E+00 -0.45593999997E+02  0.45594000000E+02  0.51100000000E-03 0. -1.
    9900012    2    1    2    0    0 -0.86181039872E+00 -0.27815589362E+00  0.75693427484E+00  0.90007729963E+02  0.89999991198E+02 0.  0.
         12    1    1    2    0    0  0.86181039872E+00  0.27815589362E+00 -0.75693427484E+00  0.11802700373E+01  0.00000000000E+00 0. -1.
         11    1    3    3    0    0  0.58243307208E+00 -0.33455473334E+01 -0.24029992543E+02  0.24268754750E+02  0.51100000000E-03 0. -1.
        -11    1    3    3    0    0  0.15802534713E+02 -0.23819795948E+02  0.81568193873E+01  0.29726023702E+02  0.51100000000E-03 0.  1.
         12    1    3    3    0    0 -0.17246778184E+02  0.26887187388E+02  0.16630107430E+02  0.36012951511E+02  0.00000000000E+00 0. -1.
</event>
<event>
 7    1  0.1971192E-015  0.9000772E+02  0.7816164E-02  0.1186339E+00
        -11   -1    0    0    0    0  0.00000000000E+00  0.00000000000E+00  0.45593999997E+02  0.45594000000E+02  0.51100000000E-03 0. -1.
         11   -1    0    0    0    0 -0.00000000000E+00 -0.00000000000E+00 -0.45593999997E+02  0.45594000000E+02  0.51100000000E-03 0.  1.
    9900012    2    1    2    0    0  0.40890668007E+00  0.24574636527E+00 -0.10795667855E+01  0.90007720205E+02  0.89999981312E+02 0.  0.
         12    1    1    2    0    0 -0.40890668007E+00 -0.24574636527E+00  0.10795667855E+01  0.11802797945E+01  0.00000000000E+00 0. -1.
         11    1    3    3    0    0  0.18819751770E+02 -0.64287968062E+01  0.22363876518E+02  0.29927503375E+02  0.51100000000E-03 0. -1.
        -11    1    3    3    0    0  0.68689874274E+01 -0.27750441739E+01  0.12861703110E+02  0.14842751282E+02  0.51100000000E-03 0.  1.
        -12    1    3    3    0    0 -0.25279832518E+02  0.94495873453E+01 -0.36305146414E+02  0.45237465549E+02  0.00000000000E+00 0.  1.
</event>
<event>
 7    1  0.1971192E-015  0.9000781E+02  0.7816164E-02  0.1186339E+00
        -11   -1    0    0    0    0  0.00000000000E+00  0.00000000000E+00  0.45593999997E+02  0.45594000000E+02  0.51100000000E-03 0.  1.
         11   -1    0    0    0    0 -0.00000000000E+00 -0.00000000000E+00 -0.45593999997E+02  0.45594000000E+02  0.51100000000E-03 0. -1.
    9900012    2    1    2    0    0  0.26471918263E+00 -0.44795941310E+00  0.10592984827E+01  0.90007806305E+02  0.90000068549E+02 0.  0.
         12    1    1    2    0    0 -0.26471918263E+00  0.44795941310E+00 -0.10592984827E+01  0.11801936947E+01  0.00000000000E+00 0. -1.
         11    1    3    3    0    0  0.92068591726E+01 -0.13421896660E+02 -0.25923000557E+02  0.30609075843E+02  0.51100000000E-03 0. -1.
        -11    1    3    3    0    0  0.17086528284E+02 -0.21199814075E+01 -0.23515600788E+01  0.17377387751E+02  0.51100000000E-03 0.  1.
        -12    1    3    3    0    0 -0.26028668274E+02  0.15093918655E+02  0.29333859119E+02  0.42021342712E+02  0.00000000000E+00 0.  1.
</event>
<event>
 7    1  0.2107188E-015  0.9000773E+02  0.7816164E-02  0.1186339E+00
        -11   -1    0    0    0    0  0.00000000000E+00  0.00000000000E+00  0.45593999997E+02  0.45594000000E+02  0.51100000000E-03 0.  1.
         11   -1    0    0    0    0 -0.00000000000E+00 -0.00000000000E+00 -0.45593999997E+02  0.45594000000E+02  0.51100000000E-03 0. -1.
    9900012    2    1    2    0    0 -0.97344799128E+00 -0.61622487234E+00  0.25634495585E+00  0.90007725955E+02  0.89999987138E+02 0.  0.
         12    1    1    2    0    0  0.97344799128E+00  0.61622487234E+00 -0.25634495585E+00  0.11802740451E+01  0.00000000000E+00 0. -1.
         11    1    3    3    0    0 -0.15895365883E+02  0.18657673919E+01 -0.36550908219E+02  0.39901286150E+02  0.51100000000E-03 0. -1.
        -11    1    3    3    0    0  0.40695691401E+00 -0.93461737644E+01 -0.62504368909E+00  0.93758870428E+01  0.51100000000E-03 0.  1.
        -12    1    3    3    0    0  0.14514960978E+02  0.68641815002E+01  0.37432296864E+02  0.40730552763E+02  0.00000000000E+00 0.  1.
</event>
<event>
 7    1  0.1971192E-015  0.9000778E+02  0.7816164E-02  0.1186339E+00
        -11   -1    0    0    0    0  0.00000000000E+00  0.00000000000E+00  0.45593999997E+02  0.45594000000E+02  0.51100000000E-03 0.  1.
         11   -1    0    0    0    0 -0.00000000000E+00 -0.00000000000E+00 -0.45593999997E+02  0.45594000000E+02  0.51100000000E-03 0. -1.
    9900012    2    1    2    0    0  0.36111163477E+00  0.50838891172E+00  0.10020294019E+01  0.90007778063E+02  0.90000039933E+02 0.  0.
         12    1    1    2    0    0 -0.36111163477E+00 -0.50838891172E+00 -0.10020294019E+01  0.11802219370E+01  0.00000000000E+00 0. -1.
         11    1    3    3    0    0 -0.78340779538E+01  0.13434736944E+02 -0.34741453445E+02  0.38063545840E+02  0.51100000000E-03 0. -1.
        -11    1    3    3    0    0  0.42977747814E+01 -0.12396970564E+01 -0.65284130327E+01  0.79137787340E+01  0.51100000000E-03 0.  1.
        -12    1    3    3    0    0  0.38974148071E+01 -0.11686650976E+02  0.42271895880E+02  0.44030453489E+02  0.00000000000E+00 0.  1.
</event>
<event>
 7    1  0.1971192E-015  0.9000774E+02  0.7816164E-02  0.1186339E+00
        -11   -1    0    0    0    0  0.00000000000E+00  0.00000000000E+00  0.45593999997E+02  0.45594000000E+02  0.51100000000E-03 0. -1.
         11   -1    0    0    0    0 -0.00000000000E+00 -0.00000000000E+00 -0.45593999997E+02  0.45594000000E+02  0.51100000000E-03 0.  1.
    9900012    2    1    2    0    0  0.45465807575E+00 -0.96275259167E+00 -0.50932774719E+00  0.90007736778E+02  0.89999998104E+02 0.  0.
         12    1    1    2    0    0 -0.45465807575E+00  0.96275259167E+00  0.50932774719E+00  0.11802632218E+01  0.00000000000E+00 0. -1.
         11    1    3    3    0    0 -0.35983399837E+02 -0.21416748102E+02 -0.19796617293E+01  0.41921369538E+02  0.51100000000E-03 0. -1.
        -11    1    3    3    0    0  0.77776333776E+01  0.10865357322E+01  0.97491654061E+01  0.12518720671E+02  0.51100000000E-03 0.  1.
        -12    1    3    3    0    0  0.28660424535E+02  0.19367459778E+02 -0.82788314240E+01  0.35567646570E+02  0.00000000000E+00 0.  1.
</event>
<event>
 7    1  0.1971192E-015  0.9000767E+02  0.7816164E-02  0.1186339E+00
        -11   -1    0    0    0    0  0.00000000000E+00  0.00000000000E+00  0.45593999997E+02  0.45594000000E+02  0.51100000000E-03 0.  1.
         11   -1    0    0    0    0 -0.00000000000E+00 -0.00000000000E+00 -0.45593999997E+02  0.45594000000E+02  0.51100000000E-03 0. -1.
    9900012    2    1    2    0    0 -0.29353209561E+00  0.97261525224E+00  0.60086066534E+00  0.90007671631E+02  0.89999932096E+02 0.  0.
         12    1    1    2    0    0  0.29353209561E+00 -0.97261525224E+00 -0.60086066534E+00  0.11803283692E+01  0.00000000000E+00 0. -1.
         11    1    3    3    0    0 -0.57601689361E+01  0.60442464500E+01 -0.10437510131E+02  0.13366154245E+02  0.51100000000E-03 0. -1.
        -11    1    3    3    0    0  0.31893019460E+01  0.34424423523E+02  0.13235753931E+02  0.37018883886E+02  0.51100000000E-03 0.  1.
         12    1    3    3    0    0  0.22773348945E+01 -0.39496054721E+02 -0.21973831348E+01  0.39622633499E+02  0.00000000000E+00 0. -1.
</event>
<event>
 7    1  0.1971192E-015  0.9000783E+02  0.7816164E-02  0.1186339E+00
        -11   -1    0    0    0    0  0.00000000000E+00  0.00000000000E+00  0.45593999997E+02  0.45594000000E+02  0.51100000000E-03 0.  1.
         11   -1    0    0    0    0 -0.00000000000E+00 -0.00000000000E+00 -0.45593999997E+02  0.45594000000E+02  0.51100000000E-03 0. -1.
    9900012    2    1    2    0    0  0.86937838423E+00 -0.64176462715E+00  0.47447617195E+00  0.90007827026E+02  0.90000089542E+02 0.  0.
         12    1    1    2    0    0 -0.86937838423E+00  0.64176462715E+00 -0.47447617195E+00  0.11801729744E+01  0.00000000000E+00 0. -1.
         11    1    3    3    0    0  0.14592356046E+02  0.34020472090E+02 -0.19033355153E+02  0.41624487803E+02  0.51100000000E-03 0. -1.
        -11    1    3    3    0    0 -0.14994062974E+01  0.14145716590E+01  0.84811715600E+01  0.87280870478E+01  0.51100000000E-03 0.  1.
        -12    1    3    3    0    0 -0.12223571365E+02 -0.36076808376E+02  0.11026659765E+02  0.39655252175E+02  0.00000000000E+00 0.  1.
</event>
<event>
 7    1  0.1971192E-015  0.9000775E+02  0.7816164E-02  0.1186339E+00
        -11   -1    0    0    0    0  0.00000000000E+00  0.00000000000E+00  0.45593999997E+02  0.45594000000E+02  0.51100000000E-03 0. -1.
         11   -1    0    0    0    0 -0.00000000000E+00 -0.00000000000E+00 -0.45593999997E+02  0.45594000000E+02  0.51100000000E-03 0.  1.
    9900012    2    1    2    0    0 -0.58182085154E+00 -0.76147655686E-02 -0.10268477511E+01  0.90007750115E+02  0.90000011616E+02 0.  0.
         12    1    1    2    0    0  0.58182085154E+00  0.76147655686E-02  0.10268477511E+01  0.11802498853E+01  0.00000000000E+00 0. -1.
         11    1    3    3    0    0  0.12844180370E+01 -0.41487284701E+02  0.28774114741E+01  0.41606778518E+02  0.51100000000E-03 0. -1.
        -11    1    3    3    0    0 -0.78895906980E+01  0.60177636674E+01  0.53316308996E+01  0.11264342380E+02  0.51100000000E-03 0.  1.
        -12    1    3    3    0    0  0.60233518094E+01  0.35461906268E+02 -0.92358901248E+01  0.37136629217E+02  0.00000000000E+00 0.  1.
</event>
<event>
 7    1  0.1971192E-015  0.9000809E+02  0.7816164E-02  0.1186338E+00
        -11   -1    0    0    0    0  0.00000000000E+00  0.00000000000E+00  0.45593999997E+02  0.45594000000E+02  0.51100000000E-03 0.  1.
         11   -1    0    0    0    0 -0.00000000000E+00 -0.00000000000E+00 -0.45593999997E+02  0.45594000000E+02  0.51100000000E-03 0. -1.
    9900012    2    1    2    0    0 -0.19522291214E-02 -0.46219844882E+00  0.10856160672E+01  0.90008087519E+02  0.90000353474E+02 0.  0.
         12    1    1    2    0    0  0.19522291214E-02  0.46219844882E+00 -0.10856160672E+01  0.11799124809E+01  0.00000000000E+00 0. -1.
         11    1    3    3    0    0  0.35840258908E+02 -0.39557964126E+01 -0.72325767596E+01  0.36776115221E+02  0.51100000000E-03 0. -1.
        -11    1    3    3    0    0  0.42025673343E+01 -0.68019284089E+01 -0.54232478483E+01  0.96612328284E+01  0.51100000000E-03 0.  1.
        -12    1    3    3    0    0 -0.40044778472E+02  0.10295526373E+02  0.13741440675E+02  0.43570739470E+02  0.00000000000E+00 0.  1.
</event>
<event>
 7    1  0.1971192E-015  0.9000765E+02  0.7816164E-02  0.1186339E+00
        -11   -1    0    0    0    0  0.00000000000E+00  0.00000000000E+00  0.45593999997E+02  0.45594000000E+02  0.51100000000E-03 0.  1.
         11   -1    0    0    0    0 -0.00000000000E+00 -0.00000000000E+00 -0.45593999997E+02  0.45594000000E+02  0.51100000000E-03 0. -1.
    9900012    2    1    2    0    0 -0.32240231876E+00 -0.66162119195E-01  0.11335403577E+01  0.90007646484E+02  0.89999906617E+02 0.  0.
         12    1    1    2    0    0  0.32240231876E+00  0.66162119195E-01 -0.11335403577E+01  0.11803535164E+01  0.00000000000E+00 0. -1.
         11    1    3    3    0    0  0.86864611884E+01 -0.32831453091E+01 -0.54021693446E+01  0.10743234382E+02  0.51100000000E-03 0. -1.
        -11    1    3    3    0    0 -0.15192874111E+02 -0.31916412751E+02 -0.14095388479E+02  0.38054708030E+02  0.51100000000E-03 0.  1.
         12    1    3    3    0    0  0.61840106037E+01  0.35133395941E+02  0.20631098181E+02  0.41209704071E+02  0.00000000000E+00 0. -1.
</event>
<event>
 7    1  0.1971192E-015  0.9000771E+02  0.7816164E-02  0.1186339E+00
        -11   -1    0    0    0    0  0.00000000000E+00  0.00000000000E+00  0.45593999997E+02  0.45594000000E+02  0.51100000000E-03 0.  1.
         11   -1    0    0    0    0 -0.00000000000E+00 -0.00000000000E+00 -0.45593999997E+02  0.45594000000E+02  0.51100000000E-03 0. -1.
    9900012    2    1    2    0    0  0.35398170099E-01  0.11743618782E+01 -0.11270990449E+00  0.90007710894E+02  0.89999971878E+02 0.  0.
         12    1    1    2    0    0 -0.35398170099E-01 -0.11743618782E+01  0.11270990449E+00  0.11802891061E+01  0.00000000000E+00 0. -1.
         11    1    3    3    0    0  0.46674685122E+01 -0.31733926412E+02 -0.11970532105E+02  0.34236252525E+02  0.51100000000E-03 0. -1.
        -11    1    3    3    0    0 -0.37747846618E+01 -0.31299844340E+01 -0.11714925933E+02  0.12699814632E+02  0.51100000000E-03 0.  1.
        -12    1    3    3    0    0 -0.85728568029E+00  0.36038272724E+02  0.23572748133E+02  0.43071643737E+02  0.00000000000E+00 0.  1.
</event>
<event>
 7    1  0.1971192E-015  0.9000759E+02  0.7816164E-02  0.1186339E+00
        -11   -1    0    0    0    0  0.00000000000E+00  0.00000000000E+00  0.45593999997E+02  0.45594000000E+02  0.51100000000E-03 0.  1.
         11   -1    0    0    0    0 -0.00000000000E+00 -0.00000000000E+00 -0.45593999997E+02  0.45594000000E+02  0.51100000000E-03 0. -1.
    9900012    2    1    2    0    0  0.15781807520E+00 -0.34464477271E+00  0.11178901492E+01  0.90007591194E+02  0.89999850597E+02 0.  0.
         12    1    1    2    0    0 -0.15781807520E+00  0.34464477271E+00 -0.11178901492E+01  0.11804088062E+01  0.00000000000E+00 0. -1.
         11    1    3    3    0    0  0.80944300760E+01 -0.11160476241E+02 -0.35773004360E+02  0.38337760360E+02  0.51100000000E-03 0. -1.
        -11    1    3    3    0    0  0.49612145406E+00  0.15937427757E+02  0.28116386721E+01  0.16191141167E+02  0.51100000000E-03 0.  1.
        -12    1    3    3    0    0 -0.84327334548E+01 -0.51215962892E+01  0.34079255837E+02  0.35478689667E+02  0.00000000000E+00 0.  1.
</event>
<event>
 7    1  0.1971192E-015  0.9000771E+02  0.7816164E-02  0.1186339E+00
        -11   -1    0    0    0    0  0.00000000000E+00  0.00000000000E+00  0.45593999997E+02  0.45594000000E+02  0.51100000000E-03 0. -1.
         11   -1    0    0    0    0 -0.00000000000E+00 -0.00000000000E+00 -0.45593999997E+02  0.45594000000E+02  0.51100000000E-03 0.  1.
    9900012    2    1    2    0    0 -0.11400183523E+01 -0.14683741202E+00  0.26812096653E+00  0.90007706849E+02  0.89999967780E+02 0.  0.
         12    1    1    2    0    0  0.11400183523E+01  0.14683741202E+00 -0.26812096653E+00  0.11802931508E+01  0.00000000000E+00 0. -1.
         11    1    3    3    0    0  0.13675584188E+02  0.31811446731E+02 -0.18216283080E+02  0.39125729584E+02  0.51100000000E-03 0. -1.
        -11    1    3    3    0    0  0.49840711452E+01 -0.19323908843E+01  0.13565553489E+02  0.14580786722E+02  0.51100000000E-03 0.  1.
        -12    1    3    3    0    0 -0.19799673685E+02 -0.30025893258E+02  0.49188505577E+01  0.36301190543E+02  0.00000000000E+00 0.  1.
</event>
<event>
 7    1  0.1971192E-015  0.9000767E+02  0.7816164E-02  0.1186339E+00
        -11   -1    0    0    0    0  0.00000000000E+00  0.00000000000E+00  0.45593999997E+02  0.45594000000E+02  0.51100000000E-03 0. -1.
         11   -1    0    0    0    0 -0.00000000000E+00 -0.00000000000E+00 -0.45593999997E+02  0.45594000000E+02  0.51100000000E-03 0.  1.
    9900012    2    1    2    0    0 -0.10972621072E+01  0.42434613913E+00  0.95583943365E-01  0.90007665273E+02  0.89999925655E+02 0.  0.
         12    1    1    2    0    0  0.10972621072E+01 -0.42434613913E+00 -0.95583943365E-01  0.11803347270E+01  0.00000000000E+00 0. -1.
         11    1    3    3    0    0 -0.49884088000E+01  0.17146079226E-01 -0.82382586037E+01  0.96308577721E+01  0.51100000000E-03 0. -1.
        -11    1    3    3    0    0  0.24590384467E+02 -0.45360566518E+01 -0.28452113066E+02  0.37878563282E+02  0.51100000000E-03 0.  1.
         12    1    3    3    0    0 -0.20699237774E+02  0.49432567117E+01  0.36785955613E+02  0.42498244219E+02  0.00000000000E+00 0. -1.
</event>
<event>
 7    1  0.1971192E-015  0.9000783E+02  0.7816164E-02  0.1186339E+00
        -11   -1    0    0    0    0  0.00000000000E+00  0.00000000000E+00  0.45593999997E+02  0.45594000000E+02  0.51100000000E-03 0.  1.
         11   -1    0    0    0    0 -0.00000000000E+00 -0.00000000000E+00 -0.45593999997E+02  0.45594000000E+02  0.51100000000E-03 0. -1.
    9900012    2    1    2    0    0  0.50309374304E+00  0.80328115318E+00  0.70317041803E+00  0.90007825198E+02  0.90000087691E+02 0.  0.
         12    1    1    2    0    0 -0.50309374304E+00 -0.80328115318E+00 -0.70317041803E+00  0.11801748015E+01  0.00000000000E+00 0. -1.
         11    1    3    3    0    0 -0.66022508423E+01 -0.16285694143E+02  0.25005155716E+01  0.17750102205E+02  0.51100000000E-03 0. -1.
        -11    1    3    3    0    0 -0.13234708696E+02 -0.23242368518E+02 -0.39498720177E+01  0.27036395799E+02  0.51100000000E-03 0.  1.
         12    1    3    3    0    0  0.20340053281E+02  0.40331343814E+02  0.21525268642E+01  0.45221327194E+02  0.00000000000E+00 0. -1.
</event>
<event>
 7    1  0.1971192E-015  0.9000772E+02  0.7816164E-02  0.1186339E+00
        -11   -1    0    0    0    0  0.00000000000E+00  0.00000000000E+00  0.45593999997E+02  0.45594000000E+02  0.51100000000E-03 0.  1.
         11   -1    0    0    0    0 -0.00000000000E+00 -0.00000000000E+00 -0.45593999997E+02  0.45594000000E+02  0.51100000000E-03 0. -1.
    9900012    2    1    2    0    0 -0.57247255284E+00  0.80822281243E+00  0.64196693788E+00  0.90007715929E+02  0.89999976980E+02 0.  0.
         12    1    1    2    0    0  0.57247255284E+00 -0.80822281243E+00 -0.64196693788E+00  0.11802840707E+01  0.00000000000E+00 0. -1.
         11    1    3    3    0    0 -0.16365766684E+02  0.91173831227E+01 -0.32510594931E+02  0.37522043884E+02  0.51100000000E-03 0. -1.
        -11    1    3    3    0    0  0.13518617343E+01  0.95248540375E+01 -0.26331979104E+01  0.99741719496E+01  0.51100000000E-03 0.  1.
        -12    1    3    3    0    0  0.14441432397E+02 -0.17834014348E+02  0.35785759779E+02  0.42511500096E+02  0.00000000000E+00 0.  1.
</event>
<event>
 7    1  0.1971192E-015  0.9000834E+02  0.7816164E-02  0.1186338E+00
        -11   -1    0    0    0    0  0.00000000000E+00  0.00000000000E+00  0.45593999997E+02  0.45594000000E+02  0.51100000000E-03 0. -1.
         11   -1    0    0    0    0 -0.00000000000E+00 -0.00000000000E+00 -0.45593999997E+02  0.45594000000E+02  0.51100000000E-03 0.  1.
    9900012    2    1    2    0    0  0.21361660961E-01  0.11449399538E+01 -0.28328872238E+00  0.90008340592E+02  0.90000609886E+02 0.  0.
         12    1    1    2    0    0 -0.21361660961E-01 -0.11449399538E+01  0.28328872238E+00  0.11796594079E+01  0.00000000000E+00 0. -1.
         11    1    3    3    0    0  0.11294296906E+01  0.91934849956E+00 -0.84023963991E+01  0.85276654835E+01  0.51100000000E-03 0. -1.
        -11    1    3    3    0    0  0.31254540555E+02  0.23481744184E+02 -0.52550555733E+01  0.39444318026E+02  0.51100000000E-03 0.  1.
         12    1    3    3    0    0 -0.32362608584E+02 -0.23256152729E+02  0.13374163250E+02  0.42036357083E+02  0.00000000000E+00 0. -1.
</event>
<event>
 7    1  0.1971192E-015  0.9000794E+02  0.7816164E-02  0.1186339E+00
        -11   -1    0    0    0    0  0.00000000000E+00  0.00000000000E+00  0.45593999997E+02  0.45594000000E+02  0.51100000000E-03 0. -1.
         11   -1    0    0    0    0 -0.00000000000E+00 -0.00000000000E+00 -0.45593999997E+02  0.45594000000E+02  0.51100000000E-03 0.  1.
    9900012    2    1    2    0    0  0.88532285646E+00  0.48953945425E+00  0.60752955813E+00  0.90007941696E+02  0.90000205726E+02 0.  0.
         12    1    1    2    0    0 -0.88532285646E+00 -0.48953945425E+00 -0.60752955813E+00  0.11800583042E+01  0.00000000000E+00 0. -1.
         11    1    3    3    0    0  0.40294428204E+00  0.53317232061E+01  0.86740702114E+01  0.10189658028E+02  0.51100000000E-03 0. -1.
        -11    1    3    3    0    0  0.51370654402E+01  0.33661358887E+02 -0.19684890720E+02  0.39331557894E+02  0.51100000000E-03 0.  1.
         12    1    3    3    0    0 -0.46546868658E+01 -0.38503542639E+02  0.11618350066E+02  0.40486725773E+02  0.00000000000E+00 0. -1.
</event>
<event>
 7    1  0.1971192E-015  0.9000778E+02  0.7816164E-02  0.1186339E+00
        -11   -1    0    0    0    0  0.00000000000E+00  0.00000000000E+00  0.45593999997E+02  0.45594000000E+02  0.51100000000E-03 0.  1.
         11   -1    0    0    0    0 -0.00000000000E+00 -0.00000000000E+00 -0.45593999997E+02  0.45594000000E+02  0.51100000000E-03 0. -1.
    9900012    2    1    2    0    0 -0.10027721722E+01 -0.38724375946E+00  0.48724077688E+00  0.90007782506E+02  0.90000044435E+02 0.  0.
         12    1    1    2    0    0  0.10027721722E+01  0.38724375946E+00 -0.48724077688E+00  0.11802174940E+01  0.00000000000E+00 0. -1.
         11    1    3    3    0    0  0.59310508912E+01 -0.30338232814E+01  0.27965533928E+01  0.72251061942E+01  0.51100000000E-03 0. -1.
        -11    1    3    3    0    0 -0.25041668527E+02 -0.32380236375E+02  0.86915713536E+01  0.41846245748E+02  0.51100000000E-03 0.  1.
         12    1    3    3    0    0  0.18107845464E+02  0.35026815897E+02 -0.11000883970E+02  0.40936430564E+02  0.00000000000E+00 0. -1.
</event>
<event>
 7    1  0.2216788E-015  0.9000782E+02  0.7816164E-02  0.1186339E+00
        -11   -1    0    0    0    0  0.00000000000E+00  0.00000000000E+00  0.45593999997E+02  0.45594000000E+02  0.51100000000E-03 0. -1.
         11   -1    0    0    0    0 -0.00000000000E+00 -0.00000000000E+00 -0.45593999997E+02  0.45594000000E+02  0.51100000000E-03 0.  1.
    9900012    2    1    2    0    0 -0.38461825883E+00  0.54367960066E+00 -0.97432561179E+00  0.90007818187E+02  0.90000080587E+02 0.  0.
         12    1    1    2    0    0  0.38461825883E+00 -0.54367960066E+00  0.97432561179E+00  0.11801818127E+01  0.00000000000E+00 0. -1.
         11    1    3    3    0    0  0.17132216583E+02  0.23615034707E+02  0.22819130874E+02  0.37039106946E+02  0.51100000000E-03 0. -1.
        -11    1    3    3    0    0  0.86748627720E+01  0.39594956490E+01 -0.31619710265E+01  0.10046338186E+02  0.51100000000E-03 0.  1.
        -12    1    3    3    0    0 -0.26191697614E+02 -0.27030850755E+02 -0.20631485459E+02  0.42922373056E+02  0.00000000000E+00 0.  1.
</event>
<event>
 7    1  0.1971192E-015  0.9000783E+02  0.7816164E-02  0.1186339E+00
        -11   -1    0    0    0    0  0.00000000000E+00  0.00000000000E+00  0.45593999997E+02  0.45594000000E+02  0.51100000000E-03 0.  1.
         11   -1    0    0    0    0 -0.00000000000E+00 -0.00000000000E+00 -0.45593999997E+02  0.45594000000E+02  0.51100000000E-03 0. -1.
    9900012    2    1    2    0    0  0.46001362488E+00  0.10779816198E+01 -0.13840281872E+00  0.90007825332E+02  0.90000087826E+02 0.  0.
         12    1    1    2    0    0 -0.46001362488E+00 -0.10779816198E+01  0.13840281872E+00  0.11801746684E+01  0.00000000000E+00 0. -1.
         11    1    3    3    0    0  0.27297088410E+02 -0.71017143257E+01 -0.21314222295E+02  0.35353379673E+02  0.51100000000E-03 0. -1.
        -11    1    3    3    0    0  0.84473785176E+01 -0.18554280425E+01 -0.46234006495E+01  0.98069695048E+01  0.51100000000E-03 0.  1.
        -12    1    3    3    0    0 -0.35284453302E+02  0.10035123988E+02  0.25799220125E+02  0.44847476154E+02  0.00000000000E+00 0.  1.
</event>
<event>
 7    1  0.2499764E-015  0.9000768E+02  0.7816164E-02  0.1186339E+00
        -11   -1    0    0    0    0  0.00000000000E+00  0.00000000000E+00  0.45593999997E+02  0.45594000000E+02  0.51100000000E-03 0.  1.
         11   -1    0    0    0    0 -0.00000000000E+00 -0.00000000000E+00 -0.45593999997E+02  0.45594000000E+02  0.51100000000E-03 0. -1.
    9900012    2    1    2    0    0 -0.91135824830E+00  0.40703920017E+00  0.62999790111E+00  0.90007681347E+02  0.89999941941E+02 0.  0.
         12    1    1    2    0    0  0.91135824830E+00 -0.40703920017E+00 -0.62999790111E+00  0.11803186530E+01  0.00000000000E+00 0. -1.
         11    1    3    3    0    0 -0.24733532167E+02 -0.25339704562E+01 -0.27551214495E+02  0.37111157893E+02  0.51100000000E-03 0. -1.
        -11    1    3    3    0    0 -0.48103606895E+01 -0.72961310161E+01 -0.30989317224E+01  0.92723500715E+01  0.51100000000E-03 0.  1.
        -12    1    3    3    0    0  0.28632534609E+02  0.10237140672E+02  0.31280144118E+02  0.43624173383E+02  0.00000000000E+00 0.  1.
</event>
<event>
 7    1  0.1971192E-015  0.9000778E+02  0.7816164E-02  0.1186339E+00
        -11   -1    0    0    0    0  0.00000000000E+00  0.00000000000E+00  0.45593999997E+02  0.45594000000E+02  0.51100000000E-03 0.  1.
         11   -1    0    0    0    0 -0.00000000000E+00 -0.00000000000E+00 -0.45593999997E+02  0.45594000000E+02  0.51100000000E-03 0. -1.
    9900012    2    1    2    0    0 -0.10917311796E+01 -0.44006426057E+00  0.85901278121E-01  0.90007782837E+02  0.90000044771E+02 0.  0.
         12    1    1    2    0    0  0.10917311796E+01  0.44006426057E+00 -0.85901278121E-01  0.11802171628E+01  0.00000000000E+00 0. -1.
         11    1    3    3    0    0 -0.44811060602E+01 -0.21320468065E+01 -0.64909115473E+01  0.81705488239E+01  0.51100000000E-03 0. -1.
        -11    1    3    3    0    0  0.96048115596E+01  0.40299515196E+02 -0.31283865843E+01  0.41546240901E+02  0.51100000000E-03 0.  1.
         12    1    3    3    0    0 -0.62154366789E+01 -0.38607532650E+02  0.97051994097E+01  0.40290993113E+02  0.00000000000E+00 0. -1.
</event>
<event>
 7    1  0.1971192E-015  0.9000778E+02  0.7816164E-02  0.1186339E+00
        -11   -1    0    0    0    0  0.00000000000E+00  0.00000000000E+00  0.45593999997E+02  0.45594000000E+02  0.51100000000E-03 0. -1.
         11   -1    0    0    0    0 -0.00000000000E+00 -0.00000000000E+00 -0.45593999997E+02  0.45594000000E+02  0.51100000000E-03 0.  1.
    9900012    2    1    2    0    0  0.11368941986E+01 -0.16975286627E+00 -0.26752232542E+00  0.90007782796E+02  0.90000044729E+02 0.  0.
         12    1    1    2    0    0 -0.11368941986E+01  0.16975286627E+00  0.26752232542E+00  0.11802172042E+01  0.00000000000E+00 0. -1.
         11    1    3    3    0    0  0.14693169457E+01  0.81455316357E+01 -0.58386200170E+01  0.10129070139E+02  0.51100000000E-03 0. -1.
        -11    1    3    3    0    0  0.22910309921E+02  0.32381338505E+01 -0.28714246051E+02  0.36876493028E+02  0.51100000000E-03 0.  1.
         12    1    3    3    0    0 -0.23242732668E+02 -0.11553418352E+02  0.34285343742E+02  0.43002219629E+02  0.00000000000E+00 0. -1.
</event>
<event>
 7    1  0.1971192E-015  0.9000774E+02  0.7816164E-02  0.1186339E+00
        -11   -1    0    0    0    0  0.00000000000E+00  0.00000000000E+00  0.45593999997E+02  0.45594000000E+02  0.51100000000E-03 0.  1.
         11   -1    0    0    0    0 -0.00000000000E+00 -0.00000000000E+00 -0.45593999997E+02  0.45594000000E+02  0.51100000000E-03 0. -1.
    9900012    2    1    2    0    0 -0.11289843249E+01  0.32224693775E+00 -0.12067178510E+00  0.90007741395E+02  0.90000002782E+02 0.  0.
         12    1    1    2    0    0  0.11289843249E+01 -0.32224693775E+00  0.12067178510E+00  0.11802586049E+01  0.00000000000E+00 0. -1.
         11    1    3    3    0    0  0.13572519923E+02  0.26947967544E+02 -0.24176393374E+02  0.38663991629E+02  0.51100000000E-03 0. -1.
        -11    1    3    3    0    0  0.94716837098E+01 -0.15864630638E+01  0.11351165644E+01  0.96704781282E+01  0.51100000000E-03 0.  1.
        -12    1    3    3    0    0 -0.24173187957E+02 -0.25039257543E+02  0.22920605025E+02  0.41673271638E+02  0.00000000000E+00 0.  1.
</event>
<event>
 7    1  0.1971192E-015  0.9000779E+02  0.7816164E-02  0.1186339E+00
        -11   -1    0    0    0    0  0.00000000000E+00  0.00000000000E+00  0.45593999997E+02  0.45594000000E+02  0.51100000000E-03 0.  1.
         11   -1    0    0    0    0 -0.00000000000E+00 -0.00000000000E+00 -0.45593999997E+02  0.45594000000E+02  0.51100000000E-03 0. -1.
    9900012    2    1    2    0    0 -0.11758380222E+01 -0.10147023011E+00 -0.16368921846E-02  0.90007790721E+02  0.90000052759E+02 0.  0.
         12    1    1    2    0    0  0.11758380222E+01  0.10147023011E+00  0.16368921846E-02  0.11802092787E+01  0.00000000000E+00 0. -1.
         11    1    3    3    0    0 -0.52544333409E+01  0.58838000232E+01  0.54677287130E+01  0.95981367977E+01  0.51100000000E-03 0. -1.
        -11    1    3    3    0    0 -0.28404559594E+02  0.17854419178E+02  0.13134802197E+02  0.36029464594E+02  0.51100000000E-03 0.  1.
         12    1    3    3    0    0  0.32483154913E+02 -0.23839689431E+02 -0.18604167803E+02  0.44380189329E+02  0.00000000000E+00 0. -1.
</event>
<event>
 7    1  0.1971192E-015  0.9000788E+02  0.7816164E-02  0.1186339E+00
        -11   -1    0    0    0    0  0.00000000000E+00  0.00000000000E+00  0.45593999997E+02  0.45594000000E+02  0.51100000000E-03 0.  1.
         11   -1    0    0    0    0 -0.00000000000E+00 -0.00000000000E+00 -0.45593999997E+02  0.45594000000E+02  0.51100000000E-03 0. -1.
    9900012    2    1    2    0    0 -0.50451234444E+00 -0.99119004622E+00 -0.39458635363E+00  0.90007877632E+02  0.90000140816E+02 0.  0.
         12    1    1    2    0    0  0.50451234444E+00  0.99119004622E+00  0.39458635363E+00  0.11801223682E+01  0.00000000000E+00 0. -1.
         11    1    3    3    0    0 -0.30386109819E+00  0.33943186848E+02  0.13075542174E+02  0.36375844572E+02  0.51100000000E-03 0. -1.
        -11    1    3    3    0    0 -0.41395531835E+01  0.68407044872E+01  0.30209523323E+01  0.85473558307E+01  0.51100000000E-03 0.  1.
        -12    1    3    3    0    0  0.39389019372E+01 -0.41775081381E+02 -0.16491080860E+02  0.45084677229E+02  0.00000000000E+00 0.  1.
</event>
<event>
 7    1  0.1971192E-015  0.9000775E+02  0.7816164E-02  0.1186339E+00
        -11   -1    0    0    0    0  0.00000000000E+00  0.00000000000E+00  0.45593999997E+02  0.45594000000E+02  0.51100000000E-03 0. -1.
         11   -1    0    0    0    0 -0.00000000000E+00 -0.00000000000E+00 -0.45593999997E+02  0.45594000000E+02  0.51100000000E-03 0.  1.
    9900012    2    1    2    0    0  0.92408769822E-01 -0.68800715453E+00 -0.95450872421E+00  0.90007754208E+02  0.90000015763E+02 0.  0.
         12    1    1    2    0    0 -0.92408769822E-01  0.68800715453E+00  0.95450872421E+00  0.11802457922E+01  0.00000000000E+00 0. -1.
         11    1    3    3    0    0 -0.16644408052E+02  0.61377252506E+01  0.31571034377E+02  0.36213784704E+02  0.51100000000E-03 0. -1.
        -11    1    3    3    0    0 -0.20699768046E+01  0.39077606782E+00  0.81424352600E+01  0.84105149742E+01  0.51100000000E-03 0.  1.
        -12    1    3    3    0    0  0.18806793626E+02 -0.72165084730E+01 -0.40667978362E+02  0.45383454530E+02  0.00000000000E+00 0.  1.
</event>
<event>
 7    1  0.1971192E-015  0.9000767E+02  0.7816164E-02  0.1186339E+00
        -11   -1    0    0    0    0  0.00000000000E+00  0.00000000000E+00  0.45593999997E+02  0.45594000000E+02  0.51100000000E-03 0. -1.
         11   -1    0    0    0    0 -0.00000000000E+00 -0.00000000000E+00 -0.45593999997E+02  0.45594000000E+02  0.51100000000E-03 0.  1.
    9900012    2    1    2    0    0  0.78802466721E+00 -0.60242493437E+00  0.63975116279E+00  0.90007669441E+02  0.89999929878E+02 0.  0.
         12    1    1    2    0    0 -0.78802466721E+00  0.60242493437E+00 -0.63975116279E+00  0.11803305588E+01  0.00000000000E+00 0. -1.
         11    1    3    3    0    0 -0.20687895995E+02 -0.33298219693E+02 -0.35581782525E+01  0.39362686749E+02  0.51100000000E-03 0. -1.
        -11    1    3    3    0    0  0.96123066506E+01 -0.50568131101E+01  0.16990311524E+01  0.10993384606E+02  0.51100000000E-03 0.  1.
        -12    1    3    3    0    0  0.11863614011E+02  0.37752607868E+02  0.24988982629E+01  0.39651598086E+02  0.00000000000E+00 0.  1.
</event>
<event>
 7    1  0.1971192E-015  0.9000812E+02  0.7816164E-02  0.1186338E+00
        -11   -1    0    0    0    0  0.00000000000E+00  0.00000000000E+00  0.45593999997E+02  0.45594000000E+02  0.51100000000E-03 0.  1.
         11   -1    0    0    0    0 -0.00000000000E+00 -0.00000000000E+00 -0.45593999997E+02  0.45594000000E+02  0.51100000000E-03 0. -1.
    9900012    2    1    2    0    0 -0.15253119035E+00 -0.46668945434E+00  0.10728717539E+01  0.90008119239E+02  0.90000385612E+02 0.  0.
         12    1    1    2    0    0  0.15253119035E+00  0.46668945434E+00 -0.10728717539E+01  0.11798807614E+01  0.00000000000E+00 0. -1.
         11    1    3    3    0    0  0.56342475354E+01 -0.95444520919E+00  0.70872126047E+01  0.91040811570E+01  0.51100000000E-03 0. -1.
        -11    1    3    3    0    0 -0.82321689871E+01 -0.13169772332E+02  0.34631882796E+02  0.37954957723E+02  0.51100000000E-03 0.  1.
         12    1    3    3    0    0  0.24453902613E+01  0.13657528087E+02 -0.40646223646E+02  0.42949080359E+02  0.00000000000E+00 0. -1.
</event>
<event>
 8    1  0.1971192E-015  0.9000778E+02  0.7816164E-02  0.1186339E+00
        -11   -1    0    0    0    0  0.00000000000E+00  0.00000000000E+00  0.45593999997E+02  0.45594000000E+02  0.51100000000E-03 0.  1.
         11   -1    0    0    0    0 -0.00000000000E+00 -0.00000000000E+00 -0.45593999997E+02  0.45594000000E+02  0.51100000000E-03 0. -1.
    9900012    2    1    2    0    0 -0.58261434420E+00  0.13400780622E+00  0.10176060421E+01  0.90007779841E+02  0.90000041735E+02 0.  0.
         23    2    3    3    0    0  0.25689564476E+02  0.50520765827E+01 -0.67949208588E+01  0.62160870551E+02  0.55967183934E+02 0.  0.
         12    1    1    2    0    0  0.58261434420E+00 -0.13400780622E+00 -0.10176060421E+01  0.11802201587E+01  0.00000000000E+00 0. -1.
         11    1    4    4    0    0  0.35045666337E+01 -0.18749126510E+02 -0.19456928648E+02  0.27246720993E+02  0.51100000000E-03 0. -1.
        -11    1    4    4    0    0  0.22184997842E+02  0.23801203092E+02  0.12662007789E+02  0.34914149559E+02  0.51100000000E-03 0.  1.
         12    1    3    3    0    0 -0.26272178820E+02 -0.49180687765E+01  0.78125269009E+01  0.27846909290E+02  0.00000000000E+00 0. -1.
</event>
<event>
 7    1  0.1971192E-015  0.9000755E+02  0.7816164E-02  0.1186339E+00
        -11   -1    0    0    0    0  0.00000000000E+00  0.00000000000E+00  0.45593999997E+02  0.45594000000E+02  0.51100000000E-03 0.  1.
         11   -1    0    0    0    0 -0.00000000000E+00 -0.00000000000E+00 -0.45593999997E+02  0.45594000000E+02  0.51100000000E-03 0. -1.
    9900012    2    1    2    0    0 -0.52154599434E+00 -0.11394568210E+00  0.10528427548E+01  0.90007545973E+02  0.89999804780E+02 0.  0.
         12    1    1    2    0    0  0.52154599434E+00  0.11394568210E+00 -0.10528427548E+01  0.11804540267E+01  0.00000000000E+00 0. -1.
         11    1    3    3    0    0  0.26168078427E+02 -0.31566661576E+02 -0.13627418499E+02  0.43207973649E+02  0.51100000000E-03 0. -1.
        -11    1    3    3    0    0 -0.59753739756E+01  0.67927315831E+01 -0.36355965554E+01  0.97500696963E+01  0.51100000000E-03 0.  1.
        -12    1    3    3    0    0 -0.20714250446E+02  0.24659984311E+02  0.18315857809E+02  0.37049502629E+02  0.00000000000E+00 0.  1.
</event>
<event>
 7    1  0.1971192E-015  0.9000758E+02  0.7816164E-02  0.1186339E+00
        -11   -1    0    0    0    0  0.00000000000E+00  0.00000000000E+00  0.45593999997E+02  0.45594000000E+02  0.51100000000E-03 0.  1.
         11   -1    0    0    0    0 -0.00000000000E+00 -0.00000000000E+00 -0.45593999997E+02  0.45594000000E+02  0.51100000000E-03 0. -1.
    9900012    2    1    2    0    0 -0.10704510420E+01  0.83079241536E-01  0.49052685828E+00  0.90007583043E+02  0.89999842339E+02 0.  0.
         12    1    1    2    0    0  0.10704510420E+01 -0.83079241536E-01 -0.49052685828E+00  0.11804169570E+01  0.00000000000E+00 0. -1.
         11    1    3    3    0    0 -0.17366073020E+01  0.24419273535E+02 -0.23076911794E+02  0.33643135750E+02  0.51100000000E-03 0. -1.
        -11    1    3    3    0    0  0.91178075342E+01  0.11319547055E+02  0.74446885773E+01  0.16330644446E+02  0.51100000000E-03 0.  1.
         12    1    3    3    0    0 -0.84516512742E+01 -0.35655741348E+02  0.16122750075E+02  0.40033802846E+02  0.00000000000E+00 0. -1.
</event>
<event>
 7    1  0.1971192E-015  0.9000761E+02  0.7816164E-02  0.1186339E+00
        -11   -1    0    0    0    0  0.00000000000E+00  0.00000000000E+00  0.45593999997E+02  0.45594000000E+02  0.51100000000E-03 0.  1.
         11   -1    0    0    0    0 -0.00000000000E+00 -0.00000000000E+00 -0.45593999997E+02  0.45594000000E+02  0.51100000000E-03 0. -1.
    9900012    2    1    2    0    0 -0.65847530618E+00 -0.83004225357E+00 -0.52035277781E+00  0.90007607317E+02  0.89999866934E+02 0.  0.
         12    1    1    2    0    0  0.65847530618E+00  0.83004225357E+00  0.52035277781E+00  0.11803926825E+01  0.00000000000E+00 0. -1.
         11    1    3    3    0    0 -0.66333406348E+01  0.25559522810E+01  0.55167951100E+01  0.89982847581E+01  0.51100000000E-03 0. -1.
        -11    1    3    3    0    0 -0.20418100100E+02  0.14367152617E+02  0.25872352638E+02  0.35954033394E+02  0.51100000000E-03 0.  1.
         12    1    3    3    0    0  0.26392965429E+02 -0.17753147152E+02 -0.31909500526E+02  0.45055289165E+02  0.00000000000E+00 0. -1.
</event>
<event>
 7    1  0.1971192E-015  0.9000776E+02  0.7816164E-02  0.1186339E+00
        -11   -1    0    0    0    0  0.00000000000E+00  0.00000000000E+00  0.45593999997E+02  0.45594000000E+02  0.51100000000E-03 0.  1.
         11   -1    0    0    0    0 -0.00000000000E+00 -0.00000000000E+00 -0.45593999997E+02  0.45594000000E+02  0.51100000000E-03 0. -1.
    9900012    2    1    2    0    0  0.73815015788E+00  0.74171578739E+00 -0.54584735866E+00  0.90007763878E+02  0.90000025561E+02 0.  0.
         12    1    1    2    0    0 -0.73815015788E+00 -0.74171578739E+00  0.54584735866E+00  0.11802361221E+01  0.00000000000E+00 0. -1.
         11    1    3    3    0    0 -0.32455688514E+01  0.39472771778E+02 -0.77202253629E+01  0.40351397856E+02  0.51100000000E-03 0. -1.
        -11    1    3    3    0    0  0.17584527504E+01  0.90000591259E+00  0.96841931778E+01  0.98836109031E+01  0.51100000000E-03 0.  1.
        -12    1    3    3    0    0  0.22252662588E+01 -0.39631061903E+02 -0.25098151736E+01  0.39772755119E+02  0.00000000000E+00 0.  1.
</event>
<event>
 7    1  0.1971192E-015  0.9000758E+02  0.7816164E-02  0.1186339E+00
        -11   -1    0    0    0    0  0.00000000000E+00  0.00000000000E+00  0.45593999997E+02  0.45594000000E+02  0.51100000000E-03 0. -1.
         11   -1    0    0    0    0 -0.00000000000E+00 -0.00000000000E+00 -0.45593999997E+02  0.45594000000E+02  0.51100000000E-03 0.  1.
    9900012    2    1    2    0    0 -0.19691349994E+00  0.11581488179E+01  0.11539706128E+00  0.90007576308E+02  0.89999835515E+02 0.  0.
         12    1    1    2    0    0  0.19691349994E+00 -0.11581488179E+01 -0.11539706128E+00  0.11804236920E+01  0.00000000000E+00 0. -1.
         11    1    3    3    0    0  0.30284911979E+02 -0.14180852695E+01  0.49078651489E+01  0.30712766075E+02  0.51100000000E-03 0. -1.
        -11    1    3    3    0    0  0.29316991668E+01  0.12993230144E+02  0.14203843024E+02  0.19472237840E+02  0.51100000000E-03 0.  1.
        -12    1    3    3    0    0 -0.33413524646E+02 -0.10416996057E+02 -0.18996311112E+02  0.39822572393E+02  0.00000000000E+00 0.  1.
</event>
<event>
 7    1  0.1971192E-015  0.9000777E+02  0.7816164E-02  0.1186339E+00
        -11   -1    0    0    0    0  0.00000000000E+00  0.00000000000E+00  0.45593999997E+02  0.45594000000E+02  0.51100000000E-03 0. -1.
         11   -1    0    0    0    0 -0.00000000000E+00 -0.00000000000E+00 -0.45593999997E+02  0.45594000000E+02  0.51100000000E-03 0.  1.
    9900012    2    1    2    0    0 -0.11417516444E+01 -0.29105545706E+00  0.68071159087E-01  0.90007769608E+02  0.90000031366E+02 0.  0.
         12    1    1    2    0    0  0.11417516444E+01  0.29105545706E+00 -0.68071159087E-01  0.11802303925E+01  0.00000000000E+00 0. -1.
         11    1    3    3    0    0 -0.69482330813E+01 -0.22408110950E+02  0.13224099090E+02  0.26930989144E+02  0.51100000000E-03 0. -1.
        -11    1    3    3    0    0 -0.17235729227E+02 -0.54807996769E+01 -0.19469755971E+02  0.26574064893E+02  0.51100000000E-03 0.  1.
         12    1    3    3    0    0  0.23042210664E+02  0.27597855169E+02  0.63137280399E+01  0.36502715570E+02  0.00000000000E+00 0. -1.
</event>
<event>
 7    1  0.1971192E-015  0.9000775E+02  0.7816164E-02  0.1186339E+00
        -11   -1    0    0    0    0  0.00000000000E+00  0.00000000000E+00  0.45593999997E+02  0.45594000000E+02  0.51100000000E-03 0.  1.
         11   -1    0    0    0    0 -0.00000000000E+00 -0.00000000000E+00 -0.45593999997E+02  0.45594000000E+02  0.51100000000E-03 0. -1.
    9900012    2    1    2    0    0  0.61285457861E+00  0.10085540669E+01  0.14830096610E-01  0.90007749191E+02  0.90000010680E+02 0.  0.
         12    1    1    2    0    0 -0.61285457861E+00 -0.10085540669E+01 -0.14830096610E-01  0.11802508090E+01  0.00000000000E+00 0. -1.
         11    1    3    3    0    0 -0.28208924135E+02 -0.20950848849E+01  0.22675975756E+02  0.36253726129E+02  0.51100000000E-03 0. -1.
        -11    1    3    3    0    0 -0.44520596894E+01 -0.87624818190E+01  0.27868252505E+01  0.10216081360E+02  0.51100000000E-03 0.  1.
        -12    1    3    3    0    0  0.33273838403E+02  0.11866120771E+02 -0.25447970910E+02  0.43537941702E+02  0.00000000000E+00 0.  1.
</event>
<event>
 7    1  0.1971192E-015  0.9000780E+02  0.7816164E-02  0.1186339E+00
        -11   -1    0    0    0    0  0.00000000000E+00  0.00000000000E+00  0.45593999997E+02  0.45594000000E+02  0.51100000000E-03 0.  1.
         11   -1    0    0    0    0 -0.00000000000E+00 -0.00000000000E+00 -0.45593999997E+02  0.45594000000E+02  0.51100000000E-03 0. -1.
    9900012    2    1    2    0    0 -0.58112591948E+00  0.88065062088E+00 -0.52879228870E+00  0.90007799112E+02  0.90000061261E+02 0.  0.
         12    1    1    2    0    0  0.58112591948E+00 -0.88065062088E+00  0.52879228870E+00  0.11802008875E+01  0.00000000000E+00 0. -1.
         11    1    3    3    0    0 -0.26118300875E+02  0.22769968304E+02 -0.21552374020E+02  0.40806150558E+02  0.51100000000E-03 0. -1.
        -11    1    3    3    0    0  0.84979229460E+01  0.28203077573E+01 -0.42983889507E+01  0.99320178250E+01  0.51100000000E-03 0.  1.
        -12    1    3    3    0    0  0.17039252010E+02 -0.24709625440E+02  0.25321970682E+02  0.39269630730E+02  0.00000000000E+00 0.  1.
</event>
<event>
 7    1  0.1971192E-015  0.9000775E+02  0.7816164E-02  0.1186339E+00
        -11   -1    0    0    0    0  0.00000000000E+00  0.00000000000E+00  0.45593999997E+02  0.45594000000E+02  0.51100000000E-03 0. -1.
         11   -1    0    0    0    0 -0.00000000000E+00 -0.00000000000E+00 -0.45593999997E+02  0.45594000000E+02  0.51100000000E-03 0.  1.
    9900012    2    1    2    0    0 -0.79266665274E+00 -0.55228607412E+00  0.67796753637E+00  0.90007754131E+02  0.90000015686E+02 0.  0.
         12    1    1    2    0    0  0.79266665274E+00  0.55228607412E+00 -0.67796753637E+00  0.11802458686E+01  0.00000000000E+00 0. -1.
         11    1    3    3    0    0  0.18685112059E+01 -0.51840227820E+00 -0.62775698848E+01  0.65702327940E+01  0.51100000000E-03 0. -1.
        -11    1    3    3    0    0 -0.40619311076E+02 -0.10700465278E+02 -0.48388559896E+01  0.42282891540E+02  0.51100000000E-03 0.  1.
         12    1    3    3    0    0  0.37958133217E+02  0.10666581482E+02  0.11794393411E+02  0.41154629797E+02  0.00000000000E+00 0. -1.
</event>
<event>
 7    1  0.1971192E-015  0.9000871E+02  0.7816164E-02  0.1186337E+00
        -11   -1    0    0    0    0  0.00000000000E+00  0.00000000000E+00  0.45593999997E+02  0.45594000000E+02  0.51100000000E-03 0. -1.
         11   -1    0    0    0    0 -0.00000000000E+00 -0.00000000000E+00 -0.45593999997E+02  0.45594000000E+02  0.51100000000E-03 0.  1.
    9900012    2    1    2    0    0  0.89181792719E-01  0.45814411286E+00 -0.10829939994E+01  0.90008709780E+02  0.90000983944E+02 0.  0.
         12    1    1    2    0    0 -0.89181792719E-01 -0.45814411286E+00  0.10829939994E+01  0.11792902200E+01  0.00000000000E+00 0. -1.
         11    1    3    3    0    0 -0.80124173949E+01 -0.12569014559E+02 -0.57184297807E+01  0.15964942809E+02  0.51100000000E-03 0. -1.
        -11    1    3    3    0    0 -0.69241178365E+01  0.29816398510E+01 -0.32169081060E+02  0.33040631964E+02  0.51100000000E-03 0.  1.
         12    1    3    3    0    0  0.15025717024E+02  0.10045518820E+02  0.36804516842E+02  0.41003135007E+02  0.00000000000E+00 0. -1.
</event>
<event>
 7    1  0.1971192E-015  0.9000782E+02  0.7816164E-02  0.1186339E+00
        -11   -1    0    0    0    0  0.00000000000E+00  0.00000000000E+00  0.45593999997E+02  0.45594000000E+02  0.51100000000E-03 0.  1.
         11   -1    0    0    0    0 -0.00000000000E+00 -0.00000000000E+00 -0.45593999997E+02  0.45594000000E+02  0.51100000000E-03 0. -1.
    9900012    2    1    2    0    0  0.83280614194E+00  0.79898067409E+00  0.24675422853E+00  0.90007820422E+02  0.90000082851E+02 0.  0.
         12    1    1    2    0    0 -0.83280614194E+00 -0.79898067409E+00 -0.24675422853E+00  0.11801795783E+01  0.00000000000E+00 0. -1.
         11    1    3    3    0    0  0.35077547697E+02  0.19040736057E+02  0.57295033084E+01  0.40321349065E+02  0.51100000000E-03 0. -1.
        -11    1    3    3    0    0 -0.31713344404E+01  0.65614424667E+01 -0.67136165262E+01  0.99087101330E+01  0.51100000000E-03 0.  1.
        -12    1    3    3    0    0 -0.31073407115E+02 -0.24803197850E+02  0.12308674464E+01  0.39777761223E+02  0.00000000000E+00 0.  1.
</event>
<event>
 7    1  0.1971192E-015  0.9000766E+02  0.7816164E-02  0.1186339E+00
        -11   -1    0    0    0    0  0.00000000000E+00  0.00000000000E+00  0.45593999997E+02  0.45594000000E+02  0.51100000000E-03 0.  1.
         11   -1    0    0    0    0 -0.00000000000E+00 -0.00000000000E+00 -0.45593999997E+02  0.45594000000E+02  0.51100000000E-03 0. -1.
    9900012    2    1    2    0    0 -0.90038002981E+00 -0.37098890316E+00  0.66699324523E+00  0.90007662356E+02  0.89999922699E+02 0.  0.
         12    1    1    2    0    0  0.90038002981E+00  0.37098890316E+00 -0.66699324523E+00  0.11803376439E+01  0.00000000000E+00 0. -1.
         11    1    3    3    0    0 -0.18428343847E+01 -0.79250933325E+01 -0.39640114925E+01  0.90507751200E+01  0.51100000000E-03 0. -1.
        -11    1    3    3    0    0  0.23427615133E+01 -0.29539113635E+02 -0.20586879970E+02  0.36081399544E+02  0.51100000000E-03 0.  1.
         12    1    3    3    0    0 -0.14003071584E+01  0.37093218065E+02  0.25217884707E+02  0.44875487693E+02  0.00000000000E+00 0. -1.
</event>
<event>
 7    1  0.1971192E-015  0.9000773E+02  0.7816164E-02  0.1186339E+00
        -11   -1    0    0    0    0  0.00000000000E+00  0.00000000000E+00  0.45593999997E+02  0.45594000000E+02  0.51100000000E-03 0.  1.
         11   -1    0    0    0    0 -0.00000000000E+00 -0.00000000000E+00 -0.45593999997E+02  0.45594000000E+02  0.51100000000E-03 0. -1.
    9900012    2    1    2    0    0  0.10725552028E+00  0.11577327557E+01  0.20297086382E+00  0.90007726281E+02  0.89999987468E+02 0.  0.
         12    1    1    2    0    0 -0.10725552028E+00 -0.11577327557E+01 -0.20297086382E+00  0.11802737190E+01  0.00000000000E+00 0. -1.
         11    1    3    3    0    0  0.15668508523E+02 -0.25486201416E+02 -0.15804998879E+02  0.33835582037E+02  0.51100000000E-03 0. -1.
        -11    1    3    3    0    0  0.12471945919E+02  0.17439407589E+02  0.15855547709E+02  0.26666097679E+02  0.51100000000E-03 0.  1.
         12    1    3    3    0    0 -0.28033198921E+02  0.92045265836E+01  0.15242203449E+00  0.29506046564E+02  0.00000000000E+00 0. -1.
</event>
<event>
 7    1  0.1971192E-015  0.9000768E+02  0.7816164E-02  0.1186339E+00
        -11   -1    0    0    0    0  0.00000000000E+00  0.00000000000E+00  0.45593999997E+02  0.45594000000E+02  0.51100000000E-03 0. -1.
         11   -1    0    0    0    0 -0.00000000000E+00 -0.00000000000E+00 -0.45593999997E+02  0.45594000000E+02  0.51100000000E-03 0.  1.
    9900012    2    1    2    0    0 -0.96087408670E+00  0.53716063284E+00  0.42582283849E+00  0.90007684091E+02  0.89999944721E+02 0.  0.
         12    1    1    2    0    0  0.96087408670E+00 -0.53716063284E+00 -0.42582283849E+00  0.11803159093E+01  0.00000000000E+00 0. -1.
         11    1    3    3    0    0 -0.10608196671E+02 -0.81305949680E+01  0.33590266588E+02  0.36151713941E+02  0.51100000000E-03 0. -1.
        -11    1    3    3    0    0 -0.92139376691E+01 -0.95069146352E-01  0.49327637206E+01  0.10451690949E+02  0.51100000000E-03 0.  1.
        -12    1    3    3    0    0  0.18861260253E+02  0.87628247471E+01 -0.38097207470E+02  0.43404279201E+02  0.00000000000E+00 0.  1.
</event>
<event>
 7    1  0.1971192E-015  0.9000788E+02  0.7816164E-02  0.1186339E+00
        -11   -1    0    0    0    0  0.00000000000E+00  0.00000000000E+00  0.45593999997E+02  0.45594000000E+02  0.51100000000E-03 0. -1.
         11   -1    0    0    0    0 -0.00000000000E+00 -0.00000000000E+00 -0.45593999997E+02  0.45594000000E+02  0.51100000000E-03 0.  1.
    9900012    2    1    2    0    0 -0.45900277446E+00 -0.18808961682E+00 -0.10708067494E+01  0.90007877826E+02  0.90000141013E+02 0.  0.
         12    1    1    2    0    0  0.45900277446E+00  0.18808961682E+00  0.10708067494E+01  0.11801221740E+01  0.00000000000E+00 0. -1.
         11    1    3    3    0    0 -0.13926890626E+02  0.34434903431E+01  0.34856528972E+02  0.37693414816E+02  0.51100000000E-03 0. -1.
        -11    1    3    3    0    0  0.71731957459E+01  0.88909853451E+01  0.22521205901E+01  0.11643728141E+02  0.51100000000E-03 0.  1.
        -12    1    3    3    0    0  0.62946921056E+01 -0.12522565305E+02 -0.38179456312E+02  0.40670734869E+02  0.00000000000E+00 0.  1.
</event>
<event>
 7    1  0.1971192E-015  0.9000762E+02  0.7816164E-02  0.1186339E+00
        -11   -1    0    0    0    0  0.00000000000E+00  0.00000000000E+00  0.45593999997E+02  0.45594000000E+02  0.51100000000E-03 0. -1.
         11   -1    0    0    0    0 -0.00000000000E+00 -0.00000000000E+00 -0.45593999997E+02  0.45594000000E+02  0.51100000000E-03 0.  1.
    9900012    2    1    2    0    0 -0.80942399755E+00 -0.28012745770E+00 -0.81219733131E+00  0.90007617390E+02  0.89999877140E+02 0.  0.
         12    1    1    2    0    0  0.80942399755E+00  0.28012745770E+00  0.81219733131E+00  0.11803826097E+01  0.00000000000E+00 0. -1.
         11    1    3    3    0    0 -0.88691957728E+01 -0.74894116538E+01 -0.41425342750E+01  0.12325360484E+02  0.51100000000E-03 0. -1.
        -11    1    3    3    0    0  0.40031003503E+02 -0.42575911652E+01 -0.95202128011E+01  0.41367170269E+02  0.51100000000E-03 0.  1.
         12    1    3    3    0    0 -0.31971231728E+02  0.11466875361E+02  0.12850549745E+02  0.36315086638E+02  0.00000000000E+00 0. -1.
</event>
<event>
 7    1  0.1971192E-015  0.9000785E+02  0.7816164E-02  0.1186339E+00
        -11   -1    0    0    0    0  0.00000000000E+00  0.00000000000E+00  0.45593999997E+02  0.45594000000E+02  0.51100000000E-03 0.  1.
         11   -1    0    0    0    0 -0.00000000000E+00 -0.00000000000E+00 -0.45593999997E+02  0.45594000000E+02  0.51100000000E-03 0. -1.
    9900012    2    1    2    0    0  0.33981941354E-01 -0.33013350807E+00  0.11325203026E+01  0.90007853763E+02  0.90000116632E+02 0.  0.
         12    1    1    2    0    0 -0.33981941354E-01  0.33013350807E+00 -0.11325203026E+01  0.11801462372E+01  0.00000000000E+00 0. -1.
         11    1    3    3    0    0  0.71998604225E+01 -0.48555416020E+01  0.10643212678E+02  0.13736529792E+02  0.51100000000E-03 0. -1.
        -11    1    3    3    0    0 -0.32096422683E+02 -0.85197423228E+01  0.17266868849E+02  0.37428747219E+02  0.51100000000E-03 0.  1.
         12    1    3    3    0    0  0.24930544202E+02  0.13045150417E+02 -0.26777561224E+02  0.38842576752E+02  0.00000000000E+00 0. -1.
</event>
<event>
 7    1  0.1971192E-015  0.9000773E+02  0.7816164E-02  0.1186339E+00
        -11   -1    0    0    0    0  0.00000000000E+00  0.00000000000E+00  0.45593999997E+02  0.45594000000E+02  0.51100000000E-03 0.  1.
         11   -1    0    0    0    0 -0.00000000000E+00 -0.00000000000E+00 -0.45593999997E+02  0.45594000000E+02  0.51100000000E-03 0. -1.
    9900012    2    1    2    0    0  0.30244020844E+00  0.11408485492E+01  0.52298195661E-02  0.90007731877E+02  0.89999993137E+02 0.  0.
         12    1    1    2    0    0 -0.30244020844E+00 -0.11408485492E+01 -0.52298195661E-02  0.11802681233E+01  0.00000000000E+00 0. -1.
         11    1    3    3    0    0 -0.20864526032E+01 -0.72405975098E+01 -0.60836986214E+01  0.96845715414E+01  0.51100000000E-03 0. -1.
        -11    1    3    3    0    0  0.28840061941E+02 -0.22552774571E+02 -0.75807087557E+01  0.37387751459E+02  0.51100000000E-03 0.  1.
         12    1    3    3    0    0 -0.26451169130E+02  0.30934220630E+02  0.13669637197E+02  0.42935408877E+02  0.00000000000E+00 0. -1.
</event>
<event>
 7    1  0.1971192E-015  0.9000770E+02  0.7816164E-02  0.1186339E+00
        -11   -1    0    0    0    0  0.00000000000E+00  0.00000000000E+00  0.45593999997E+02  0.45594000000E+02  0.51100000000E-03 0.  1.
         11   -1    0    0    0    0 -0.00000000000E+00 -0.00000000000E+00 -0.45593999997E+02  0.45594000000E+02  0.51100000000E-03 0. -1.
    9900012    2    1    2    0    0  0.19409200794E-01  0.91067663289E+00  0.75059157859E+00  0.90007704967E+02  0.89999965873E+02 0.  0.
         12    1    1    2    0    0 -0.19409200794E-01 -0.91067663289E+00 -0.75059157859E+00  0.11802950329E+01  0.00000000000E+00 0. -1.
         11    1    3    3    0    0 -0.21346787551E+02 -0.21520070350E+02  0.12101486859E+02  0.32638087429E+02  0.51100000000E-03 0. -1.
        -11    1    3    3    0    0 -0.83080008794E+01 -0.89447845815E+01  0.15318141119E+01  0.12303597220E+02  0.51100000000E-03 0.  1.
        -12    1    3    3    0    0  0.29674197631E+02  0.31375531564E+02 -0.12882709392E+02  0.45066020318E+02  0.00000000000E+00 0.  1.
</event>
<event>
 7    1  0.1971192E-015  0.9000759E+02  0.7816164E-02  0.1186339E+00
        -11   -1    0    0    0    0  0.00000000000E+00  0.00000000000E+00  0.45593999997E+02  0.45594000000E+02  0.51100000000E-03 0. -1.
         11   -1    0    0    0    0 -0.00000000000E+00 -0.00000000000E+00 -0.45593999997E+02  0.45594000000E+02  0.51100000000E-03 0.  1.
    9900012    2    1    2    0    0  0.64004799481E+00  0.92007140309E+00 -0.37035842353E+00  0.90007594060E+02  0.89999853501E+02 0.  0.
         12    1    1    2    0    0 -0.64004799481E+00 -0.92007140309E+00  0.37035842353E+00  0.11804059405E+01  0.00000000000E+00 0. -1.
         11    1    3    3    0    0 -0.17423863714E+02 -0.21255499129E+02  0.26114145078E+02  0.37912212325E+02  0.51100000000E-03 0. -1.
        -11    1    3    3    0    0 -0.26561822335E+01 -0.73788140278E+01 -0.91610802822E+01  0.12059336330E+02  0.51100000000E-03 0.  1.
        -12    1    3    3    0    0  0.20720093942E+02  0.29554384559E+02 -0.17323423219E+02  0.40036045405E+02  0.00000000000E+00 0.  1.
</event>
<event>
 7    1  0.1971192E-015  0.9000763E+02  0.7816164E-02  0.1186339E+00
        -11   -1    0    0    0    0  0.00000000000E+00  0.00000000000E+00  0.45593999997E+02  0.45594000000E+02  0.51100000000E-03 0.  1.
         11   -1    0    0    0    0 -0.00000000000E+00 -0.00000000000E+00 -0.45593999997E+02  0.45594000000E+02  0.51100000000E-03 0. -1.
    9900012    2    1    2    0    0  0.15725914384E+00 -0.95318855382E+00  0.67822247436E+00  0.90007625237E+02  0.89999885090E+02 0.  0.
         12    1    1    2    0    0 -0.15725914384E+00  0.95318855382E+00 -0.67822247436E+00  0.11803747635E+01  0.00000000000E+00 0. -1.
         11    1    3    3    0    0  0.10026488614E+02 -0.51432621909E+01 -0.29931705562E+02  0.31982661209E+02  0.51100000000E-03 0. -1.
        -11    1    3    3    0    0  0.57528614936E+01  0.52275286647E+01 -0.11055701915E+02  0.13514844298E+02  0.51100000000E-03 0.  1.
        -12    1    3    3    0    0 -0.15622090964E+02 -0.10374550276E+01  0.41665629952E+02  0.44510119729E+02  0.00000000000E+00 0.  1.
</event>
<event>
 7    1  0.1971192E-015  0.9000777E+02  0.7816164E-02  0.1186339E+00
        -11   -1    0    0    0    0  0.00000000000E+00  0.00000000000E+00  0.45593999997E+02  0.45594000000E+02  0.51100000000E-03 0.  1.
         11   -1    0    0    0    0 -0.00000000000E+00 -0.00000000000E+00 -0.45593999997E+02  0.45594000000E+02  0.51100000000E-03 0. -1.
    9900012    2    1    2    0    0  0.71710734574E+00  0.58218348788E-01  0.93557930203E+00  0.90007770805E+02  0.90000032580E+02 0.  0.
         12    1    1    2    0    0 -0.71710734574E+00 -0.58218348788E-01 -0.93557930203E+00  0.11802291946E+01  0.00000000000E+00 0. -1.
         11    1    3    3    0    0 -0.41581975734E+01 -0.25708578897E+00  0.19163025277E+01  0.45857295822E+01  0.51100000000E-03 0. -1.
        -11    1    3    3    0    0 -0.35278354017E+02 -0.17674000590E+02  0.86176006313E+01  0.40388062591E+02  0.51100000000E-03 0.  1.
         12    1    3    3    0    0  0.40153658936E+02  0.17989304728E+02 -0.95983238569E+01  0.45033978632E+02  0.00000000000E+00 0. -1.
</event>
<event>
 7    1  0.1971192E-015  0.9000777E+02  0.7816164E-02  0.1186339E+00
        -11   -1    0    0    0    0  0.00000000000E+00  0.00000000000E+00  0.45593999997E+02  0.45594000000E+02  0.51100000000E-03 0. -1.
         11   -1    0    0    0    0 -0.00000000000E+00 -0.00000000000E+00 -0.45593999997E+02  0.45594000000E+02  0.51100000000E-03 0.  1.
    9900012    2    1    2    0    0 -0.11310348315E+01  0.87361792197E-01  0.32566871197E+00  0.90007774605E+02  0.90000036430E+02 0.  0.
         12    1    1    2    0    0  0.11310348315E+01 -0.87361792197E-01 -0.32566871197E+00  0.11802253949E+01  0.00000000000E+00 0. -1.
         11    1    3    3    0    0 -0.14220654436E+02 -0.35678176598E+02 -0.45647019887E+01  0.38678104949E+02  0.51100000000E-03 0. -1.
        -11    1    3    3    0    0  0.11029520536E+01 -0.11249723023E+01 -0.97449401228E+01  0.98714702133E+01  0.51100000000E-03 0.  1.
        -12    1    3    3    0    0  0.11986667551E+02  0.36890510692E+02  0.14635310824E+02  0.41458199443E+02  0.00000000000E+00 0.  1.
</event>
<event>
 7    1  0.1971192E-015  0.9000764E+02  0.7816164E-02  0.1186339E+00
        -11   -1    0    0    0    0  0.00000000000E+00  0.00000000000E+00  0.45593999997E+02  0.45594000000E+02  0.51100000000E-03 0. -1.
         11   -1    0    0    0    0 -0.00000000000E+00 -0.00000000000E+00 -0.45593999997E+02  0.45594000000E+02  0.51100000000E-03 0.  1.
    9900012    2    1    2    0    0 -0.10270918133E+01 -0.57945221856E+00 -0.50671024092E-01  0.90007639877E+02  0.89999899924E+02 0.  0.
         12    1    1    2    0    0  0.10270918133E+01  0.57945221856E+00  0.50671024092E-01  0.11803601227E+01  0.00000000000E+00 0. -1.
         11    1    3    3    0    0  0.34944289419E+01  0.64314171288E+01  0.44929116388E+01  0.85883883919E+01  0.51100000000E-03 0. -1.
        -11    1    3    3    0    0 -0.35534407162E+02  0.17973825559E+02 -0.10421918901E+02  0.41162712392E+02  0.51100000000E-03 0.  1.
         12    1    3    3    0    0  0.31012886407E+02 -0.24984694907E+02  0.58783362382E+01  0.40256539094E+02  0.00000000000E+00 0. -1.
</event>
<event>
 7    1  0.1971192E-015  0.9000770E+02  0.7816164E-02  0.1186339E+00
        -11   -1    0    0    0    0  0.00000000000E+00  0.00000000000E+00  0.45593999997E+02  0.45594000000E+02  0.51100000000E-03 0. -1.
         11   -1    0    0    0    0 -0.00000000000E+00 -0.00000000000E+00 -0.45593999997E+02  0.45594000000E+02  0.51100000000E-03 0.  1.
    9900012    2    1    2    0    0 -0.58221221703E+00  0.45270782897E+00 -0.92151251357E+00  0.90007703107E+02  0.89999963988E+02 0.  0.
         12    1    1    2    0    0  0.58221221703E+00 -0.45270782897E+00  0.92151251357E+00  0.11802968935E+01  0.00000000000E+00 0. -1.
         11    1    3    3    0    0  0.55169483251E+01 -0.28935095514E+01  0.57536360625E+01  0.84801795115E+01  0.51100000000E-03 0. -1.
        -11    1    3    3    0    0  0.81714715813E+01 -0.45313069493E+01 -0.41785685096E+02  0.42817626857E+02  0.51100000000E-03 0.  1.
         12    1    3    3    0    0 -0.14270632124E+02  0.78775243297E+01  0.35110536520E+02  0.38709896738E+02  0.00000000000E+00 0. -1.
</event>
<event>
 7    1  0.1971192E-015  0.9000768E+02  0.7816164E-02  0.1186339E+00
        -11   -1    0    0    0    0  0.00000000000E+00  0.00000000000E+00  0.45593999997E+02  0.45594000000E+02  0.51100000000E-03 0.  1.
         11   -1    0    0    0    0 -0.00000000000E+00 -0.00000000000E+00 -0.45593999997E+02  0.45594000000E+02  0.51100000000E-03 0. -1.
    9900012    2    1    2    0    0  0.79062399245E-01  0.73986401994E+00  0.91624003768E+00  0.90007684179E+02  0.89999944810E+02 0.  0.
         12    1    1    2    0    0 -0.79062399245E-01 -0.73986401994E+00 -0.91624003768E+00  0.11803158211E+01  0.00000000000E+00 0. -1.
         11    1    3    3    0    0  0.37681771875E+01  0.78979681937E+01  0.46383809620E+01  0.99041223294E+01  0.51100000000E-03 0. -1.
        -11    1    3    3    0    0  0.19349599017E+02  0.17459456276E+02  0.24773814298E+02  0.35958051542E+02  0.51100000000E-03 0.  1.
         12    1    3    3    0    0 -0.23038713805E+02 -0.24617560450E+02 -0.28495955222E+02  0.44145510308E+02  0.00000000000E+00 0. -1.
</event>
<event>
 7    1  0.1971192E-015  0.9000774E+02  0.7816164E-02  0.1186339E+00
        -11   -1    0    0    0    0  0.00000000000E+00  0.00000000000E+00  0.45593999997E+02  0.45594000000E+02  0.51100000000E-03 0.  1.
         11   -1    0    0    0    0 -0.00000000000E+00 -0.00000000000E+00 -0.45593999997E+02  0.45594000000E+02  0.51100000000E-03 0. -1.
    9900012    2    1    2    0    0 -0.80200987001E+00 -0.60213874132E+00  0.62227918876E+00  0.90007736350E+02  0.89999997670E+02 0.  0.
         12    1    1    2    0    0  0.80200987001E+00  0.60213874132E+00 -0.62227918876E+00  0.11802636503E+01  0.00000000000E+00 0. -1.
         11    1    3    3    0    0 -0.17098137230E+02  0.28297414445E+02 -0.17844615242E+02  0.37570204344E+02  0.51100000000E-03 0. -1.
        -11    1    3    3    0    0 -0.23728753278E+01  0.57290136801E+01 -0.37604291016E+01  0.72521005480E+01  0.51100000000E-03 0.  1.
        -12    1    3    3    0    0  0.18669002688E+02 -0.34628566867E+02  0.22227323533E+02  0.45185431458E+02  0.00000000000E+00 0.  1.
</event>
<event>
 7    1  0.1971192E-015  0.9000773E+02  0.7816164E-02  0.1186339E+00
        -11   -1    0    0    0    0  0.00000000000E+00  0.00000000000E+00  0.45593999997E+02  0.45594000000E+02  0.51100000000E-03 0. -1.
         11   -1    0    0    0    0 -0.00000000000E+00 -0.00000000000E+00 -0.45593999997E+02  0.45594000000E+02  0.51100000000E-03 0.  1.
    9900012    2    1    2    0    0 -0.11258322209E+01 -0.15065171522E+00  0.32067668262E+00  0.90007734071E+02  0.89999995361E+02 0.  0.
         12    1    1    2    0    0  0.11258322209E+01  0.15065171522E+00 -0.32067668262E+00  0.11802659292E+01  0.00000000000E+00 0. -1.
         11    1    3    3    0    0 -0.35640891402E+02  0.21490770517E+02  0.85639813240E+01  0.42490800577E+02  0.51100000000E-03 0. -1.
        -11    1    3    3    0    0  0.26789593354E+00  0.12046752204E+01 -0.61747827193E+01  0.62969002303E+01  0.51100000000E-03 0.  1.
        -12    1    3    3    0    0  0.34247163247E+02 -0.22846097452E+02 -0.20685219220E+01  0.41220033263E+02  0.00000000000E+00 0.  1.
</event>
<event>
 7    1  0.1971192E-015  0.9000775E+02  0.7816164E-02  0.1186339E+00
        -11   -1    0    0    0    0  0.00000000000E+00  0.00000000000E+00  0.45593999997E+02  0.45594000000E+02  0.51100000000E-03 0.  1.
         11   -1    0    0    0    0 -0.00000000000E+00 -0.00000000000E+00 -0.45593999997E+02  0.45594000000E+02  0.51100000000E-03 0. -1.
    9900012    2    1    2    0    0 -0.78791053645E+00 -0.65043865898E+00  0.59086420290E+00  0.90007748345E+02  0.90000009823E+02 0.  0.
         12    1    1    2    0    0  0.78791053645E+00  0.65043865898E+00 -0.59086420290E+00  0.11802516549E+01  0.00000000000E+00 0. -1.
         11    1    3    3    0    0 -0.35294111688E+02 -0.14054992235E+02 -0.88703296426E+01  0.39011535151E+02  0.51100000000E-03 0. -1.
        -11    1    3    3    0    0 -0.64772296824E+01  0.47611496965E+01 -0.75818937651E-01  0.80392039135E+01  0.51100000000E-03 0.  1.
        -12    1    3    3    0    0  0.40983430834E+02  0.86434038796E+01  0.95370127832E+01  0.42957009281E+02  0.00000000000E+00 0.  1.
</event>
<event>
 7    1  0.1971192E-015  0.9000783E+02  0.7816164E-02  0.1186339E+00
        -11   -1    0    0    0    0  0.00000000000E+00  0.00000000000E+00  0.45593999997E+02  0.45594000000E+02  0.51100000000E-03 0.  1.
         11   -1    0    0    0    0 -0.00000000000E+00 -0.00000000000E+00 -0.45593999997E+02  0.45594000000E+02  0.51100000000E-03 0. -1.
    9900012    2    1    2    0    0 -0.11710754229E+01  0.12086556188E+00 -0.82286415639E-01  0.90007831714E+02  0.90000094292E+02 0.  0.
         12    1    1    2    0    0  0.11710754229E+01 -0.12086556188E+00  0.82286415639E-01  0.11801682864E+01  0.00000000000E+00 0. -1.
         11    1    3    3    0    0 -0.18452816219E+02  0.21481938474E+02 -0.27638904774E+02  0.39571317445E+02  0.51100000000E-03 0. -1.
        -11    1    3    3    0    0 -0.73985146405E+01 -0.41407131406E+01 -0.14932208486E+01  0.86089042835E+01  0.51100000000E-03 0.  1.
        -12    1    3    3    0    0  0.24680255437E+02 -0.17220359771E+02  0.29049839207E+02  0.41827609985E+02  0.00000000000E+00 0.  1.
</event>
<event>
 7    1  0.1971192E-015  0.9000774E+02  0.7816164E-02  0.1186339E+00
        -11   -1    0    0    0    0  0.00000000000E+00  0.00000000000E+00  0.45593999997E+02  0.45594000000E+02  0.51100000000E-03 0. -1.
         11   -1    0    0    0    0 -0.00000000000E+00 -0.00000000000E+00 -0.45593999997E+02  0.45594000000E+02  0.51100000000E-03 0.  1.
    9900012    2    1    2    0    0 -0.53034542972E+00  0.45065437401E+00 -0.95323833660E+00  0.90007737755E+02  0.89999999094E+02 0.  0.
         12    1    1    2    0    0  0.53034542972E+00 -0.45065437401E+00  0.95323833660E+00  0.11802622446E+01  0.00000000000E+00 0. -1.
         11    1    3    3    0    0 -0.46969017849E+01  0.37746190467E+02 -0.11219991627E+02  0.39657584313E+02  0.51100000000E-03 0. -1.
        -11    1    3    3    0    0  0.29287075068E+01  0.29502742901E+01  0.91723685021E+01  0.10070441413E+02  0.51100000000E-03 0.  1.
        -12    1    3    3    0    0  0.12378488483E+01 -0.40245810383E+02  0.10943847881E+01  0.40279712030E+02  0.00000000000E+00 0.  1.
</event>
<event>
 7    1  0.1971192E-015  0.9000788E+02  0.7816164E-02  0.1186339E+00
        -11   -1    0    0    0    0  0.00000000000E+00  0.00000000000E+00  0.45593999997E+02  0.45594000000E+02  0.51100000000E-03 0. -1.
         11   -1    0    0    0    0 -0.00000000000E+00 -0.00000000000E+00 -0.45593999997E+02  0.45594000000E+02  0.51100000000E-03 0.  1.
    9900012    2    1    2    0    0 -0.10135319060E+01  0.40079168758E+00 -0.45256345374E+00  0.90007875184E+02  0.90000138336E+02 0.  0.
         12    1    1    2    0    0  0.10135319060E+01 -0.40079168758E+00  0.45256345374E+00  0.11801248159E+01  0.00000000000E+00 0. -1.
         11    1    3    3    0    0  0.43205857386E+01  0.71435763866E+01 -0.22275642740E+01  0.86406126850E+01  0.51100000000E-03 0. -1.
        -11    1    3    3    0    0  0.16147750713E+02  0.94580811165E+01 -0.32675449119E+02  0.37654881847E+02  0.51100000000E-03 0.  1.
         12    1    3    3    0    0 -0.21481868357E+02 -0.16200865815E+02  0.34450449939E+02  0.43712380653E+02  0.00000000000E+00 0. -1.
</event>
<event>
 7    1  0.1971192E-015  0.9000775E+02  0.7816164E-02  0.1186339E+00
        -11   -1    0    0    0    0  0.00000000000E+00  0.00000000000E+00  0.45593999997E+02  0.45594000000E+02  0.51100000000E-03 0.  1.
         11   -1    0    0    0    0 -0.00000000000E+00 -0.00000000000E+00 -0.45593999997E+02  0.45594000000E+02  0.51100000000E-03 0. -1.
    9900012    2    1    2    0    0 -0.38956186094E+00  0.13482884106E+00  0.11059144195E+01  0.90007752584E+02  0.90000014118E+02 0.  0.
         12    1    1    2    0    0  0.38956186094E+00 -0.13482884106E+00 -0.11059144195E+01  0.11802474160E+01  0.00000000000E+00 0. -1.
         11    1    3    3    0    0 -0.53609412486E+01 -0.78292269996E+00 -0.91395095620E+01  0.10624655021E+02  0.51100000000E-03 0. -1.
        -11    1    3    3    0    0 -0.20737750492E+01  0.37948458831E+02  0.16029116293E+02  0.41247044015E+02  0.51100000000E-03 0.  1.
         12    1    3    3    0    0  0.70451544369E+01 -0.37030707290E+02 -0.57836923113E+01  0.38136053548E+02  0.00000000000E+00 0. -1.
</event>
<event>
 7    1  0.1971192E-015  0.9000779E+02  0.7816164E-02  0.1186339E+00
        -11   -1    0    0    0    0  0.00000000000E+00  0.00000000000E+00  0.45593999997E+02  0.45594000000E+02  0.51100000000E-03 0. -1.
         11   -1    0    0    0    0 -0.00000000000E+00 -0.00000000000E+00 -0.45593999997E+02  0.45594000000E+02  0.51100000000E-03 0.  1.
    9900012    2    1    2    0    0 -0.90703173821E+00  0.67726205428E+00  0.33391748268E+00  0.90007791819E+02  0.90000053871E+02 0.  0.
         12    1    1    2    0    0  0.90703173821E+00 -0.67726205428E+00 -0.33391748268E+00  0.11802081806E+01  0.00000000000E+00 0. -1.
         11    1    3    3    0    0  0.30380760163E+02 -0.16432182420E+02  0.25992388593E+02  0.43227438881E+02  0.51100000000E-03 0. -1.
        -11    1    3    3    0    0 -0.20178514979E+01  0.23621260864E+01 -0.99720033998E+01  0.10444721939E+02  0.51100000000E-03 0.  1.
        -12    1    3    3    0    0 -0.29269940404E+02  0.14747318387E+02 -0.15686467711E+02  0.36335630999E+02  0.00000000000E+00 0.  1.
</event>
<event>
 7    1  0.1971192E-015  0.9000774E+02  0.7816164E-02  0.1186339E+00
        -11   -1    0    0    0    0  0.00000000000E+00  0.00000000000E+00  0.45593999997E+02  0.45594000000E+02  0.51100000000E-03 0.  1.
         11   -1    0    0    0    0 -0.00000000000E+00 -0.00000000000E+00 -0.45593999997E+02  0.45594000000E+02  0.51100000000E-03 0. -1.
    9900012    2    1    2    0    0  0.95619933153E+00  0.55315085479E+00  0.41560181128E+00  0.90007738209E+02  0.89999999553E+02 0.  0.
         12    1    1    2    0    0 -0.95619933153E+00 -0.55315085479E+00 -0.41560181128E+00  0.11802617910E+01  0.00000000000E+00 0. -1.
         11    1    3    3    0    0  0.86645937066E+00 -0.50750468678E+01  0.82195994257E+01  0.96989003259E+01  0.51100000000E-03 0. -1.
        -11    1    3    3    0    0  0.22542340017E+02  0.34588965032E+02  0.47833195153E+01  0.41562407790E+02  0.51100000000E-03 0.  1.
         12    1    3    3    0    0 -0.22452600056E+02 -0.28960767310E+02 -0.12587317130E+02  0.38746430093E+02  0.00000000000E+00 0. -1.
</event>
<event>
 7    1  0.1971192E-015  0.9000779E+02  0.7816164E-02  0.1186339E+00
        -11   -1    0    0    0    0  0.00000000000E+00  0.00000000000E+00  0.45593999997E+02  0.45594000000E+02  0.51100000000E-03 0.  1.
         11   -1    0    0    0    0 -0.00000000000E+00 -0.00000000000E+00 -0.45593999997E+02  0.45594000000E+02  0.51100000000E-03 0. -1.
    9900012    2    1    2    0    0  0.82567850815E+00  0.80491510366E+00  0.25153140505E+00  0.90007787574E+02  0.90000049570E+02 0.  0.
         12    1    1    2    0    0 -0.82567850815E+00 -0.80491510366E+00 -0.25153140505E+00  0.11802124261E+01  0.00000000000E+00 0. -1.
         11    1    3    3    0    0 -0.60237729577E+00  0.68427902747E+01 -0.71445871866E+01  0.99111938473E+01  0.51100000000E-03 0. -1.
        -11    1    3    3    0    0  0.22436601320E+01  0.36565500295E+02  0.79270623002E+01  0.37482104257E+02  0.51100000000E-03 0.  1.
         12    1    3    3    0    0 -0.81560432803E+00 -0.42603375466E+02 -0.53094370862E+00  0.42614489469E+02  0.00000000000E+00 0. -1.
</event>
<event>
 7    1  0.1971192E-015  0.9000778E+02  0.7816164E-02  0.1186339E+00
        -11   -1    0    0    0    0  0.00000000000E+00  0.00000000000E+00  0.45593999997E+02  0.45594000000E+02  0.51100000000E-03 0. -1.
         11   -1    0    0    0    0 -0.00000000000E+00 -0.00000000000E+00 -0.45593999997E+02  0.45594000000E+02  0.51100000000E-03 0.  1.
    9900012    2    1    2    0    0  0.14775805516E+00  0.10571962737E+00 -0.11661496192E+01  0.90007782216E+02  0.90000044142E+02 0.  0.
         12    1    1    2    0    0 -0.14775805516E+00 -0.10571962737E+00  0.11661496192E+01  0.11802177836E+01  0.00000000000E+00 0. -1.
         11    1    3    3    0    0  0.69579913262E+01 -0.23290937634E+01 -0.60001350101E+01  0.94783934006E+01  0.51100000000E-03 0. -1.
        -11    1    3    3    0    0  0.25574514829E+02  0.20773694461E+02 -0.17314320757E+02  0.37220799210E+02  0.51100000000E-03 0.  1.
         12    1    3    3    0    0 -0.32384748100E+02 -0.18338881070E+02  0.22148306148E+02  0.43308589606E+02  0.00000000000E+00 0. -1.
</event>
<event>
 7    1  0.1971192E-015  0.9000765E+02  0.7816164E-02  0.1186339E+00
        -11   -1    0    0    0    0  0.00000000000E+00  0.00000000000E+00  0.45593999997E+02  0.45594000000E+02  0.51100000000E-03 0.  1.
         11   -1    0    0    0    0 -0.00000000000E+00 -0.00000000000E+00 -0.45593999997E+02  0.45594000000E+02  0.51100000000E-03 0. -1.
    9900012    2    1    2    0    0  0.43846249520E+00  0.32755039219E+00  0.10457942082E+01  0.90007650838E+02  0.89999911029E+02 0.  0.
         12    1    1    2    0    0 -0.43846249520E+00 -0.32755039219E+00 -0.10457942082E+01  0.11803491624E+01  0.00000000000E+00 0. -1.
         11    1    3    3    0    0  0.75472980275E+01 -0.25753008633E+02 -0.24769905078E+02  0.36520232187E+02  0.51100000000E-03 0. -1.
        -11    1    3    3    0    0  0.69421943416E+01 -0.19231266401E+01 -0.55957712767E+01  0.91216848659E+01  0.51100000000E-03 0.  1.
        -12    1    3    3    0    0 -0.14051029874E+02  0.28003685665E+02  0.31411470563E+02  0.44365733785E+02  0.00000000000E+00 0.  1.
</event>
<event>
 7    1  0.1971192E-015  0.9000772E+02  0.7816164E-02  0.1186339E+00
        -11   -1    0    0    0    0  0.00000000000E+00  0.00000000000E+00  0.45593999997E+02  0.45594000000E+02  0.51100000000E-03 0. -1.
         11   -1    0    0    0    0 -0.00000000000E+00 -0.00000000000E+00 -0.45593999997E+02  0.45594000000E+02  0.51100000000E-03 0.  1.
    9900012    2    1    2    0    0 -0.21741582527E+00 -0.49536297349E+00 -0.10490025454E+01  0.90007720179E+02  0.89999981285E+02 0.  0.
         12    1    1    2    0    0  0.21741582527E+00  0.49536297349E+00  0.10490025454E+01  0.11802798214E+01  0.00000000000E+00 0. -1.
         11    1    3    3    0    0  0.63560388369E+01 -0.39683873545E+02  0.32905233143E+01  0.40324144048E+02  0.51100000000E-03 0. -1.
        -11    1    3    3    0    0  0.65203420727E+01  0.98341517739E+00 -0.64735971589E+01  0.92406399450E+01  0.51100000000E-03 0.  1.
        -12    1    3    3    0    0 -0.13093796735E+02  0.38205095394E+02  0.21340712992E+01  0.40442936186E+02  0.00000000000E+00 0.  1.
</event>
<event>
 7    1  0.1971192E-015  0.9000774E+02  0.7816164E-02  0.1186339E+00
        -11   -1    0    0    0    0  0.00000000000E+00  0.00000000000E+00  0.45593999997E+02  0.45594000000E+02  0.51100000000E-03 0.  1.
         11   -1    0    0    0    0 -0.00000000000E+00 -0.00000000000E+00 -0.45593999997E+02  0.45594000000E+02  0.51100000000E-03 0. -1.
    9900012    2    1    2    0    0 -0.63778162846E+00  0.68481782243E+00  0.71922445801E+00  0.90007735336E+02  0.89999996643E+02 0.  0.
         12    1    1    2    0    0  0.63778162846E+00 -0.68481782243E+00 -0.71922445801E+00  0.11802646638E+01  0.00000000000E+00 0. -1.
         11    1    3    3    0    0  0.13259787256E+01  0.60842370858E+01  0.53821246459E+01  0.82306394929E+01  0.51100000000E-03 0. -1.
        -11    1    3    3    0    0 -0.30943303093E+02  0.34092021271E+01  0.24588152586E+02  0.39669735483E+02  0.51100000000E-03 0.  1.
         12    1    3    3    0    0  0.28979542739E+02 -0.88086213905E+01 -0.29251052774E+02  0.42107360360E+02  0.00000000000E+00 0. -1.
</event>
<event>
 7    1  0.1971192E-015  0.9000762E+02  0.7816164E-02  0.1186339E+00
        -11   -1    0    0    0    0  0.00000000000E+00  0.00000000000E+00  0.45593999997E+02  0.45594000000E+02  0.51100000000E-03 0. -1.
         11   -1    0    0    0    0 -0.00000000000E+00 -0.00000000000E+00 -0.45593999997E+02  0.45594000000E+02  0.51100000000E-03 0.  1.
    9900012    2    1    2    0    0  0.13770984035E+00  0.11699798323E+01  0.73970197376E-01  0.90007623620E+02  0.89999883452E+02 0.  0.
         12    1    1    2    0    0 -0.13770984035E+00 -0.11699798323E+01 -0.73970197376E-01  0.11803763799E+01  0.00000000000E+00 0. -1.
         11    1    3    3    0    0  0.79559789582E+01  0.34613417451E+02  0.16065735794E+02  0.38980689267E+02  0.51100000000E-03 0. -1.
        -11    1    3    3    0    0 -0.43613340994E+01  0.46712584872E+01  0.43061962860E+01  0.77061804869E+01  0.51100000000E-03 0.  1.
        -12    1    3    3    0    0 -0.34569350184E+01 -0.38114696106E+02 -0.20297961882E+02  0.43320753867E+02  0.00000000000E+00 0.  1.
</event>
<event>
 7    1  0.1971192E-015  0.9000774E+02  0.7816164E-02  0.1186339E+00
        -11   -1    0    0    0    0  0.00000000000E+00  0.00000000000E+00  0.45593999997E+02  0.45594000000E+02  0.51100000000E-03 0.  1.
         11   -1    0    0    0    0 -0.00000000000E+00 -0.00000000000E+00 -0.45593999997E+02  0.45594000000E+02  0.51100000000E-03 0. -1.
    9900012    2    1    2    0    0 -0.56468653379E+00  0.17704984667E+00  0.10211714268E+01  0.90007742142E+02  0.90000003538E+02 0.  0.
         12    1    1    2    0    0  0.56468653379E+00 -0.17704984667E+00 -0.10211714268E+01  0.11802578585E+01  0.00000000000E+00 0. -1.
         11    1    3    3    0    0  0.76430291425E+01  0.66803515331E+01 -0.58946487319E+00  0.10168109961E+02  0.51100000000E-03 0. -1.
        -11    1    3    3    0    0 -0.36324633993E+02  0.15304391931E+02  0.14492434839E+02  0.41996834582E+02  0.51100000000E-03 0.  1.
         12    1    3    3    0    0  0.28116918316E+02 -0.21807693617E+02 -0.12881798539E+02  0.37842797599E+02  0.00000000000E+00 0. -1.
</event>
<event>
 7    1  0.1971192E-015  0.9000791E+02  0.7816164E-02  0.1186339E+00
        -11   -1    0    0    0    0  0.00000000000E+00  0.00000000000E+00  0.45593999997E+02  0.45594000000E+02  0.51100000000E-03 0. -1.
         11   -1    0    0    0    0 -0.00000000000E+00 -0.00000000000E+00 -0.45593999997E+02  0.45594000000E+02  0.51100000000E-03 0.  1.
    9900012    2    1    2    0    0 -0.16876982452E+00 -0.62750915107E-01 -0.11662678155E+01  0.90007914601E+02  0.90000178274E+02 0.  0.
         12    1    1    2    0    0  0.16876982452E+00  0.62750915107E-01  0.11662678155E+01  0.11800853988E+01  0.00000000000E+00 0. -1.
         11    1    3    3    0    0 -0.43368438312E+01 -0.87366141303E+01  0.21390848102E-01  0.97538248245E+01  0.51100000000E-03 0. -1.
        -11    1    3    3    0    0 -0.42854897682E+01 -0.19057402867E+02 -0.32288030253E+02  0.37736811265E+02  0.51100000000E-03 0.  1.
         12    1    3    3    0    0  0.84535637749E+01  0.27731266082E+02  0.31100371590E+02  0.42517278511E+02  0.00000000000E+00 0. -1.
</event>
<event>
 7    1  0.1971192E-015  0.9000832E+02  0.7816164E-02  0.1186338E+00
        -11   -1    0    0    0    0  0.00000000000E+00  0.00000000000E+00  0.45593999997E+02  0.45594000000E+02  0.51100000000E-03 0.  1.
         11   -1    0    0    0    0 -0.00000000000E+00 -0.00000000000E+00 -0.45593999997E+02  0.45594000000E+02  0.51100000000E-03 0. -1.
    9900012    2    1    2    0    0 -0.38014767057E+00 -0.10139705448E+01 -0.46797178209E+00  0.90008319490E+02  0.90000588505E+02 0.  0.
         12    1    1    2    0    0  0.38014767057E+00  0.10139705448E+01  0.46797178209E+00  0.11796805101E+01  0.00000000000E+00 0. -1.
         11    1    3    3    0    0 -0.35933749718E+02  0.78194587740E+01  0.22052266741E+01  0.36840756362E+02  0.51100000000E-03 0. -1.
        -11    1    3    3    0    0  0.48224338132E+01  0.90748053540E+01 -0.12581330358E+02  0.16244932562E+02  0.51100000000E-03 0.  1.
        -12    1    3    3    0    0  0.30731168235E+02 -0.17908234673E+02  0.99081319020E+01  0.36922630566E+02  0.00000000000E+00 0.  1.
</event>
<event>
 7    1  0.1971192E-015  0.9000840E+02  0.7816164E-02  0.1186338E+00
        -11   -1    0    0    0    0  0.00000000000E+00  0.00000000000E+00  0.45593999997E+02  0.45594000000E+02  0.51100000000E-03 0. -1.
         11   -1    0    0    0    0 -0.00000000000E+00 -0.00000000000E+00 -0.45593999997E+02  0.45594000000E+02  0.51100000000E-03 0.  1.
    9900012    2    1    2    0    0  0.39999025176E+00 -0.94550985705E+00 -0.58093491221E+00  0.90008395633E+02  0.90000665653E+02 0.  0.
         12    1    1    2    0    0 -0.39999025176E+00  0.94550985705E+00  0.58093491221E+00  0.11796043674E+01  0.00000000000E+00 0. -1.
         11    1    3    3    0    0  0.42955206594E+01  0.12992712183E+02 -0.41947781080E+01  0.14312869427E+02  0.51100000000E-03 0. -1.
        -11    1    3    3    0    0 -0.32620136623E+01  0.10110741950E+02 -0.31436643755E+02  0.33183285051E+02  0.51100000000E-03 0.  1.
         12    1    3    3    0    0 -0.63351674540E+00 -0.24048963990E+02  0.35050486951E+02  0.42512241154E+02  0.00000000000E+00 0. -1.
</event>
<event>
 7    1  0.1971192E-015  0.9000777E+02  0.7816164E-02  0.1186339E+00
        -11   -1    0    0    0    0  0.00000000000E+00  0.00000000000E+00  0.45593999997E+02  0.45594000000E+02  0.51100000000E-03 0.  1.
         11   -1    0    0    0    0 -0.00000000000E+00 -0.00000000000E+00 -0.45593999997E+02  0.45594000000E+02  0.51100000000E-03 0. -1.
    9900012    2    1    2    0    0 -0.90466266311E+00 -0.72752124552E+00  0.21269691819E+00  0.90007770499E+02  0.90000032269E+02 0.  0.
         12    1    1    2    0    0  0.90466266311E+00  0.72752124552E+00 -0.21269691819E+00  0.11802295013E+01  0.00000000000E+00 0. -1.
         11    1    3    3    0    0 -0.20643714999E+01 -0.81745976224E+01  0.57049659127E+01  0.10179995693E+02  0.51100000000E-03 0. -1.
        -11    1    3    3    0    0 -0.53896383850E+01 -0.19145707905E+02  0.29384395667E+02  0.35483081068E+02  0.51100000000E-03 0.  1.
         12    1    3    3    0    0  0.65493472218E+01  0.26592784282E+02 -0.34876664661E+02  0.44344693738E+02  0.00000000000E+00 0. -1.
</event>
<event>
 7    1  0.1971192E-015  0.9000755E+02  0.7816164E-02  0.1186339E+00
        -11   -1    0    0    0    0  0.00000000000E+00  0.00000000000E+00  0.45593999997E+02  0.45594000000E+02  0.51100000000E-03 0.  1.
         11   -1    0    0    0    0 -0.00000000000E+00 -0.00000000000E+00 -0.45593999997E+02  0.45594000000E+02  0.51100000000E-03 0. -1.
    9900012    2    1    2    0    0 -0.59696844249E-01  0.59636642013E+00  0.10169841140E+01  0.90007545296E+02  0.89999804094E+02 0.  0.
         12    1    1    2    0    0  0.59696844249E-01 -0.59636642013E+00 -0.10169841140E+01  0.11804547041E+01  0.00000000000E+00 0. -1.
         11    1    3    3    0    0  0.93990599098E+01  0.19188170410E+02 -0.36067519469E+02  0.41921285426E+02  0.51100000000E-03 0. -1.
        -11    1    3    3    0    0 -0.35995968983E+01 -0.61556417681E+01 -0.13585488215E+01  0.72591100397E+01  0.51100000000E-03 0.  1.
        -12    1    3    3    0    0 -0.58591598557E+01 -0.12436162222E+02  0.38443052405E+02  0.40827149830E+02  0.00000000000E+00 0.  1.
</event>
<event>
 7    1  0.1971192E-015  0.9000775E+02  0.7816164E-02  0.1186339E+00
        -11   -1    0    0    0    0  0.00000000000E+00  0.00000000000E+00  0.45593999997E+02  0.45594000000E+02  0.51100000000E-03 0.  1.
         11   -1    0    0    0    0 -0.00000000000E+00 -0.00000000000E+00 -0.45593999997E+02  0.45594000000E+02  0.51100000000E-03 0. -1.
    9900012    2    1    2    0    0  0.35988561415E+00  0.32306832763E+00  0.10766174580E+01  0.90007747506E+02  0.90000008973E+02 0.  0.
         12    1    1    2    0    0 -0.35988561415E+00 -0.32306832763E+00 -0.10766174580E+01  0.11802524944E+01  0.00000000000E+00 0. -1.
         11    1    3    3    0    0 -0.15508807986E+02 -0.10526664521E+02 -0.30556108285E+02  0.35847029791E+02  0.51100000000E-03 0. -1.
        -11    1    3    3    0    0 -0.86861310722E+01 -0.50244059711E-01 -0.39770839453E+01  0.95534598151E+01  0.51100000000E-03 0.  1.
        -12    1    3    3    0    0  0.24554824672E+02  0.10899976909E+02  0.35609809688E+02  0.44607257899E+02  0.00000000000E+00 0.  1.
</event>
<event>
 7    1  0.1971192E-015  0.9000767E+02  0.7816164E-02  0.1186339E+00
        -11   -1    0    0    0    0  0.00000000000E+00  0.00000000000E+00  0.45593999997E+02  0.45594000000E+02  0.51100000000E-03 0. -1.
         11   -1    0    0    0    0 -0.00000000000E+00 -0.00000000000E+00 -0.45593999997E+02  0.45594000000E+02  0.51100000000E-03 0.  1.
    9900012    2    1    2    0    0  0.60208771774E+00 -0.75415258324E+00 -0.67964682486E+00  0.90007671425E+02  0.89999931888E+02 0.  0.
         12    1    1    2    0    0 -0.60208771774E+00  0.75415258324E+00  0.67964682486E+00  0.11803285751E+01  0.00000000000E+00 0. -1.
         11    1    3    3    0    0  0.13332600120E+02  0.27282201173E+02  0.19205805153E+02  0.35929649019E+02  0.51100000000E-03 0. -1.
        -11    1    3    3    0    0 -0.71384270297E+01  0.72276577714E+01  0.42175797082E+01  0.10999279803E+02  0.51100000000E-03 0.  1.
        -12    1    3    3    0    0 -0.55920853725E+01 -0.35264011528E+02 -0.24103031686E+02  0.43078742603E+02  0.00000000000E+00 0.  1.
</event>
<event>
 7    1  0.1971192E-015  0.9000792E+02  0.7816164E-02  0.1186339E+00
        -11   -1    0    0    0    0  0.00000000000E+00  0.00000000000E+00  0.45593999997E+02  0.45594000000E+02  0.51100000000E-03 0.  1.
         11   -1    0    0    0    0 -0.00000000000E+00 -0.00000000000E+00 -0.45593999997E+02  0.45594000000E+02  0.51100000000E-03 0. -1.
    9900012    2    1    2    0    0  0.89020855774E-01  0.10508070695E+01  0.52960048534E+00  0.90007916577E+02  0.90000180276E+02 0.  0.
         12    1    1    2    0    0 -0.89020855774E-01 -0.10508070695E+01 -0.52960048534E+00  0.11800834225E+01  0.00000000000E+00 0. -1.
         11    1    3    3    0    0 -0.29455927513E+02  0.22126783712E+02  0.23521960632E+01  0.36915837382E+02  0.51100000000E-03 0. -1.
        -11    1    3    3    0    0 -0.83689621580E+01 -0.18954735075E+01  0.51891330090E+01  0.10027933439E+02  0.51100000000E-03 0.  1.
        -12    1    3    3    0    0  0.37913910526E+02 -0.19180503135E+02 -0.70117285868E+01  0.43064145756E+02  0.00000000000E+00 0.  1.
</event>
<event>
 7    1  0.1971192E-015  0.9000772E+02  0.7816164E-02  0.1186339E+00
        -11   -1    0    0    0    0  0.00000000000E+00  0.00000000000E+00  0.45593999997E+02  0.45594000000E+02  0.51100000000E-03 0.  1.
         11   -1    0    0    0    0 -0.00000000000E+00 -0.00000000000E+00 -0.45593999997E+02  0.45594000000E+02  0.51100000000E-03 0. -1.
    9900012    2    1    2    0    0 -0.12284520679E+00 -0.11089255371E+01  0.38504262692E+00  0.90007718417E+02  0.89999979500E+02 0.  0.
         12    1    1    2    0    0  0.12284520679E+00  0.11089255371E+01 -0.38504262692E+00  0.11802815834E+01  0.00000000000E+00 0. -1.
         11    1    3    3    0    0 -0.92139035853E+01  0.26247776687E+01 -0.11821503282E+01  0.96531319658E+01  0.51100000000E-03 0. -1.
        -11    1    3    3    0    0  0.23364595057E+02  0.33277278001E+02  0.13507549921E+00  0.40660789207E+02  0.51100000000E-03 0.  1.
         12    1    3    3    0    0 -0.14273536678E+02 -0.37010981207E+02  0.14321174559E+01  0.39693797243E+02  0.00000000000E+00 0. -1.
</event>
<event>
 7    1  0.1971192E-015  0.9000769E+02  0.7816164E-02  0.1186339E+00
        -11   -1    0    0    0    0  0.00000000000E+00  0.00000000000E+00  0.45593999997E+02  0.45594000000E+02  0.51100000000E-03 0.  1.
         11   -1    0    0    0    0 -0.00000000000E+00 -0.00000000000E+00 -0.45593999997E+02  0.45594000000E+02  0.51100000000E-03 0. -1.
    9900012    2    1    2    0    0  0.26563362619E+00  0.98504620634E+00 -0.59351686643E+00  0.90007686685E+02  0.89999947349E+02 0.  0.
         12    1    1    2    0    0 -0.26563362619E+00 -0.98504620634E+00  0.59351686643E+00  0.11803133155E+01  0.00000000000E+00 0. -1.
         11    1    3    3    0    0  0.83824795855E+00  0.87538063843E+01 -0.10074306050E+01  0.88513672695E+01  0.51100000000E-03 0. -1.
        -11    1    3    3    0    0  0.23911536789E+02  0.18748084667E+01  0.32034353931E+02  0.40018449875E+02  0.51100000000E-03 0.  1.
         12    1    3    3    0    0 -0.24484151122E+02 -0.96435686447E+01 -0.31620440192E+02  0.41137869540E+02  0.00000000000E+00 0. -1.
</event>
<event>
 7    1  0.1971192E-015  0.9000774E+02  0.7816164E-02  0.1186339E+00
        -11   -1    0    0    0    0  0.00000000000E+00  0.00000000000E+00  0.45593999997E+02  0.45594000000E+02  0.51100000000E-03 0.  1.
         11   -1    0    0    0    0 -0.00000000000E+00 -0.00000000000E+00 -0.45593999997E+02  0.45594000000E+02  0.51100000000E-03 0. -1.
    9900012    2    1    2    0    0 -0.11362662965E+01 -0.30248232007E+00 -0.10210630815E+00  0.90007736322E+02  0.89999997642E+02 0.  0.
         12    1    1    2    0    0  0.11362662965E+01  0.30248232007E+00  0.10210630815E+00  0.11802636776E+01  0.00000000000E+00 0. -1.
         11    1    3    3    0    0 -0.26742593336E+02  0.87699267577E+01 -0.17486815346E+02  0.33134070454E+02  0.51100000000E-03 0. -1.
        -11    1    3    3    0    0 -0.43132760119E+01  0.60452413082E+01 -0.10780003710E+02  0.13090369463E+02  0.51100000000E-03 0.  1.
        -12    1    3    3    0    0  0.29919603051E+02 -0.15117650386E+02  0.28164712748E+02  0.43783296405E+02  0.00000000000E+00 0.  1.
</event>
<event>
 7    1  0.1971192E-015  0.9000778E+02  0.7816164E-02  0.1186339E+00
        -11   -1    0    0    0    0  0.00000000000E+00  0.00000000000E+00  0.45593999997E+02  0.45594000000E+02  0.51100000000E-03 0.  1.
         11   -1    0    0    0    0 -0.00000000000E+00 -0.00000000000E+00 -0.45593999997E+02  0.45594000000E+02  0.51100000000E-03 0. -1.
    9900012    2    1    2    0    0 -0.55696659885E+00  0.44873239681E+00  0.93880692422E+00  0.90007775023E+02  0.90000036853E+02 0.  0.
         12    1    1    2    0    0  0.55696659885E+00 -0.44873239681E+00 -0.93880692422E+00  0.11802249773E+01  0.00000000000E+00 0. -1.
         11    1    3    3    0    0 -0.59176399820E+01 -0.50929536735E+01 -0.94579904060E-01  0.78080462151E+01  0.51100000000E-03 0. -1.
        -11    1    3    3    0    0 -0.33958071555E+02 -0.15720403153E+02  0.22013250325E+01  0.37485030762E+02  0.51100000000E-03 0.  1.
         12    1    3    3    0    0  0.39318744938E+02  0.21262089223E+02 -0.11679382042E+01  0.44714698046E+02  0.00000000000E+00 0. -1.
</event>
<event>
 7    1  0.1971192E-015  0.9000764E+02  0.7816164E-02  0.1186339E+00
        -11   -1    0    0    0    0  0.00000000000E+00  0.00000000000E+00  0.45593999997E+02  0.45594000000E+02  0.51100000000E-03 0.  1.
         11   -1    0    0    0    0 -0.00000000000E+00 -0.00000000000E+00 -0.45593999997E+02  0.45594000000E+02  0.51100000000E-03 0. -1.
    9900012    2    1    2    0    0 -0.26602340588E+00 -0.48393022603E+00  0.10432141411E+01  0.90007638759E+02  0.89999898790E+02 0.  0.
         12    1    1    2    0    0  0.26602340588E+00  0.48393022603E+00 -0.10432141411E+01  0.11803612415E+01  0.00000000000E+00 0. -1.
         11    1    3    3    0    0 -0.43872899254E+01 -0.65004017334E+01  0.11083957573E+02  0.13577836769E+02  0.51100000000E-03 0. -1.
        -11    1    3    3    0    0 -0.36095604035E+01 -0.11756571450E+02  0.29737949533E+02  0.32180608156E+02  0.51100000000E-03 0.  1.
         12    1    3    3    0    0  0.77308269230E+01  0.17773042957E+02 -0.39778692966E+02  0.44249193834E+02  0.00000000000E+00 0. -1.
</event>
<event>
 7    1  0.3340261E-015  0.9000779E+02  0.7816164E-02  0.1186339E+00
        -11   -1    0    0    0    0  0.00000000000E+00  0.00000000000E+00  0.45593999997E+02  0.45594000000E+02  0.51100000000E-03 0. -1.
         11   -1    0    0    0    0 -0.00000000000E+00 -0.00000000000E+00 -0.45593999997E+02  0.45594000000E+02  0.51100000000E-03 0.  1.
    9900012    2    1    2    0    0  0.36196810502E-01 -0.42141300387E+00 -0.11018114854E+01  0.90007793375E+02  0.90000055447E+02 0.  0.
         12    1    1    2    0    0 -0.36196810502E-01  0.42141300387E+00  0.11018114854E+01  0.11802066252E+01  0.00000000000E+00 0. -1.
         11    1    3    3    0    0  0.20258042051E+00 -0.17537405351E+02  0.34131923544E+02  0.38374338174E+02  0.51100000000E-03 0. -1.
        -11    1    3    3    0    0  0.86807759592E+01  0.36057195750E+01  0.32121316118E+01  0.99335227719E+01  0.51100000000E-03 0.  1.
        -12    1    3    3    0    0 -0.88471595692E+01  0.13510272772E+02 -0.38445866641E+02  0.41699932429E+02  0.00000000000E+00 0.  1.
</event>
<event>
 7    1  0.1971192E-015  0.9000768E+02  0.7816164E-02  0.1186339E+00
        -11   -1    0    0    0    0  0.00000000000E+00  0.00000000000E+00  0.45593999997E+02  0.45594000000E+02  0.51100000000E-03 0.  1.
         11   -1    0    0    0    0 -0.00000000000E+00 -0.00000000000E+00 -0.45593999997E+02  0.45594000000E+02  0.51100000000E-03 0. -1.
    9900012    2    1    2    0    0 -0.74088488862E+00  0.82084537605E-01  0.91515497705E+00  0.90007679314E+02  0.89999939881E+02 0.  0.
         12    1    1    2    0    0  0.74088488862E+00 -0.82084537605E-01 -0.91515497705E+00  0.11803206859E+01  0.00000000000E+00 0. -1.
         11    1    3    3    0    0 -0.39566876331E+02 -0.16189140695E+02 -0.78246718373E+01  0.43460918866E+02  0.51100000000E-03 0. -1.
        -11    1    3    3    0    0  0.61145526435E+01  0.39348781628E+01  0.90193560106E+01  0.11585327069E+02  0.51100000000E-03 0.  1.
        -12    1    3    3    0    0  0.32711438799E+02  0.12336347070E+02 -0.27952919625E+00  0.34961433379E+02  0.00000000000E+00 0.  1.
</event>
<event>
 7    1  0.1971192E-015  0.9000749E+02  0.7816164E-02  0.1186340E+00
        -11   -1    0    0    0    0  0.00000000000E+00  0.00000000000E+00  0.45593999997E+02  0.45594000000E+02  0.51100000000E-03 0. -1.
         11   -1    0    0    0    0 -0.00000000000E+00 -0.00000000000E+00 -0.45593999997E+02  0.45594000000E+02  0.51100000000E-03 0.  1.
    9900012    2    1    2    0    0 -0.39104832416E+00 -0.88757629893E+00  0.67297746395E+00  0.90007487762E+02  0.89999745800E+02 0.  0.
         12    1    1    2    0    0  0.39104832416E+00  0.88757629893E+00 -0.67297746395E+00  0.11805122385E+01  0.00000000000E+00 0. -1.
         11    1    3    3    0    0  0.14687605160E+02 -0.27800726641E+02  0.18415202223E+02  0.36437972230E+02  0.51100000000E-03 0. -1.
        -11    1    3    3    0    0 -0.30966440288E+00 -0.89801991664E+01  0.31114233484E+01  0.95089865193E+01  0.51100000000E-03 0.  1.
        -12    1    3    3    0    0 -0.14768989081E+02  0.35893349508E+02 -0.20853648107E+02  0.44060529012E+02  0.00000000000E+00 0.  1.
</event>
<event>
 7    1  0.1971192E-015  0.9000773E+02  0.7816164E-02  0.1186339E+00
        -11   -1    0    0    0    0  0.00000000000E+00  0.00000000000E+00  0.45593999997E+02  0.45594000000E+02  0.51100000000E-03 0. -1.
         11   -1    0    0    0    0 -0.00000000000E+00 -0.00000000000E+00 -0.45593999997E+02  0.45594000000E+02  0.51100000000E-03 0.  1.
    9900012    2    1    2    0    0 -0.29573018069E+00  0.34214908631E+00 -0.10901880951E+01  0.90007732056E+02  0.89999993319E+02 0.  0.
         12    1    1    2    0    0  0.29573018069E+00 -0.34214908631E+00  0.10901880951E+01  0.11802679441E+01  0.00000000000E+00 0. -1.
         11    1    3    3    0    0  0.20015494689E+01  0.61629656513E+01 -0.50789459876E+01  0.82331062487E+01  0.51100000000E-03 0. -1.
        -11    1    3    3    0    0  0.22827462978E+02  0.22910380879E+02  0.22457238837E+02  0.39373927852E+02  0.51100000000E-03 0.  1.
         12    1    3    3    0    0 -0.25124742627E+02 -0.28731197444E+02 -0.18468480945E+02  0.42400697955E+02  0.00000000000E+00 0. -1.
</event>
<event>
 7    1  0.1971192E-015  0.9000741E+02  0.7816164E-02  0.1186340E+00
        -11   -1    0    0    0    0  0.00000000000E+00  0.00000000000E+00  0.45593999997E+02  0.45594000000E+02  0.51100000000E-03 0.  1.
         11   -1    0    0    0    0 -0.00000000000E+00 -0.00000000000E+00 -0.45593999997E+02  0.45594000000E+02  0.51100000000E-03 0. -1.
    9900012    2    1    2    0    0 -0.11814180546E+00 -0.25652160002E+00  0.11463116241E+01  0.90007410674E+02  0.89999667694E+02 0.  0.
         12    1    1    2    0    0  0.11814180546E+00  0.25652160002E+00 -0.11463116241E+01  0.11805893261E+01  0.00000000000E+00 0. -1.
         11    1    3    3    0    0  0.29113972524E+02 -0.18428070262E+02 -0.13281297745E+02  0.36927090865E+02  0.51100000000E-03 0. -1.
        -11    1    3    3    0    0 -0.16987639235E+01 -0.96570465809E+01 -0.29641256758E+01  0.10243553525E+02  0.51100000000E-03 0.  1.
        -12    1    3    3    0    0 -0.27533350406E+02  0.27828595243E+02  0.17391735045E+02  0.42836766284E+02  0.00000000000E+00 0.  1.
</event>
<event>
 7    1  0.1971192E-015  0.9000770E+02  0.7816164E-02  0.1186339E+00
        -11   -1    0    0    0    0  0.00000000000E+00  0.00000000000E+00  0.45593999997E+02  0.45594000000E+02  0.51100000000E-03 0.  1.
         11   -1    0    0    0    0 -0.00000000000E+00 -0.00000000000E+00 -0.45593999997E+02  0.45594000000E+02  0.51100000000E-03 0. -1.
    9900012    2    1    2    0    0  0.32915453927E+00 -0.16128741674E-01  0.11333615711E+01  0.90007698641E+02  0.89999959463E+02 0.  0.
         12    1    1    2    0    0 -0.32915453927E+00  0.16128741674E-01 -0.11333615711E+01  0.11803013589E+01  0.00000000000E+00 0. -1.
         11    1    3    3    0    0  0.21853734058E+02  0.10701803535E+02 -0.26873861316E+02  0.36253533807E+02  0.51100000000E-03 0. -1.
        -11    1    3    3    0    0 -0.12026010261E+00  0.93737348903E+01 -0.41150819823E+01  0.10237932812E+02  0.51100000000E-03 0.  1.
        -12    1    3    3    0    0 -0.21404319416E+02 -0.20091667167E+02  0.32122304870E+02  0.43516232022E+02  0.00000000000E+00 0.  1.
</event>
<event>
 7    1  0.1971192E-015  0.9000674E+02  0.7816164E-02  0.1186341E+00
        -11   -1    0    0    0    0  0.00000000000E+00  0.00000000000E+00  0.45593999997E+02  0.45594000000E+02  0.51100000000E-03 0. -1.
         11   -1    0    0    0    0 -0.00000000000E+00 -0.00000000000E+00 -0.45593999997E+02  0.45594000000E+02  0.51100000000E-03 0.  1.
    9900012    2    1    2    0    0 -0.10248556484E+01  0.25479268175E+00  0.52926466836E+00  0.90006742408E+02  0.89998990602E+02 0.  0.
         12    1    1    2    0    0  0.10248556484E+01 -0.25479268175E+00 -0.52926466836E+00  0.11812575925E+01  0.00000000000E+00 0. -1.
         11    1    3    3    0    0 -0.85858401155E+01  0.14065856181E+02 -0.25044155576E+01  0.16668444983E+02  0.51100000000E-03 0. -1.
        -11    1    3    3    0    0 -0.94222519236E+01  0.85555984805E+01 -0.28439292291E+02  0.31157189266E+02  0.51100000000E-03 0.  1.
         12    1    3    3    0    0  0.16983236391E+02 -0.22366661980E+02  0.31472972517E+02  0.42181108159E+02  0.00000000000E+00 0. -1.
</event>
<event>
 7    1  0.1971192E-015  0.9000771E+02  0.7816164E-02  0.1186339E+00
        -11   -1    0    0    0    0  0.00000000000E+00  0.00000000000E+00  0.45593999997E+02  0.45594000000E+02  0.51100000000E-03 0. -1.
         11   -1    0    0    0    0 -0.00000000000E+00 -0.00000000000E+00 -0.45593999997E+02  0.45594000000E+02  0.51100000000E-03 0.  1.
    9900012    2    1    2    0    0 -0.49515210790E-02 -0.75909299131E+00 -0.90379042140E+00  0.90007710284E+02  0.89999971260E+02 0.  0.
         12    1    1    2    0    0  0.49515210790E-02  0.75909299131E+00  0.90379042140E+00  0.11802897156E+01  0.00000000000E+00 0. -1.
         11    1    3    3    0    0  0.25356510853E+02  0.27283801792E+02 -0.56938915967E+01  0.37679953352E+02  0.51100000000E-03 0. -1.
        -11    1    3    3    0    0 -0.42794470799E+01  0.79994259136E+01 -0.35602027397E+01  0.97457439975E+01  0.51100000000E-03 0.  1.
        -12    1    3    3    0    0 -0.21082015294E+02 -0.36042320697E+02  0.83503039150E+01  0.42582012934E+02  0.00000000000E+00 0.  1.
</event>
<event>
 7    1  0.1971192E-015  0.9000779E+02  0.7816164E-02  0.1186339E+00
        -11   -1    0    0    0    0  0.00000000000E+00  0.00000000000E+00  0.45593999997E+02  0.45594000000E+02  0.51100000000E-03 0.  1.
         11   -1    0    0    0    0 -0.00000000000E+00 -0.00000000000E+00 -0.45593999997E+02  0.45594000000E+02  0.51100000000E-03 0. -1.
    9900012    2    1    2    0    0  0.10296097400E+01 -0.19800736428E+00  0.54183409165E+00  0.90007793528E+02  0.90000055603E+02 0.  0.
         12    1    1    2    0    0 -0.10296097400E+01  0.19800736428E+00 -0.54183409165E+00  0.11802064717E+01  0.00000000000E+00 0. -1.
         11    1    3    3    0    0 -0.19656867087E+02 -0.15297346169E+01 -0.32323238467E+02  0.37861910371E+02  0.51100000000E-03 0. -1.
        -11    1    3    3    0    0 -0.34452115223E+01  0.89163192471E+01 -0.12881808036E+01  0.96451874732E+01  0.51100000000E-03 0.  1.
        -12    1    3    3    0    0  0.24131688350E+02 -0.75845919945E+01  0.34153253363E+02  0.42500695684E+02  0.00000000000E+00 0.  1.
</event>
<event>
 7    1  0.1971192E-015  0.9000783E+02  0.7816164E-02  0.1186339E+00
        -11   -1    0    0    0    0  0.00000000000E+00  0.00000000000E+00  0.45593999997E+02  0.45594000000E+02  0.51100000000E-03 0.  1.
         11   -1    0    0    0    0 -0.00000000000E+00 -0.00000000000E+00 -0.45593999997E+02  0.45594000000E+02  0.51100000000E-03 0. -1.
    9900012    2    1    2    0    0 -0.21159276126E+00  0.26673694989E+00  0.11299955452E+01  0.90007826272E+02  0.90000088778E+02 0.  0.
         12    1    1    2    0    0  0.21159276126E+00 -0.26673694989E+00 -0.11299955452E+01  0.11801737284E+01  0.00000000000E+00 0. -1.
         11    1    3    3    0    0 -0.10567260980E+02  0.34894462933E+02  0.65557547416E+01  0.37044142161E+02  0.51100000000E-03 0. -1.
        -11    1    3    3    0    0 -0.68323091342E+01  0.44994455582E+01 -0.61288382846E+01  0.10221942937E+02  0.51100000000E-03 0.  1.
        -12    1    3    3    0    0  0.17187977353E+02 -0.39127171541E+02  0.70307908821E+00  0.42741741173E+02  0.00000000000E+00 0.  1.
</event>
<event>
 7    1  0.1971192E-015  0.9000764E+02  0.7816164E-02  0.1186339E+00
        -11   -1    0    0    0    0  0.00000000000E+00  0.00000000000E+00  0.45593999997E+02  0.45594000000E+02  0.51100000000E-03 0. -1.
         11   -1    0    0    0    0 -0.00000000000E+00 -0.00000000000E+00 -0.45593999997E+02  0.45594000000E+02  0.51100000000E-03 0.  1.
    9900012    2    1    2    0    0 -0.26597539261E+00 -0.46297953622E+00 -0.10526885171E+01  0.90007641548E+02  0.89999901617E+02 0.  0.
         12    1    1    2    0    0  0.26597539261E+00  0.46297953622E+00  0.10526885171E+01  0.11803584517E+01  0.00000000000E+00 0. -1.
         11    1    3    3    0    0 -0.34461276527E+02  0.47009034400E+01  0.97376293308E+01  0.36117855671E+02  0.51100000000E-03 0. -1.
        -11    1    3    3    0    0 -0.81612188090E+01 -0.43405613637E+01 -0.65174918629E+01  0.11310334471E+02  0.51100000000E-03 0.  1.
        -12    1    3    3    0    0  0.42356519943E+02 -0.82332161254E+00 -0.42728259850E+01  0.42579451407E+02  0.00000000000E+00 0.  1.
</event>
<event>
 7    1  0.1971192E-015  0.9000774E+02  0.7816164E-02  0.1186339E+00
        -11   -1    0    0    0    0  0.00000000000E+00  0.00000000000E+00  0.45593999997E+02  0.45594000000E+02  0.51100000000E-03 0. -1.
         11   -1    0    0    0    0 -0.00000000000E+00 -0.00000000000E+00 -0.45593999997E+02  0.45594000000E+02  0.51100000000E-03 0.  1.
    9900012    2    1    2    0    0 -0.16928722962E+00 -0.10868930849E+01 -0.42780184870E+00  0.90007741907E+02  0.90000003300E+02 0.  0.
         12    1    1    2    0    0  0.16928722962E+00  0.10868930849E+01  0.42780184870E+00  0.11802580929E+01  0.00000000000E+00 0. -1.
         11    1    3    3    0    0  0.92100301354E+01 -0.71095473793E+01  0.80343463725E+00  0.11662582326E+02  0.51100000000E-03 0. -1.
        -11    1    3    3    0    0  0.21858258288E+02  0.26645289228E+02  0.14949547417E+02  0.37566525813E+02  0.51100000000E-03 0.  1.
         12    1    3    3    0    0 -0.31237575653E+02 -0.20622634934E+02 -0.16180783903E+02  0.40778633768E+02  0.00000000000E+00 0. -1.
</event>
<event>
 7    1  0.1971192E-015  0.9000781E+02  0.7816164E-02  0.1186339E+00
        -11   -1    0    0    0    0  0.00000000000E+00  0.00000000000E+00  0.45593999997E+02  0.45594000000E+02  0.51100000000E-03 0. -1.
         11   -1    0    0    0    0 -0.00000000000E+00 -0.00000000000E+00 -0.45593999997E+02  0.45594000000E+02  0.51100000000E-03 0.  1.
    9900012    2    1    2    0    0 -0.24301311762E+00  0.40207772239E+00 -0.10826453847E+01  0.90007812346E+02  0.90000074669E+02 0.  0.
         12    1    1    2    0    0  0.24301311762E+00 -0.40207772239E+00  0.10826453847E+01  0.11801876542E+01  0.00000000000E+00 0. -1.
         11    1    3    3    0    0 -0.43006185698E+01  0.65179709993E+01 -0.48032462656E+01  0.91679027580E+01  0.51100000000E-03 0. -1.
        -11    1    3    3    0    0  0.32572591786E+02 -0.20225102509E+02 -0.17961290247E+02  0.42339537724E+02  0.51100000000E-03 0.  1.
         12    1    3    3    0    0 -0.28514986334E+02  0.14109209232E+02  0.21681891128E+02  0.38500371863E+02  0.00000000000E+00 0. -1.
</event>
<event>
 7    1  0.1971192E-015  0.9000775E+02  0.7816164E-02  0.1186339E+00
        -11   -1    0    0    0    0  0.00000000000E+00  0.00000000000E+00  0.45593999997E+02  0.45594000000E+02  0.51100000000E-03 0.  1.
         11   -1    0    0    0    0 -0.00000000000E+00 -0.00000000000E+00 -0.45593999997E+02  0.45594000000E+02  0.51100000000E-03 0. -1.
    9900012    2    1    2    0    0  0.89784420974E+00 -0.51631888171E+00 -0.56593948935E+00  0.90007747096E+02  0.90000008557E+02 0.  0.
         12    1    1    2    0    0 -0.89784420974E+00  0.51631888171E+00  0.56593948935E+00  0.11802529043E+01  0.00000000000E+00 0. -1.
         11    1    3    3    0    0 -0.11902406154E+02  0.30272051978E+01  0.41282102568E+01  0.12956595376E+02  0.51100000000E-03 0. -1.
        -11    1    3    3    0    0 -0.27676822068E+02  0.15398114458E+02  0.25651311683E+01  0.31775592943E+02  0.51100000000E-03 0.  1.
         12    1    3    3    0    0  0.40477072432E+02 -0.18941638538E+02 -0.72592809144E+01  0.45275558777E+02  0.00000000000E+00 0. -1.
</event>
<event>
 7    1  0.1971192E-015  0.9000778E+02  0.7816164E-02  0.1186339E+00
        -11   -1    0    0    0    0  0.00000000000E+00  0.00000000000E+00  0.45593999997E+02  0.45594000000E+02  0.51100000000E-03 0.  1.
         11   -1    0    0    0    0 -0.00000000000E+00 -0.00000000000E+00 -0.45593999997E+02  0.45594000000E+02  0.51100000000E-03 0. -1.
    9900012    2    1    2    0    0 -0.63554633035E+00  0.85333121535E+00 -0.51071046908E+00  0.90007780324E+02  0.90000042224E+02 0.  0.
         12    1    1    2    0    0  0.63554633035E+00 -0.85333121535E+00  0.51071046908E+00  0.11802196763E+01  0.00000000000E+00 0. -1.
         11    1    3    3    0    0  0.24239692408E+02 -0.26089593085E+02 -0.23629574666E+02  0.42738581569E+02  0.51100000000E-03 0. -1.
        -11    1    3    3    0    0 -0.57128085137E+01  0.91516651617E+01 -0.20437878748E+01  0.10980265274E+02  0.51100000000E-03 0.  1.
        -12    1    3    3    0    0 -0.19162430225E+02  0.17791259138E+02  0.25162652072E+02  0.36288933481E+02  0.00000000000E+00 0.  1.
</event>
<event>
 7    1  0.1971192E-015  0.9000774E+02  0.7816164E-02  0.1186339E+00
        -11   -1    0    0    0    0  0.00000000000E+00  0.00000000000E+00  0.45593999997E+02  0.45594000000E+02  0.51100000000E-03 0.  1.
         11   -1    0    0    0    0 -0.00000000000E+00 -0.00000000000E+00 -0.45593999997E+02  0.45594000000E+02  0.51100000000E-03 0. -1.
    9900012    2    1    2    0    0 -0.10988706015E+01  0.41699302743E+00  0.10776598124E+00  0.90007740160E+02  0.90000001530E+02 0.  0.
         12    1    1    2    0    0  0.10988706015E+01 -0.41699302743E+00 -0.10776598124E+00  0.11802598402E+01  0.00000000000E+00 0. -1.
         11    1    3    3    0    0  0.83239936788E+01  0.58569431899E+00  0.56814187087E+01  0.10095069460E+02  0.51100000000E-03 0. -1.
        -11    1    3    3    0    0  0.33405597248E+02  0.14016557633E+01  0.90346488473E+01  0.34634137010E+02  0.51100000000E-03 0.  1.
         12    1    3    3    0    0 -0.42828461528E+02 -0.15703570549E+01 -0.14608301575E+02  0.45278533689E+02  0.00000000000E+00 0. -1.
</event>
<event>
 7    1  0.1971192E-015  0.9000779E+02  0.7816164E-02  0.1186339E+00
        -11   -1    0    0    0    0  0.00000000000E+00  0.00000000000E+00  0.45593999997E+02  0.45594000000E+02  0.51100000000E-03 0. -1.
         11   -1    0    0    0    0 -0.00000000000E+00 -0.00000000000E+00 -0.45593999997E+02  0.45594000000E+02  0.51100000000E-03 0.  1.
    9900012    2    1    2    0    0  0.87483807001E-01  0.78896620702E+00 -0.87337070572E+00  0.90007789221E+02  0.90000051239E+02 0.  0.
         12    1    1    2    0    0 -0.87483807001E-01 -0.78896620702E+00  0.87337070572E+00  0.11802107786E+01  0.00000000000E+00 0. -1.
         11    1    3    3    0    0 -0.16525613277E+02  0.92325374889E+01  0.39360264765E+02  0.43675692156E+02  0.51100000000E-03 0. -1.
        -11    1    3    3    0    0 -0.77082371147E+00  0.17344918120E+01 -0.87645306079E+01  0.89676991519E+01  0.51100000000E-03 0.  1.
        -12    1    3    3    0    0  0.17383920795E+02 -0.10178063094E+02 -0.31469104863E+02  0.37364397914E+02  0.00000000000E+00 0.  1.
</event>
<event>
 7    1  0.1971192E-015  0.9000777E+02  0.7816164E-02  0.1186339E+00
        -11   -1    0    0    0    0  0.00000000000E+00  0.00000000000E+00  0.45593999997E+02  0.45594000000E+02  0.51100000000E-03 0. -1.
         11   -1    0    0    0    0 -0.00000000000E+00 -0.00000000000E+00 -0.45593999997E+02  0.45594000000E+02  0.51100000000E-03 0.  1.
    9900012    2    1    2    0    0  0.38858700542E+00 -0.32078031761E+00 -0.10672617904E+01  0.90007767988E+02  0.90000029725E+02 0.  0.
         12    1    1    2    0    0 -0.38858700542E+00  0.32078031761E+00  0.10672617904E+01  0.11802320120E+01  0.00000000000E+00 0. -1.
         11    1    3    3    0    0  0.10722597542E+02  0.88366511829E+01 -0.15663294673E+01  0.13982628166E+02  0.51100000000E-03 0. -1.
        -11    1    3    3    0    0  0.58884916655E+01 -0.50630390959E+01 -0.35493875159E+02  0.36333508956E+02  0.51100000000E-03 0.  1.
         12    1    3    3    0    0 -0.16222502202E+02 -0.40943924046E+01  0.35992942836E+02  0.39691630866E+02  0.00000000000E+00 0. -1.
</event>
<event>
 7    1  0.1971192E-015  0.9000753E+02  0.7816164E-02  0.1186339E+00
        -11   -1    0    0    0    0  0.00000000000E+00  0.00000000000E+00  0.45593999997E+02  0.45594000000E+02  0.51100000000E-03 0.  1.
         11   -1    0    0    0    0 -0.00000000000E+00 -0.00000000000E+00 -0.45593999997E+02  0.45594000000E+02  0.51100000000E-03 0. -1.
    9900012    2    1    2    0    0 -0.48704114653E+00 -0.86912172541E+00 -0.63319038232E+00  0.90007529029E+02  0.89999787612E+02 0.  0.
         12    1    1    2    0    0  0.48704114653E+00  0.86912172541E+00  0.63319038232E+00  0.11804709705E+01  0.00000000000E+00 0. -1.
         11    1    3    3    0    0  0.28295140990E+02 -0.37586482214E+01 -0.24798804041E+02  0.37811679706E+02  0.51100000000E-03 0. -1.
        -11    1    3    3    0    0  0.42131999122E+01  0.91717652758E+01 -0.11182917634E+01  0.10154945027E+02  0.51100000000E-03 0.  1.
        -12    1    3    3    0    0 -0.32995382049E+02 -0.62822387798E+01  0.25283905422E+02  0.42040904296E+02  0.00000000000E+00 0.  1.
</event>
<event>
 7    1  0.1971192E-015  0.9000775E+02  0.7816164E-02  0.1186339E+00
        -11   -1    0    0    0    0  0.00000000000E+00  0.00000000000E+00  0.45593999997E+02  0.45594000000E+02  0.51100000000E-03 0.  1.
         11   -1    0    0    0    0 -0.00000000000E+00 -0.00000000000E+00 -0.45593999997E+02  0.45594000000E+02  0.51100000000E-03 0. -1.
    9900012    2    1    2    0    0  0.89424667326E+00  0.65831412591E+00 -0.39990756420E+00  0.90007753983E+02  0.90000015535E+02 0.  0.
         12    1    1    2    0    0 -0.89424667326E+00 -0.65831412591E+00  0.39990756420E+00  0.11802460171E+01  0.00000000000E+00 0. -1.
         11    1    3    3    0    0 -0.72259787685E+01 -0.12275110687E+01 -0.35272963117E-01  0.73295836873E+01  0.51100000000E-03 0. -1.
        -11    1    3    3    0    0 -0.42838575669E+01 -0.36872886846E+02 -0.14128025060E+02  0.39718538648E+02  0.51100000000E-03 0.  1.
         12    1    3    3    0    0  0.12404083009E+02  0.38758712041E+02  0.13763390459E+02  0.42959631647E+02  0.00000000000E+00 0. -1.
</event>
<event>
 7    1  0.1971192E-015  0.9000774E+02  0.7816164E-02  0.1186339E+00
        -11   -1    0    0    0    0  0.00000000000E+00  0.00000000000E+00  0.45593999997E+02  0.45594000000E+02  0.51100000000E-03 0.  1.
         11   -1    0    0    0    0 -0.00000000000E+00 -0.00000000000E+00 -0.45593999997E+02  0.45594000000E+02  0.51100000000E-03 0. -1.
    9900012    2    1    2    0    0 -0.14083652239E+00  0.79368717472E+00  0.86210926728E+00  0.90007742975E+02  0.90000004382E+02 0.  0.
         12    1    1    2    0    0  0.14083652239E+00 -0.79368717472E+00 -0.86210926728E+00  0.11802570254E+01  0.00000000000E+00 0. -1.
         11    1    3    3    0    0  0.76526676084E+01 -0.60555948414E+01 -0.40010647713E+02  0.41183558383E+02  0.51100000000E-03 0. -1.
        -11    1    3    3    0    0 -0.33819382142E+01 -0.67692652339E+01  0.26648588968E+01  0.80225888024E+01  0.51100000000E-03 0.  1.
        -12    1    3    3    0    0 -0.44115659166E+01  0.13618547250E+02  0.38207898083E+02  0.40801595790E+02  0.00000000000E+00 0.  1.
</event>
<event>
 7    1  0.1971192E-015  0.9000786E+02  0.7816164E-02  0.1186339E+00
        -11   -1    0    0    0    0  0.00000000000E+00  0.00000000000E+00  0.45593999997E+02  0.45594000000E+02  0.51100000000E-03 0.  1.
         11   -1    0    0    0    0 -0.00000000000E+00 -0.00000000000E+00 -0.45593999997E+02  0.45594000000E+02  0.51100000000E-03 0. -1.
    9900012    2    1    2    0    0  0.20522882330E-01  0.71695125400E-01  0.11777765846E+01  0.90007864812E+02  0.90000127827E+02 0.  0.
         12    1    1    2    0    0 -0.20522882330E-01 -0.71695125400E-01 -0.11777765846E+01  0.11801351884E+01  0.00000000000E+00 0. -1.
         11    1    3    3    0    0  0.10683639276E+02 -0.22974965926E+02 -0.24571955361E+02  0.35295469936E+02  0.51100000000E-03 0. -1.
        -11    1    3    3    0    0  0.17797921204E+01 -0.87174025670E+01 -0.37087756277E+01  0.96392833979E+01  0.51100000000E-03 0.  1.
        -12    1    3    3    0    0 -0.12442908514E+02  0.31764063619E+02  0.29458507573E+02  0.45073111478E+02  0.00000000000E+00 0.  1.
</event>
<event>
 7    1  0.1971192E-015  0.9000773E+02  0.7816164E-02  0.1186339E+00
        -11   -1    0    0    0    0  0.00000000000E+00  0.00000000000E+00  0.45593999997E+02  0.45594000000E+02  0.51100000000E-03 0.  1.
         11   -1    0    0    0    0 -0.00000000000E+00 -0.00000000000E+00 -0.45593999997E+02  0.45594000000E+02  0.51100000000E-03 0. -1.
    9900012    2    1    2    0    0  0.68759440344E+00  0.61348838177E+00  0.73748110612E+00  0.90007732047E+02  0.89999993310E+02 0.  0.
         12    1    1    2    0    0 -0.68759440344E+00 -0.61348838177E+00 -0.73748110612E+00  0.11802679527E+01  0.00000000000E+00 0. -1.
         11    1    3    3    0    0 -0.27786009823E+02 -0.18646671353E+02  0.35717094820E+01  0.33652901856E+02  0.51100000000E-03 0. -1.
        -11    1    3    3    0    0  0.97661822471E+01 -0.54986850666E+01  0.16386482246E+02  0.19852724090E+02  0.51100000000E-03 0.  1.
        -12    1    3    3    0    0  0.18707421979E+02  0.24758844802E+02 -0.19220710622E+02  0.36502106101E+02  0.00000000000E+00 0.  1.
</event>
<event>
 7    1  0.1971192E-015  0.9000773E+02  0.7816164E-02  0.1186339E+00
        -11   -1    0    0    0    0  0.00000000000E+00  0.00000000000E+00  0.45593999997E+02  0.45594000000E+02  0.51100000000E-03 0. -1.
         11   -1    0    0    0    0 -0.00000000000E+00 -0.00000000000E+00 -0.45593999997E+02  0.45594000000E+02  0.51100000000E-03 0.  1.
    9900012    2    1    2    0    0 -0.42348162222E+00 -0.10981095312E+01  0.88605343215E-01  0.90007732177E+02  0.89999993442E+02 0.  0.
         12    1    1    2    0    0  0.42348162222E+00  0.10981095312E+01 -0.88605343215E-01  0.11802678228E+01  0.00000000000E+00 0. -1.
         11    1    3    3    0    0 -0.26950978933E+02 -0.88380310673E+01  0.16192032044E+02  0.32659576859E+02  0.51100000000E-03 0. -1.
        -11    1    3    3    0    0  0.27718615966E+01 -0.18446730383E+02 -0.39156948581E+00  0.18657931436E+02  0.51100000000E-03 0.  1.
        -12    1    3    3    0    0  0.23755635714E+02  0.26186651919E+02 -0.15711857215E+02  0.38690223883E+02  0.00000000000E+00 0.  1.
</event>
<event>
 7    1  0.1971192E-015  0.9000794E+02  0.7816164E-02  0.1186339E+00
        -11   -1    0    0    0    0  0.00000000000E+00  0.00000000000E+00  0.45593999997E+02  0.45594000000E+02  0.51100000000E-03 0. -1.
         11   -1    0    0    0    0 -0.00000000000E+00 -0.00000000000E+00 -0.45593999997E+02  0.45594000000E+02  0.51100000000E-03 0.  1.
    9900012    2    1    2    0    0  0.58683153917E+00  0.93188674327E+00  0.42398837115E+00  0.90007936317E+02  0.90000200276E+02 0.  0.
         12    1    1    2    0    0 -0.58683153917E+00 -0.93188674327E+00 -0.42398837115E+00  0.11800636832E+01  0.00000000000E+00 0. -1.
         11    1    3    3    0    0 -0.36391055093E+01  0.54324440179E+01 -0.11331393920E+02  0.13082623030E+02  0.51100000000E-03 0. -1.
        -11    1    3    3    0    0 -0.10604961090E+02  0.20059089317E+02 -0.22695506386E+02  0.32092339808E+02  0.51100000000E-03 0.  1.
         12    1    3    3    0    0  0.14830898138E+02 -0.24559646592E+02  0.34450888677E+02  0.44832973479E+02  0.00000000000E+00 0. -1.
</event>
<event>
 7    1  0.1971192E-015  0.9000772E+02  0.7816164E-02  0.1186339E+00
        -11   -1    0    0    0    0  0.00000000000E+00  0.00000000000E+00  0.45593999997E+02  0.45594000000E+02  0.51100000000E-03 0. -1.
         11   -1    0    0    0    0 -0.00000000000E+00 -0.00000000000E+00 -0.45593999997E+02  0.45594000000E+02  0.51100000000E-03 0.  1.
    9900012    2    1    2    0    0  0.10269391745E+01 -0.33455953157E+00  0.47595933770E+00  0.90007715526E+02  0.89999976571E+02 0.  0.
         12    1    1    2    0    0 -0.10269391745E+01  0.33455953157E+00 -0.47595933770E+00  0.11802844740E+01  0.00000000000E+00 0. -1.
         11    1    3    3    0    0 -0.11964583996E+02 -0.34286424531E+02  0.20465199771E+02  0.41683744785E+02  0.51100000000E-03 0. -1.
        -11    1    3    3    0    0 -0.22971513805E+01 -0.13728894123E+01 -0.73317913092E+01  0.78049275375E+01  0.51100000000E-03 0.  1.
        -12    1    3    3    0    0  0.15288674551E+02  0.35324754412E+02 -0.12657449125E+02  0.40519043204E+02  0.00000000000E+00 0.  1.
</event>
<event>
 7    1  0.1971192E-015  0.9000679E+02  0.7816164E-02  0.1186341E+00
        -11   -1    0    0    0    0  0.00000000000E+00  0.00000000000E+00  0.45593999997E+02  0.45594000000E+02  0.51100000000E-03 0.  1.
         11   -1    0    0    0    0 -0.00000000000E+00 -0.00000000000E+00 -0.45593999997E+02  0.45594000000E+02  0.51100000000E-03 0. -1.
    9900012    2    1    2    0    0  0.36694813254E+00 -0.93102601079E+00  0.62753263574E+00  0.90006789784E+02  0.89999038604E+02 0.  0.
         12    1    1    2    0    0 -0.36694813254E+00  0.93102601079E+00 -0.62753263574E+00  0.11812102157E+01  0.00000000000E+00 0. -1.
         11    1    3    3    0    0  0.27663357047E+02 -0.21568931027E+02 -0.12144054297E+02  0.37120858877E+02  0.51100000000E-03 0. -1.
        -11    1    3    3    0    0  0.94025110128E+01  0.14578574435E+01 -0.12394768066E+00  0.95156673418E+01  0.51100000000E-03 0.  1.
        -12    1    3    3    0    0 -0.36698919927E+02  0.19180047573E+02  0.12895534614E+02  0.43370263565E+02  0.00000000000E+00 0.  1.
</event>
<event>
 7    1  0.1971192E-015  0.9000765E+02  0.7816164E-02  0.1186339E+00
        -11   -1    0    0    0    0  0.00000000000E+00  0.00000000000E+00  0.45593999997E+02  0.45594000000E+02  0.51100000000E-03 0. -1.
         11   -1    0    0    0    0 -0.00000000000E+00 -0.00000000000E+00 -0.45593999997E+02  0.45594000000E+02  0.51100000000E-03 0.  1.
    9900012    2    1    2    0    0 -0.10817363813E+01  0.11834275346E+00 -0.45722745771E+00  0.90007654477E+02  0.89999914716E+02 0.  0.
         12    1    1    2    0    0  0.10817363813E+01 -0.11834275346E+00  0.45722745771E+00  0.11803455231E+01  0.00000000000E+00 0. -1.
         11    1    3    3    0    0  0.27547136822E+01 -0.94345644994E+01 -0.82666995502E+01  0.12842810303E+02  0.51100000000E-03 0. -1.
        -11    1    3    3    0    0 -0.14380385725E+01 -0.19935297305E+01 -0.33813891593E+02  0.33903117565E+02  0.51100000000E-03 0.  1.
         12    1    3    3    0    0 -0.23984114910E+01  0.11546436983E+02  0.41623363685E+02  0.43261726609E+02  0.00000000000E+00 0. -1.
</event>
<event>
 7    1  0.1971192E-015  0.9000770E+02  0.7816164E-02  0.1186339E+00
        -11   -1    0    0    0    0  0.00000000000E+00  0.00000000000E+00  0.45593999997E+02  0.45594000000E+02  0.51100000000E-03 0.  1.
         11   -1    0    0    0    0 -0.00000000000E+00 -0.00000000000E+00 -0.45593999997E+02  0.45594000000E+02  0.51100000000E-03 0. -1.
    9900012    2    1    2    0    0 -0.46731323133E+00  0.85160692370E+00  0.67044312029E+00  0.90007699197E+02  0.89999960026E+02 0.  0.
         12    1    1    2    0    0  0.46731323133E+00 -0.85160692370E+00 -0.67044312029E+00  0.11803008033E+01  0.00000000000E+00 0. -1.
         11    1    3    3    0    0  0.17621207807E+01  0.39092077979E+01 -0.38914517743E+02  0.39150053215E+02  0.51100000000E-03 0. -1.
        -11    1    3    3    0    0  0.60202582744E+01 -0.59316031852E+01 -0.17320854384E+01  0.86271400977E+01  0.51100000000E-03 0.  1.
        -12    1    3    3    0    0 -0.82496922865E+01  0.28740023110E+01  0.41317046302E+02  0.42230505884E+02  0.00000000000E+00 0.  1.
</event>
<event>
 7    1  0.1971192E-015  0.9000745E+02  0.7816164E-02  0.1186340E+00
        -11   -1    0    0    0    0  0.00000000000E+00  0.00000000000E+00  0.45593999997E+02  0.45594000000E+02  0.51100000000E-03 0. -1.
         11   -1    0    0    0    0 -0.00000000000E+00 -0.00000000000E+00 -0.45593999997E+02  0.45594000000E+02  0.51100000000E-03 0.  1.
    9900012    2    1    2    0    0 -0.58282545622E+00 -0.84043016747E+00 -0.58964491590E+00  0.90007453726E+02  0.89999711314E+02 0.  0.
         12    1    1    2    0    0  0.58282545622E+00  0.84043016747E+00  0.58964491590E+00  0.11805462743E+01  0.00000000000E+00 0. -1.
         11    1    3    3    0    0 -0.17502252824E+02 -0.82836981891E+01 -0.35373036183E+02  0.40326172626E+02  0.51100000000E-03 0. -1.
        -11    1    3    3    0    0 -0.39767538973E+01 -0.96143250563E+00 -0.34202087673E+01  0.53326121457E+01  0.51100000000E-03 0.  1.
        -12    1    3    3    0    0  0.20896181265E+02  0.84047005273E+01  0.38203600034E+02  0.44348668954E+02  0.00000000000E+00 0.  1.
</event>
<event>
 7    1  0.1971192E-015  0.9000762E+02  0.7816164E-02  0.1186339E+00
        -11   -1    0    0    0    0  0.00000000000E+00  0.00000000000E+00  0.45593999997E+02  0.45594000000E+02  0.51100000000E-03 0.  1.
         11   -1    0    0    0    0 -0.00000000000E+00 -0.00000000000E+00 -0.45593999997E+02  0.45594000000E+02  0.51100000000E-03 0. -1.
    9900012    2    1    2    0    0 -0.61184232963E+00  0.57805882940E+00  0.82752035815E+00  0.90007621675E+02  0.89999881481E+02 0.  0.
         12    1    1    2    0    0  0.61184232963E+00 -0.57805882940E+00 -0.82752035815E+00  0.11803783248E+01  0.00000000000E+00 0. -1.
         11    1    3    3    0    0  0.31380667097E+02  0.88747060225E+01 -0.20237279848E+02  0.38380387835E+02  0.51100000000E-03 0. -1.
        -11    1    3    3    0    0  0.57367311936E+01 -0.59334201840E+01 -0.19603533513E+00  0.82555429853E+01  0.51100000000E-03 0.  1.
        -12    1    3    3    0    0 -0.37729240620E+02 -0.23632270091E+01  0.21260835542E+02  0.43371690855E+02  0.00000000000E+00 0.  1.
</event>
<event>
 7    1  0.1971192E-015  0.9000776E+02  0.7816164E-02  0.1186339E+00
        -11   -1    0    0    0    0  0.00000000000E+00  0.00000000000E+00  0.45593999997E+02  0.45594000000E+02  0.51100000000E-03 0.  1.
         11   -1    0    0    0    0 -0.00000000000E+00 -0.00000000000E+00 -0.45593999997E+02  0.45594000000E+02  0.51100000000E-03 0. -1.
    9900012    2    1    2    0    0  0.48475009771E+00  0.10747539769E+01  0.53767300591E-01  0.90007758630E+02  0.90000020244E+02 0.  0.
         12    1    1    2    0    0 -0.48475009771E+00 -0.10747539769E+01 -0.53767300591E-01  0.11802413696E+01  0.00000000000E+00 0. -1.
         11    1    3    3    0    0  0.83677057097E+01  0.47831915941E+00 -0.35782587651E+01  0.91132444340E+01  0.51100000000E-03 0. -1.
        -11    1    3    3    0    0  0.32602585122E+02 -0.14103285001E+02 -0.77212788402E+01  0.36351744822E+02  0.51100000000E-03 0.  1.
         12    1    3    3    0    0 -0.40485540734E+02  0.14699719818E+02  0.11353304906E+02  0.44542769374E+02  0.00000000000E+00 0. -1.
</event>
<event>
 7    1  0.1971192E-015  0.9000776E+02  0.7816164E-02  0.1186339E+00
        -11   -1    0    0    0    0  0.00000000000E+00  0.00000000000E+00  0.45593999997E+02  0.45594000000E+02  0.51100000000E-03 0.  1.
         11   -1    0    0    0    0 -0.00000000000E+00 -0.00000000000E+00 -0.45593999997E+02  0.45594000000E+02  0.51100000000E-03 0. -1.
    9900012    2    1    2    0    0 -0.10671079965E+01 -0.38166360459E+00 -0.32953044345E+00  0.90007755578E+02  0.90000017151E+02 0.  0.
         12    1    1    2    0    0  0.10671079965E+01  0.38166360459E+00  0.32953044345E+00  0.11802444223E+01  0.00000000000E+00 0. -1.
         11    1    3    3    0    0  0.31219418364E+02 -0.12717976982E+02 -0.16081006114E+02  0.37349669066E+02  0.51100000000E-03 0. -1.
        -11    1    3    3    0    0  0.70139971297E+01  0.51771700800E+01 -0.20000345870E+01  0.89442374959E+01  0.51100000000E-03 0.  1.
        -12    1    3    3    0    0 -0.39300523490E+02  0.71591432977E+01  0.17751510257E+02  0.43713849015E+02  0.00000000000E+00 0.  1.
</event>
<event>
 7    1  0.1971192E-015  0.9000783E+02  0.7816164E-02  0.1186339E+00
        -11   -1    0    0    0    0  0.00000000000E+00  0.00000000000E+00  0.45593999997E+02  0.45594000000E+02  0.51100000000E-03 0.  1.
         11   -1    0    0    0    0 -0.00000000000E+00 -0.00000000000E+00 -0.45593999997E+02  0.45594000000E+02  0.51100000000E-03 0. -1.
    9900012    2    1    2    0    0 -0.11429576301E+01  0.42457937404E-02 -0.29400282351E+00  0.90007827203E+02  0.90000089722E+02 0.  0.
         12    1    1    2    0    0  0.11429576301E+01 -0.42457937404E-02  0.29400282351E+00  0.11801727971E+01  0.00000000000E+00 0. -1.
         11    1    3    3    0    0 -0.74898550233E+00  0.15481977076E+00  0.10980267471E+00  0.77266120170E+00  0.51100000000E-03 0. -1.
        -11    1    3    3    0    0 -0.35916694233E+02 -0.10154686510E+00  0.26532842188E+02  0.44654349746E+02  0.51100000000E-03 0.  1.
         12    1    3    3    0    0  0.35522722105E+02 -0.49027111912E-01 -0.26936647686E+02  0.44580816255E+02  0.00000000000E+00 0. -1.
</event>
<event>
 7    1  0.1971192E-015  0.9000764E+02  0.7816164E-02  0.1186339E+00
        -11   -1    0    0    0    0  0.00000000000E+00  0.00000000000E+00  0.45593999997E+02  0.45594000000E+02  0.51100000000E-03 0.  1.
         11   -1    0    0    0    0 -0.00000000000E+00 -0.00000000000E+00 -0.45593999997E+02  0.45594000000E+02  0.51100000000E-03 0. -1.
    9900012    2    1    2    0    0 -0.23365783187E+00 -0.66731449199E+00  0.94516643318E+00  0.90007642342E+02  0.89999902421E+02 0.  0.
         12    1    1    2    0    0  0.23365783187E+00  0.66731449199E+00 -0.94516643318E+00  0.11803576577E+01  0.00000000000E+00 0. -1.
         11    1    3    3    0    0 -0.21488015670E+01  0.44419374527E+01 -0.30886256147E+02  0.31277931127E+02  0.51100000000E-03 0. -1.
        -11    1    3    3    0    0 -0.16643281551E+02 -0.95775083544E+01 -0.25835367037E+01  0.19375297397E+02  0.51100000000E-03 0.  1.
        -12    1    3    3    0    0  0.18558425286E+02  0.44682564097E+01  0.34414959284E+02  0.39354413818E+02  0.00000000000E+00 0.  1.
</event>
<event>
 7    1  0.1971192E-015  0.9000778E+02  0.7816164E-02  0.1186339E+00
        -11   -1    0    0    0    0  0.00000000000E+00  0.00000000000E+00  0.45593999997E+02  0.45594000000E+02  0.51100000000E-03 0.  1.
         11   -1    0    0    0    0 -0.00000000000E+00 -0.00000000000E+00 -0.45593999997E+02  0.45594000000E+02  0.51100000000E-03 0. -1.
    9900012    2    1    2    0    0 -0.11053496107E+01 -0.27123873986E+00  0.31232459624E+00  0.90007781855E+02  0.90000043776E+02 0.  0.
         12    1    1    2    0    0  0.11053496107E+01  0.27123873986E+00 -0.31232459624E+00  0.11802181448E+01  0.00000000000E+00 0. -1.
         11    1    3    3    0    0  0.38074088275E+01  0.10679806715E+01 -0.85735801491E+01  0.94415688066E+01  0.51100000000E-03 0. -1.
        -11    1    3    3    0    0 -0.20261210019E+02  0.14597314239E+02 -0.28021970931E+02  0.37534371842E+02  0.51100000000E-03 0.  1.
         12    1    3    3    0    0  0.15348451581E+02 -0.15936533651E+02  0.36907875676E+02  0.43031841207E+02  0.00000000000E+00 0. -1.
</event>
<event>
 7    1  0.1971192E-015  0.9000782E+02  0.7816164E-02  0.1186339E+00
        -11   -1    0    0    0    0  0.00000000000E+00  0.00000000000E+00  0.45593999997E+02  0.45594000000E+02  0.51100000000E-03 0.  1.
         11   -1    0    0    0    0 -0.00000000000E+00 -0.00000000000E+00 -0.45593999997E+02  0.45594000000E+02  0.51100000000E-03 0. -1.
    9900012    2    1    2    0    0  0.10865460611E+00 -0.66556102718E+00  0.96852959655E+00  0.90007819131E+02  0.90000081543E+02 0.  0.
         12    1    1    2    0    0 -0.10865460611E+00  0.66556102718E+00 -0.96852959655E+00  0.11801808691E+01  0.00000000000E+00 0. -1.
         11    1    3    3    0    0  0.31640317610E+01  0.14908373692E+02 -0.37471804375E+02  0.40452525589E+02  0.51100000000E-03 0. -1.
        -11    1    3    3    0    0  0.39694522665E+01 -0.77936535037E+01 -0.94656726484E+00  0.87973618818E+01  0.51100000000E-03 0.  1.
        -12    1    3    3    0    0 -0.70248294213E+01 -0.77802812154E+01  0.39386901237E+02  0.40757931660E+02  0.00000000000E+00 0.  1.
</event>
<event>
 7    1  0.1971192E-015  0.9000772E+02  0.7816164E-02  0.1186339E+00
        -11   -1    0    0    0    0  0.00000000000E+00  0.00000000000E+00  0.45593999997E+02  0.45594000000E+02  0.51100000000E-03 0. -1.
         11   -1    0    0    0    0 -0.00000000000E+00 -0.00000000000E+00 -0.45593999997E+02  0.45594000000E+02  0.51100000000E-03 0.  1.
    9900012    2    1    2    0    0 -0.11198404665E+01  0.37258418599E+00 -0.13968430582E-01  0.90007721743E+02  0.89999982870E+02 0.  0.
         12    1    1    2    0    0  0.11198404665E+01 -0.37258418599E+00  0.13968430582E-01  0.11802782567E+01  0.00000000000E+00 0. -1.
         11    1    3    3    0    0  0.15883757355E+02  0.24971614123E+02  0.14146593112E+02  0.32802459612E+02  0.51100000000E-03 0. -1.
        -11    1    3    3    0    0  0.68311938470E+01  0.71680058395E+01 -0.14417077100E+02  0.17489929373E+02  0.51100000000E-03 0.  1.
         12    1    3    3    0    0 -0.23834791669E+02 -0.31767035776E+02  0.25651555779E+00  0.39715332759E+02  0.00000000000E+00 0. -1.
</event>
<event>
 7    1  0.1971192E-015  0.9000784E+02  0.7816164E-02  0.1186339E+00
        -11   -1    0    0    0    0  0.00000000000E+00  0.00000000000E+00  0.45593999997E+02  0.45594000000E+02  0.51100000000E-03 0. -1.
         11   -1    0    0    0    0 -0.00000000000E+00 -0.00000000000E+00 -0.45593999997E+02  0.45594000000E+02  0.51100000000E-03 0.  1.
    9900012    2    1    2    0    0  0.59902157098E+00  0.68667249587E-02 -0.10168058654E+01  0.90007844009E+02  0.90000106750E+02 0.  0.
         12    1    1    2    0    0 -0.59902157098E+00 -0.68667249587E-02  0.10168058654E+01  0.11801559907E+01  0.00000000000E+00 0. -1.
         11    1    3    3    0    0 -0.10144002214E+02  0.22269494109E+01 -0.15523237348E+01  0.10500942522E+02  0.51100000000E-03 0. -1.
        -11    1    3    3    0    0  0.24571236215E+02 -0.34365002640E+02  0.96762136269E+01  0.43339683502E+02  0.51100000000E-03 0.  1.
         12    1    3    3    0    0 -0.13828212430E+02  0.32144919954E+02 -0.91406957575E+01  0.36167217986E+02  0.00000000000E+00 0. -1.
</event>
<event>
 7    1  0.1971192E-015  0.9000782E+02  0.7816164E-02  0.1186339E+00
        -11   -1    0    0    0    0  0.00000000000E+00  0.00000000000E+00  0.45593999997E+02  0.45594000000E+02  0.51100000000E-03 0. -1.
         11   -1    0    0    0    0 -0.00000000000E+00 -0.00000000000E+00 -0.45593999997E+02  0.45594000000E+02  0.51100000000E-03 0.  1.
    9900012    2    1    2    0    0  0.10003933799E+01  0.44135690488E+00 -0.44412133798E+00  0.90007819253E+02  0.90000081667E+02 0.  0.
         12    1    1    2    0    0 -0.10003933799E+01 -0.44135690488E+00  0.44412133798E+00  0.11801807467E+01  0.00000000000E+00 0. -1.
         11    1    3    3    0    0 -0.97951952553E+01 -0.89598777703E+01  0.21227559668E+02  0.25036664104E+02  0.51100000000E-03 0. -1.
        -11    1    3    3    0    0 -0.18399500977E+02  0.93130063524E+01  0.91113227635E+01  0.22545286121E+02  0.51100000000E-03 0.  1.
        -12    1    3    3    0    0  0.29195089612E+02  0.88228322728E-01 -0.30783003770E+02  0.42425869028E+02  0.00000000000E+00 0.  1.
</event>
<event>
 7    1  0.1971192E-015  0.9000781E+02  0.7816164E-02  0.1186339E+00
        -11   -1    0    0    0    0  0.00000000000E+00  0.00000000000E+00  0.45593999997E+02  0.45594000000E+02  0.51100000000E-03 0.  1.
         11   -1    0    0    0    0 -0.00000000000E+00 -0.00000000000E+00 -0.45593999997E+02  0.45594000000E+02  0.51100000000E-03 0. -1.
    9900012    2    1    2    0    0  0.56218391341E+00  0.66070738601E+00  0.80016804184E+00  0.90007807686E+02  0.90000069948E+02 0.  0.
         12    1    1    2    0    0 -0.56218391341E+00 -0.66070738601E+00 -0.80016804184E+00  0.11801923138E+01  0.00000000000E+00 0. -1.
         11    1    3    3    0    0 -0.81084757859E+01  0.41329526079E+02  0.12993015823E+01  0.42137457094E+02  0.51100000000E-03 0. -1.
        -11    1    3    3    0    0 -0.22092795834E+01 -0.62403184393E+01  0.83884379187E+01  0.10685896382E+02  0.51100000000E-03 0.  1.
        -12    1    3    3    0    0  0.10879939283E+02 -0.34428500254E+02 -0.88875714591E+01  0.37184454211E+02  0.00000000000E+00 0.  1.
</event>
<event>
 7    1  0.1971192E-015  0.9000779E+02  0.7816164E-02  0.1186339E+00
        -11   -1    0    0    0    0  0.00000000000E+00  0.00000000000E+00  0.45593999997E+02  0.45594000000E+02  0.51100000000E-03 0.  1.
         11   -1    0    0    0    0 -0.00000000000E+00 -0.00000000000E+00 -0.45593999997E+02  0.45594000000E+02  0.51100000000E-03 0. -1.
    9900012    2    1    2    0    0 -0.78469037884E+00  0.56778310293E+00  0.67437361930E+00  0.90007789671E+02  0.90000051694E+02 0.  0.
         12    1    1    2    0    0  0.78469037884E+00 -0.56778310293E+00 -0.67437361930E+00  0.11802103291E+01  0.00000000000E+00 0. -1.
         11    1    3    3    0    0  0.11523388351E+02 -0.94024234702E+01 -0.31628991051E+02  0.34951210585E+02  0.51100000000E-03 0. -1.
        -11    1    3    3    0    0 -0.10241774193E+02 -0.86911786198E+01 -0.41442728109E+01  0.14057223119E+02  0.51100000000E-03 0.  1.
        -12    1    3    3    0    0 -0.20663045371E+01  0.18661385193E+02  0.36447637481E+02  0.40999355967E+02  0.00000000000E+00 0.  1.
</event>
<event>
 7    1  0.1971192E-015  0.9000780E+02  0.7816164E-02  0.1186339E+00
        -11   -1    0    0    0    0  0.00000000000E+00  0.00000000000E+00  0.45593999997E+02  0.45594000000E+02  0.51100000000E-03 0. -1.
         11   -1    0    0    0    0 -0.00000000000E+00 -0.00000000000E+00 -0.45593999997E+02  0.45594000000E+02  0.51100000000E-03 0.  1.
    9900012    2    1    2    0    0  0.66564073257E+00  0.48628673133E+00  0.84458749385E+00  0.90007796456E+02  0.90000058569E+02 0.  0.
         12    1    1    2    0    0 -0.66564073257E+00 -0.48628673133E+00 -0.84458749385E+00  0.11802035438E+01  0.00000000000E+00 0. -1.
         11    1    3    3    0    0  0.36485908065E+02 -0.11159953319E+01  0.13936528010E+02  0.39072928558E+02  0.51100000000E-03 0. -1.
        -11    1    3    3    0    0  0.47460627758E+01  0.14084065949E-01 -0.89451122227E+01  0.10126220577E+02  0.51100000000E-03 0.  1.
        -12    1    3    3    0    0 -0.40566330108E+02  0.15881979973E+01 -0.41468282936E+01  0.40808647321E+02  0.00000000000E+00 0.  1.
</event>
<event>
 7    1  0.1971192E-015  0.9000776E+02  0.7816164E-02  0.1186339E+00
        -11   -1    0    0    0    0  0.00000000000E+00  0.00000000000E+00  0.45593999997E+02  0.45594000000E+02  0.51100000000E-03 0. -1.
         11   -1    0    0    0    0 -0.00000000000E+00 -0.00000000000E+00 -0.45593999997E+02  0.45594000000E+02  0.51100000000E-03 0.  1.
    9900012    2    1    2    0    0  0.19450804701E+00 -0.64743557188E+00 -0.96744555349E+00  0.90007763965E+02  0.90000025649E+02 0.  0.
         12    1    1    2    0    0 -0.19450804701E+00  0.64743557188E+00  0.96744555349E+00  0.11802360353E+01  0.00000000000E+00 0. -1.
         11    1    3    3    0    0  0.26656311974E+02  0.16074888873E+02 -0.24659739166E+02  0.39712262040E+02  0.51100000000E-03 0. -1.
        -11    1    3    3    0    0 -0.12803888198E+02  0.82575596149E+01  0.12490165465E+02  0.19701042546E+02  0.51100000000E-03 0.  1.
        -12    1    3    3    0    0 -0.13657915729E+02 -0.24979884060E+02  0.11202128148E+02  0.30594459379E+02  0.00000000000E+00 0.  1.
</event>
<event>
 7    1  0.1971192E-015  0.9000770E+02  0.7816164E-02  0.1186339E+00
        -11   -1    0    0    0    0  0.00000000000E+00  0.00000000000E+00  0.45593999997E+02  0.45594000000E+02  0.51100000000E-03 0. -1.
         11   -1    0    0    0    0 -0.00000000000E+00 -0.00000000000E+00 -0.45593999997E+02  0.45594000000E+02  0.51100000000E-03 0.  1.
    9900012    2    1    2    0    0 -0.91965168646E+00  0.53042880191E+00 -0.51574144947E+00  0.90007702080E+02  0.89999962947E+02 0.  0.
         12    1    1    2    0    0  0.91965168646E+00 -0.53042880191E+00  0.51574144947E+00  0.11802979204E+01  0.00000000000E+00 0. -1.
         11    1    3    3    0    0  0.27909617048E+02  0.23098527347E+02  0.68597370240E+01  0.36872004037E+02  0.51100000000E-03 0. -1.
        -11    1    3    3    0    0  0.54798072031E+01  0.57077830028E+01 -0.29977178158E+01  0.84612874998E+01  0.51100000000E-03 0.  1.
        -12    1    3    3    0    0 -0.34309075938E+02 -0.28275881548E+02 -0.43777606577E+01  0.44674410543E+02  0.00000000000E+00 0.  1.
</event>
<event>
 7    1  0.1971192E-015  0.9000775E+02  0.7816164E-02  0.1186339E+00
        -11   -1    0    0    0    0  0.00000000000E+00  0.00000000000E+00  0.45593999997E+02  0.45594000000E+02  0.51100000000E-03 0.  1.
         11   -1    0    0    0    0 -0.00000000000E+00 -0.00000000000E+00 -0.45593999997E+02  0.45594000000E+02  0.51100000000E-03 0. -1.
    9900012    2    1    2    0    0 -0.58222621237E+00  0.51214211502E+00  0.88977674641E+00  0.90007754446E+02  0.90000016005E+02 0.  0.
         12    1    1    2    0    0  0.58222621237E+00 -0.51214211502E+00 -0.88977674641E+00  0.11802455536E+01  0.00000000000E+00 0. -1.
         11    1    3    3    0    0 -0.30369965394E+02  0.14194641515E+02  0.46311042241E+01  0.33841834648E+02  0.51100000000E-03 0. -1.
        -11    1    3    3    0    0 -0.75606518943E+01 -0.12128869988E+01 -0.13571199662E+02  0.15582426398E+02  0.51100000000E-03 0.  1.
        -12    1    3    3    0    0  0.37348391076E+02 -0.12469612401E+02  0.98298721839E+01  0.40583493400E+02  0.00000000000E+00 0.  1.
</event>
<event>
 7    1  0.1971192E-015  0.9000773E+02  0.7816164E-02  0.1186339E+00
        -11   -1    0    0    0    0  0.00000000000E+00  0.00000000000E+00  0.45593999997E+02  0.45594000000E+02  0.51100000000E-03 0.  1.
         11   -1    0    0    0    0 -0.00000000000E+00 -0.00000000000E+00 -0.45593999997E+02  0.45594000000E+02  0.51100000000E-03 0. -1.
    9900012    2    1    2    0    0 -0.73972340211E+00 -0.90024417311E+00 -0.18816439498E+00  0.90007730487E+02  0.89999991730E+02 0.  0.
         12    1    1    2    0    0  0.73972340211E+00  0.90024417311E+00  0.18816439498E+00  0.11802695126E+01  0.00000000000E+00 0. -1.
         11    1    3    3    0    0  0.29941965880E+01 -0.79886926964E+01 -0.26209802453E+01  0.89249068294E+01  0.51100000000E-03 0. -1.
        -11    1    3    3    0    0  0.31453857058E+02 -0.76122898801E+01  0.21090914872E+02  0.38627953239E+02  0.51100000000E-03 0.  1.
         12    1    3    3    0    0 -0.35187777048E+02  0.14700738403E+02 -0.18658099021E+02  0.42454870419E+02  0.00000000000E+00 0. -1.
</event>
<event>
 7    1  0.1971192E-015  0.9000778E+02  0.7816164E-02  0.1186339E+00
        -11   -1    0    0    0    0  0.00000000000E+00  0.00000000000E+00  0.45593999997E+02  0.45594000000E+02  0.51100000000E-03 0. -1.
         11   -1    0    0    0    0 -0.00000000000E+00 -0.00000000000E+00 -0.45593999997E+02  0.45594000000E+02  0.51100000000E-03 0.  1.
    9900012    2    1    2    0    0 -0.17556025422E+00 -0.11578852840E+01 -0.14628751181E+00  0.90007779779E+02  0.90000041672E+02 0.  0.
         12    1    1    2    0    0  0.17556025422E+00  0.11578852840E+01  0.14628751181E+00  0.11802202209E+01  0.00000000000E+00 0. -1.
         11    1    3    3    0    0 -0.16719133606E+02 -0.33256968904E+02  0.97160457041E+01  0.38470208650E+02  0.51100000000E-03 0. -1.
        -11    1    3    3    0    0 -0.25067481035E+00  0.14322645615E+02  0.12036697743E+02  0.18710507959E+02  0.51100000000E-03 0.  1.
        -12    1    3    3    0    0  0.16794248162E+02  0.17776438004E+02 -0.21899030959E+02  0.32827063170E+02  0.00000000000E+00 0.  1.
</event>
<event>
 7    1  0.1971192E-015  0.9000773E+02  0.7816164E-02  0.1186339E+00
        -11   -1    0    0    0    0  0.00000000000E+00  0.00000000000E+00  0.45593999997E+02  0.45594000000E+02  0.51100000000E-03 0.  1.
         11   -1    0    0    0    0 -0.00000000000E+00 -0.00000000000E+00 -0.45593999997E+02  0.45594000000E+02  0.51100000000E-03 0. -1.
    9900012    2    1    2    0    0  0.29725476574E+00  0.10802078502E+01 -0.37125152649E+00  0.90007730077E+02  0.89999991314E+02 0.  0.
         12    1    1    2    0    0 -0.29725476574E+00 -0.10802078502E+01  0.37125152649E+00  0.11802699231E+01  0.00000000000E+00 0. -1.
         11    1    3    3    0    0 -0.50653744399E+01 -0.60806084684E+01  0.46345983385E+01  0.91712223604E+01  0.51100000000E-03 0. -1.
        -11    1    3    3    0    0  0.95382868929E+01 -0.32900064243E+02  0.13102507024E+02  0.36675180090E+02  0.51100000000E-03 0.  1.
         12    1    3    3    0    0 -0.41756576872E+01  0.40060880562E+02 -0.18108356889E+02  0.44161327626E+02  0.00000000000E+00 0. -1.
</event>
<event>
 7    1  0.1971192E-015  0.9000770E+02  0.7816164E-02  0.1186339E+00
        -11   -1    0    0    0    0  0.00000000000E+00  0.00000000000E+00  0.45593999997E+02  0.45594000000E+02  0.51100000000E-03 0. -1.
         11   -1    0    0    0    0 -0.00000000000E+00 -0.00000000000E+00 -0.45593999997E+02  0.45594000000E+02  0.51100000000E-03 0.  1.
    9900012    2    1    2    0    0  0.24570804416E-01 -0.11143125438E+01  0.38833326773E+00  0.90007703895E+02  0.89999964786E+02 0.  0.
         12    1    1    2    0    0 -0.24570804416E-01  0.11143125438E+01 -0.38833326773E+00  0.11802961054E+01  0.00000000000E+00 0. -1.
         11    1    3    3    0    0 -0.22192954921E+02 -0.22994008954E+02  0.16733772145E+02  0.36073131640E+02  0.51100000000E-03 0. -1.
        -11    1    3    3    0    0 -0.34543818553E+01 -0.86907045717E+01  0.26577534998E+01  0.97223841666E+01  0.51100000000E-03 0.  1.
        -12    1    3    3    0    0  0.25671907580E+02  0.30570400982E+02 -0.19003192377E+02  0.44212188088E+02  0.00000000000E+00 0.  1.
</event>
<event>
 7    1  0.1971192E-015  0.9000784E+02  0.7816164E-02  0.1186339E+00
        -11   -1    0    0    0    0  0.00000000000E+00  0.00000000000E+00  0.45593999997E+02  0.45594000000E+02  0.51100000000E-03 0. -1.
         11   -1    0    0    0    0 -0.00000000000E+00 -0.00000000000E+00 -0.45593999997E+02  0.45594000000E+02  0.51100000000E-03 0.  1.
    9900012    2    1    2    0    0 -0.47345203739E+00  0.30004931021E+00 -0.10385567622E+01  0.90007836211E+02  0.90000098849E+02 0.  0.
         12    1    1    2    0    0  0.47345203739E+00 -0.30004931021E+00  0.10385567622E+01  0.11801637889E+01  0.00000000000E+00 0. -1.
         11    1    3    3    0    0 -0.23820160301E+02 -0.25510349723E+00  0.24436872376E+02  0.34126614926E+02  0.51100000000E-03 0. -1.
        -11    1    3    3    0    0 -0.21803279587E+01  0.16355065168E+02  0.12460844425E-01  0.16499761883E+02  0.51100000000E-03 0.  1.
        -12    1    3    3    0    0  0.25527036222E+02 -0.15799912361E+02 -0.25487889982E+02  0.39381459402E+02  0.00000000000E+00 0.  1.
</event>
<event>
 7    1  0.1971192E-015  0.9000748E+02  0.7816164E-02  0.1186340E+00
        -11   -1    0    0    0    0  0.00000000000E+00  0.00000000000E+00  0.45593999997E+02  0.45594000000E+02  0.51100000000E-03 0.  1.
         11   -1    0    0    0    0 -0.00000000000E+00 -0.00000000000E+00 -0.45593999997E+02  0.45594000000E+02  0.51100000000E-03 0. -1.
    9900012    2    1    2    0    0 -0.21447564094E+00  0.68221464873E+00  0.93925980408E+00  0.90007480789E+02  0.89999738735E+02 0.  0.
         12    1    1    2    0    0  0.21447564094E+00 -0.68221464873E+00 -0.93925980408E+00  0.11805192108E+01  0.00000000000E+00 0. -1.
         11    1    3    3    0    0 -0.16966614761E+01  0.12206211108E+02  0.17951720316E+02  0.21774630016E+02  0.51100000000E-03 0. -1.
        -11    1    3    3    0    0 -0.53803398920E+01  0.26520727845E+02 -0.10514174872E+02  0.29031791820E+02  0.51100000000E-03 0.  1.
         12    1    3    3    0    0  0.68625257271E+01 -0.38044724305E+02 -0.64982856400E+01  0.39201058953E+02  0.00000000000E+00 0. -1.
</event>
<event>
 7    1  0.1971192E-015  0.9000768E+02  0.7816164E-02  0.1186339E+00
        -11   -1    0    0    0    0  0.00000000000E+00  0.00000000000E+00  0.45593999997E+02  0.45594000000E+02  0.51100000000E-03 0. -1.
         11   -1    0    0    0    0 -0.00000000000E+00 -0.00000000000E+00 -0.45593999997E+02  0.45594000000E+02  0.51100000000E-03 0.  1.
    9900012    2    1    2    0    0  0.83927744568E+00  0.24434814838E+00 -0.79312941515E+00  0.90007683552E+02  0.89999944175E+02 0.  0.
         12    1    1    2    0    0 -0.83927744568E+00 -0.24434814838E+00  0.79312941515E+00  0.11803164481E+01  0.00000000000E+00 0. -1.
         11    1    3    3    0    0 -0.30920588975E+02  0.22662918379E+01  0.21470898959E+02  0.37712311035E+02  0.51100000000E-03 0. -1.
        -11    1    3    3    0    0  0.16413679234E+00  0.72353503164E+01  0.56097816961E+01  0.91567945279E+01  0.51100000000E-03 0.  1.
        -12    1    3    3    0    0  0.31595729628E+02 -0.92572940059E+01 -0.27873810071E+02  0.43138577989E+02  0.00000000000E+00 0.  1.
</event>
<event>
 7    1  0.1971192E-015  0.9000772E+02  0.7816164E-02  0.1186339E+00
        -11   -1    0    0    0    0  0.00000000000E+00  0.00000000000E+00  0.45593999997E+02  0.45594000000E+02  0.51100000000E-03 0.  1.
         11   -1    0    0    0    0 -0.00000000000E+00 -0.00000000000E+00 -0.45593999997E+02  0.45594000000E+02  0.51100000000E-03 0. -1.
    9900012    2    1    2    0    0  0.34148282264E+00  0.93270240023E+00  0.63759439854E+00  0.90007715753E+02  0.89999976801E+02 0.  0.
         12    1    1    2    0    0 -0.34148282264E+00 -0.93270240023E+00 -0.63759439854E+00  0.11802842465E+01  0.00000000000E+00 0. -1.
         11    1    3    3    0    0  0.33849555495E+02  0.11668599472E+02 -0.12003773336E+02  0.37762934147E+02  0.51100000000E-03 0. -1.
        -11    1    3    3    0    0  0.62285706322E+01  0.27226751604E+01  0.72624454342E+01  0.99474200723E+01  0.51100000000E-03 0.  1.
        -12    1    3    3    0    0 -0.39736643304E+02 -0.13458572233E+02  0.53789223007E+01  0.42297361534E+02  0.00000000000E+00 0.  1.
</event>
<event>
 7    1  0.1971192E-015  0.9000775E+02  0.7816164E-02  0.1186339E+00
        -11   -1    0    0    0    0  0.00000000000E+00  0.00000000000E+00  0.45593999997E+02  0.45594000000E+02  0.51100000000E-03 0.  1.
         11   -1    0    0    0    0 -0.00000000000E+00 -0.00000000000E+00 -0.45593999997E+02  0.45594000000E+02  0.51100000000E-03 0. -1.
    9900012    2    1    2    0    0 -0.64537359609E+00 -0.71764734224E+00 -0.67931594754E+00  0.90007747932E+02  0.90000009405E+02 0.  0.
         12    1    1    2    0    0  0.64537359609E+00  0.71764734224E+00  0.67931594754E+00  0.11802520675E+01  0.00000000000E+00 0. -1.
         11    1    3    3    0    0 -0.35828144978E+02  0.21680594446E+02  0.52817746521E+01  0.42209019081E+02  0.51100000000E-03 0. -1.
        -11    1    3    3    0    0  0.44335244148E+01  0.31982133245E+01 -0.55467730431E+01  0.77879007864E+01  0.51100000000E-03 0.  1.
        -12    1    3    3    0    0  0.30749246967E+02 -0.25596455113E+02 -0.41431755652E+00  0.40010828065E+02  0.00000000000E+00 0.  1.
</event>
<event>
 7    1  0.1971192E-015  0.9000761E+02  0.7816164E-02  0.1186339E+00
        -11   -1    0    0    0    0  0.00000000000E+00  0.00000000000E+00  0.45593999997E+02  0.45594000000E+02  0.51100000000E-03 0. -1.
         11   -1    0    0    0    0 -0.00000000000E+00 -0.00000000000E+00 -0.45593999997E+02  0.45594000000E+02  0.51100000000E-03 0.  1.
    9900012    2    1    2    0    0 -0.46904032239E+00  0.25126745835E+00 -0.10536541981E+01  0.90007609671E+02  0.89999869319E+02 0.  0.
         12    1    1    2    0    0  0.46904032239E+00 -0.25126745835E+00  0.10536541981E+01  0.11803903291E+01  0.00000000000E+00 0. -1.
         11    1    3    3    0    0 -0.42611319432E+02 -0.11684746746E+01 -0.10717962483E+02  0.43954119225E+02  0.51100000000E-03 0. -1.
        -11    1    3    3    0    0  0.57291015587E+01  0.51350555723E+01 -0.13905691030E+01  0.78182531995E+01  0.51100000000E-03 0.  1.
        -12    1    3    3    0    0  0.36413177550E+02 -0.37153134393E+01  0.11054877388E+02  0.38235237247E+02  0.00000000000E+00 0.  1.
</event>
<event>
 7    1  0.1971192E-015  0.9000779E+02  0.7816164E-02  0.1186339E+00
        -11   -1    0    0    0    0  0.00000000000E+00  0.00000000000E+00  0.45593999997E+02  0.45594000000E+02  0.51100000000E-03 0.  1.
         11   -1    0    0    0    0 -0.00000000000E+00 -0.00000000000E+00 -0.45593999997E+02  0.45594000000E+02  0.51100000000E-03 0. -1.
    9900012    2    1    2    0    0  0.63503397020E+00 -0.17164194984E+00  0.97987731579E+00  0.90007792960E+02  0.90000055027E+02 0.  0.
         12    1    1    2    0    0 -0.63503397020E+00  0.17164194984E+00 -0.97987731579E+00  0.11802070396E+01  0.00000000000E+00 0. -1.
         11    1    3    3    0    0 -0.19902931985E+02 -0.26972903433E+02  0.44616527584E+01  0.33816720225E+02  0.51100000000E-03 0. -1.
        -11    1    3    3    0    0 -0.67901407981E+01 -0.88505199719E+01 -0.33420423546E+00  0.11160170633E+02  0.51100000000E-03 0.  1.
        -12    1    3    3    0    0  0.27328106754E+02  0.35651781455E+02 -0.31475712072E+01  0.45030902102E+02  0.00000000000E+00 0.  1.
</event>
<event>
 7    1  0.1971192E-015  0.9000776E+02  0.7816164E-02  0.1186339E+00
        -11   -1    0    0    0    0  0.00000000000E+00  0.00000000000E+00  0.45593999997E+02  0.45594000000E+02  0.51100000000E-03 0. -1.
         11   -1    0    0    0    0 -0.00000000000E+00 -0.00000000000E+00 -0.45593999997E+02  0.45594000000E+02  0.51100000000E-03 0.  1.
    9900012    2    1    2    0    0  0.89995040298E+00 -0.76354036233E+00  0.75877570022E-02  0.90007761809E+02  0.90000023465E+02 0.  0.
         12    1    1    2    0    0 -0.89995040298E+00  0.76354036233E+00 -0.75877570022E-02  0.11802381907E+01  0.00000000000E+00 0. -1.
         11    1    3    3    0    0 -0.42568999525E+00  0.29024572969E+02  0.28640161989E+02  0.40778253114E+02  0.51100000000E-03 0. -1.
        -11    1    3    3    0    0 -0.21874374436E+01 -0.11356191497E+02  0.34449184047E+01  0.12067121901E+02  0.51100000000E-03 0.  1.
        -12    1    3    3    0    0  0.35130778418E+01 -0.18431921834E+02 -0.32077492637E+02  0.37162386795E+02  0.00000000000E+00 0.  1.
</event>
<event>
 7    1  0.1971192E-015  0.9000773E+02  0.7816164E-02  0.1186339E+00
        -11   -1    0    0    0    0  0.00000000000E+00  0.00000000000E+00  0.45593999997E+02  0.45594000000E+02  0.51100000000E-03 0.  1.
         11   -1    0    0    0    0 -0.00000000000E+00 -0.00000000000E+00 -0.45593999997E+02  0.45594000000E+02  0.51100000000E-03 0. -1.
    9900012    2    1    2    0    0 -0.98347263989E+00  0.59342219309E+00  0.27140637711E+00  0.90007733185E+02  0.89999994463E+02 0.  0.
         12    1    1    2    0    0  0.98347263989E+00 -0.59342219309E+00 -0.27140637711E+00  0.11802668148E+01  0.00000000000E+00 0. -1.
         11    1    3    3    0    0  0.74202885962E+01 -0.45704047219E+01 -0.35471524462E+01  0.94091217927E+01  0.51100000000E-03 0. -1.
        -11    1    3    3    0    0  0.13219971322E+02  0.38245149179E+02  0.65082194453E+01  0.40985558409E+02  0.51100000000E-03 0.  1.
         12    1    3    3    0    0 -0.21623732558E+02 -0.33081322264E+02 -0.26896606219E+01  0.39613052984E+02  0.00000000000E+00 0. -1.
</event>
<event>
 7    1  0.1971192E-015  0.9000789E+02  0.7816164E-02  0.1186339E+00
        -11   -1    0    0    0    0  0.00000000000E+00  0.00000000000E+00  0.45593999997E+02  0.45594000000E+02  0.51100000000E-03 0. -1.
         11   -1    0    0    0    0 -0.00000000000E+00 -0.00000000000E+00 -0.45593999997E+02  0.45594000000E+02  0.51100000000E-03 0.  1.
    9900012    2    1    2    0    0 -0.35727295910E+00 -0.50152424843E+00 -0.10067250013E+01  0.90007887392E+02  0.90000150706E+02 0.  0.
         12    1    1    2    0    0  0.35727295910E+00  0.50152424843E+00  0.10067250013E+01  0.11801126079E+01  0.00000000000E+00 0. -1.
         11    1    3    3    0    0  0.10349766036E+02  0.40779743761E+02  0.13012339820E+02  0.44038916268E+02  0.51100000000E-03 0. -1.
        -11    1    3    3    0    0  0.14066998319E+01 -0.11753022645E+02 -0.44971514272E+01  0.12662413550E+02  0.51100000000E-03 0.  1.
        -12    1    3    3    0    0 -0.12113738827E+02 -0.29528245365E+02 -0.95219133941E+01  0.33306557574E+02  0.00000000000E+00 0.  1.
</event>
<event>
 7    1  0.1971192E-015  0.9000757E+02  0.7816164E-02  0.1186339E+00
        -11   -1    0    0    0    0  0.00000000000E+00  0.00000000000E+00  0.45593999997E+02  0.45594000000E+02  0.51100000000E-03 0. -1.
         11   -1    0    0    0    0 -0.00000000000E+00 -0.00000000000E+00 -0.45593999997E+02  0.45594000000E+02  0.51100000000E-03 0.  1.
    9900012    2    1    2    0    0 -0.26454350768E+00 -0.11067367555E+01 -0.31393673257E+00  0.90007573897E+02  0.89999833072E+02 0.  0.
         12    1    1    2    0    0  0.26454350768E+00  0.11067367555E+01  0.31393673257E+00  0.11804261033E+01  0.00000000000E+00 0. -1.
         11    1    3    3    0    0 -0.50720729871E+01  0.23629513546E+02  0.25566286149E+02  0.35181171420E+02  0.51100000000E-03 0. -1.
        -11    1    3    3    0    0 -0.50847265762E+01 -0.10207220806E+01  0.96634332696E+01  0.10967144603E+02  0.51100000000E-03 0.  1.
        -12    1    3    3    0    0  0.98922560556E+01 -0.23715528220E+02 -0.35543656151E+02  0.43859257874E+02  0.00000000000E+00 0.  1.
</event>
<event>
 8    1  0.1971192E-015  0.9000786E+02  0.7816164E-02  0.1186339E+00
        -11   -1    0    0    0    0  0.00000000000E+00  0.00000000000E+00  0.45593999997E+02  0.45594000000E+02  0.51100000000E-03 0.  1.
         11   -1    0    0    0    0 -0.00000000000E+00 -0.00000000000E+00 -0.45593999997E+02  0.45594000000E+02  0.51100000000E-03 0. -1.
    9900012    2    1    2    0    0 -0.67060252256E+00  0.75379035391E+00  0.61223334605E+00  0.90007857080E+02  0.90000119994E+02 0.  0.
         23    2    3    3    0    0 -0.70641400922E+01 -0.63430021847E+01 -0.22424078963E+02  0.65069664047E+02  0.60341412893E+02 0.  0.
         12    1    1    2    0    0  0.67060252256E+00 -0.75379035391E+00 -0.61223334605E+00  0.11801429197E+01  0.00000000000E+00 0. -1.
         11    1    4    4    0    0 -0.25376856329E+02  0.35353323682E+01 -0.32959749883E+02  0.41747197807E+02  0.51100000000E-03 0. -1.
        -11    1    4    4    0    0  0.18312716237E+02 -0.98783345529E+01  0.10535670920E+02  0.23322466240E+02  0.51100000000E-03 0.  1.
        -12    1    3    3    0    0  0.63935375696E+01  0.70967925387E+01  0.23036312309E+02  0.24938193034E+02  0.00000000000E+00 0.  1.
</event>
<event>
 7    1  0.1971192E-015  0.9000781E+02  0.7816164E-02  0.1186339E+00
        -11   -1    0    0    0    0  0.00000000000E+00  0.00000000000E+00  0.45593999997E+02  0.45594000000E+02  0.51100000000E-03 0.  1.
         11   -1    0    0    0    0 -0.00000000000E+00 -0.00000000000E+00 -0.45593999997E+02  0.45594000000E+02  0.51100000000E-03 0. -1.
    9900012    2    1    2    0    0  0.78287127921E+00 -0.85041141460E+00 -0.23825043393E+00  0.90007809217E+02  0.90000071499E+02 0.  0.
         12    1    1    2    0    0 -0.78287127921E+00  0.85041141460E+00  0.23825043393E+00  0.11801907825E+01  0.00000000000E+00 0. -1.
         11    1    3    3    0    0  0.14694245706E+02  0.33448329094E+02  0.35463789788E+01  0.36705427121E+02  0.51100000000E-03 0. -1.
        -11    1    3    3    0    0 -0.15617958297E+02 -0.44541643726E+00 -0.10396594638E+02  0.18767210701E+02  0.51100000000E-03 0.  1.
        -12    1    3    3    0    0  0.17065838701E+01 -0.33853324071E+02  0.66119652254E+01  0.34535171395E+02  0.00000000000E+00 0.  1.
</event>
<event>
 7    1  0.1971192E-015  0.9000769E+02  0.7816164E-02  0.1186339E+00
        -11   -1    0    0    0    0  0.00000000000E+00  0.00000000000E+00  0.45593999997E+02  0.45594000000E+02  0.51100000000E-03 0.  1.
         11   -1    0    0    0    0 -0.00000000000E+00 -0.00000000000E+00 -0.45593999997E+02  0.45594000000E+02  0.51100000000E-03 0. -1.
    9900012    2    1    2    0    0 -0.10381067685E+01  0.39106431572E+00 -0.40316603380E+00  0.90007686562E+02  0.89999947224E+02 0.  0.
         12    1    1    2    0    0  0.10381067685E+01 -0.39106431572E+00  0.40316603380E+00  0.11803134383E+01  0.00000000000E+00 0. -1.
         11    1    3    3    0    0 -0.13578590883E+01 -0.74704900651E+01 -0.39703313388E+02  0.40422828913E+02  0.51100000000E-03 0. -1.
        -11    1    3    3    0    0 -0.44793192673E+00 -0.10567651647E+02  0.80300020971E+01  0.13279941200E+02  0.51100000000E-03 0.  1.
        -12    1    3    3    0    0  0.76768424648E+00  0.18429206028E+02  0.31270145257E+02  0.36304916448E+02  0.00000000000E+00 0.  1.
</event>
<event>
 7    1  0.1971192E-015  0.9000785E+02  0.7816164E-02  0.1186339E+00
        -11   -1    0    0    0    0  0.00000000000E+00  0.00000000000E+00  0.45593999997E+02  0.45594000000E+02  0.51100000000E-03 0. -1.
         11   -1    0    0    0    0 -0.00000000000E+00 -0.00000000000E+00 -0.45593999997E+02  0.45594000000E+02  0.51100000000E-03 0.  1.
    9900012    2    1    2    0    0 -0.82611335781E+00  0.72972303743E+00  0.42165848213E+00  0.90007849642E+02  0.90000112457E+02 0.  0.
         12    1    1    2    0    0  0.82611335781E+00 -0.72972303743E+00 -0.42165848213E+00  0.11801503577E+01  0.00000000000E+00 0. -1.
         11    1    3    3    0    0 -0.16120670451E+02 -0.35271447579E+02 -0.12809283978E+01  0.38801956239E+02  0.51100000000E-03 0. -1.
        -11    1    3    3    0    0  0.10126178890E+02 -0.29319939565E+01  0.52392725026E+01  0.11772258241E+02  0.51100000000E-03 0.  1.
        -12    1    3    3    0    0  0.51683782033E+01  0.38933164573E+02 -0.35366856227E+01  0.39433635163E+02  0.00000000000E+00 0.  1.
</event>
<event>
 7    1  0.1971192E-015  0.9000849E+02  0.7816164E-02  0.1186338E+00
        -11   -1    0    0    0    0  0.00000000000E+00  0.00000000000E+00  0.45593999997E+02  0.45594000000E+02  0.51100000000E-03 0.  1.
         11   -1    0    0    0    0 -0.00000000000E+00 -0.00000000000E+00 -0.45593999997E+02  0.45594000000E+02  0.51100000000E-03 0. -1.
    9900012    2    1    2    0    0  0.42257530930E+00  0.45154850968E+00  0.10043771790E+01  0.90008491854E+02  0.90000763143E+02 0.  0.
         12    1    1    2    0    0 -0.42257530930E+00 -0.45154850968E+00 -0.10043771790E+01  0.11795081460E+01  0.00000000000E+00 0. -1.
         11    1    3    3    0    0  0.72846590029E+01 -0.13522872153E+01 -0.53765870838E+01  0.91543774464E+01  0.51100000000E-03 0. -1.
        -11    1    3    3    0    0 -0.29161294384E+02 -0.65950650177E+01  0.33401370161E+02  0.44827753698E+02  0.51100000000E-03 0.  1.
         12    1    3    3    0    0  0.22299210690E+02  0.83989007427E+01 -0.27020405898E+02  0.36026360710E+02  0.00000000000E+00 0. -1.
</event>
<event>
 7    1  0.1971192E-015  0.9000765E+02  0.7816164E-02  0.1186339E+00
        -11   -1    0    0    0    0  0.00000000000E+00  0.00000000000E+00  0.45593999997E+02  0.45594000000E+02  0.51100000000E-03 0.  1.
         11   -1    0    0    0    0 -0.00000000000E+00 -0.00000000000E+00 -0.45593999997E+02  0.45594000000E+02  0.51100000000E-03 0. -1.
    9900012    2    1    2    0    0 -0.55498715490E+00  0.10177260553E+01  0.22238984081E+00  0.90007646533E+02  0.89999906667E+02 0.  0.
         12    1    1    2    0    0  0.55498715490E+00 -0.10177260553E+01 -0.22238984081E+00  0.11803534670E+01  0.00000000000E+00 0. -1.
         11    1    3    3    0    0  0.18365323768E+02 -0.20820615681E+02 -0.28213966820E+02  0.39582964498E+02  0.51100000000E-03 0. -1.
        -11    1    3    3    0    0 -0.48974276661E+01  0.37580653489E+01 -0.63059859471E+01  0.88245856525E+01  0.51100000000E-03 0.  1.
        -12    1    3    3    0    0 -0.14022883257E+02  0.18080276388E+02  0.34742342608E+02  0.41600096382E+02  0.00000000000E+00 0.  1.
</event>
<event>
 7    1  0.1971192E-015  0.9000767E+02  0.7816164E-02  0.1186339E+00
        -11   -1    0    0    0    0  0.00000000000E+00  0.00000000000E+00  0.45593999997E+02  0.45594000000E+02  0.51100000000E-03 0. -1.
         11   -1    0    0    0    0 -0.00000000000E+00 -0.00000000000E+00 -0.45593999997E+02  0.45594000000E+02  0.51100000000E-03 0.  1.
    9900012    2    1    2    0    0  0.12203416426E+00 -0.10614273582E+01 -0.50164498413E+00  0.90007674594E+02  0.89999935099E+02 0.  0.
         12    1    1    2    0    0 -0.12203416426E+00  0.10614273582E+01  0.50164498413E+00  0.11803254060E+01  0.00000000000E+00 0. -1.
         11    1    3    3    0    0  0.92413952774E+01  0.19001950018E+02 -0.10118569816E+02  0.23427824196E+02  0.51100000000E-03 0. -1.
        -11    1    3    3    0    0  0.23733539276E+02 -0.17969909834E+02  0.14816065405E+02  0.33252283235E+02  0.51100000000E-03 0.  1.
         12    1    3    3    0    0 -0.32852900389E+02 -0.20934675419E+01 -0.51991405727E+01  0.33327567163E+02  0.00000000000E+00 0. -1.
</event>
<event>
 7    1  0.1971192E-015  0.9000775E+02  0.7816164E-02  0.1186339E+00
        -11   -1    0    0    0    0  0.00000000000E+00  0.00000000000E+00  0.45593999997E+02  0.45594000000E+02  0.51100000000E-03 0.  1.
         11   -1    0    0    0    0 -0.00000000000E+00 -0.00000000000E+00 -0.45593999997E+02  0.45594000000E+02  0.51100000000E-03 0. -1.
    9900012    2    1    2    0    0  0.10647692151E+01  0.40519121693E+00  0.30833461667E+00  0.90007752721E+02  0.90000014257E+02 0.  0.
         12    1    1    2    0    0 -0.10647692151E+01 -0.40519121693E+00 -0.30833461667E+00  0.11802472790E+01  0.00000000000E+00 0. -1.
         11    1    3    3    0    0  0.52093680445E+01 -0.53693037394E+01 -0.54992090387E+01  0.92848391683E+01  0.51100000000E-03 0. -1.
        -11    1    3    3    0    0  0.29039278970E+02  0.27270049627E+02 -0.38525891297E+01  0.40022215993E+02  0.51100000000E-03 0.  1.
         12    1    3    3    0    0 -0.33183877800E+02 -0.21495554670E+02  0.96601327851E+01  0.40700697559E+02  0.00000000000E+00 0. -1.
</event>
<event>
 7    1  0.1971192E-015  0.9000771E+02  0.7816164E-02  0.1186339E+00
        -11   -1    0    0    0    0  0.00000000000E+00  0.00000000000E+00  0.45593999997E+02  0.45594000000E+02  0.51100000000E-03 0. -1.
         11   -1    0    0    0    0 -0.00000000000E+00 -0.00000000000E+00 -0.45593999997E+02  0.45594000000E+02  0.51100000000E-03 0.  1.
    9900012    2    1    2    0    0 -0.10383040155E+01 -0.55193246021E+00 -0.10192728749E+00  0.90007706036E+02  0.89999966956E+02 0.  0.
         12    1    1    2    0    0  0.10383040155E+01  0.55193246021E+00  0.10192728749E+00  0.11802939639E+01  0.00000000000E+00 0. -1.
         11    1    3    3    0    0  0.31366355294E-01  0.29977746734E+02  0.20355746469E+02  0.36235655061E+02  0.51100000000E-03 0. -1.
        -11    1    3    3    0    0  0.41559034868E+01  0.57311533059E+01  0.54224624856E+01  0.89174408703E+01  0.51100000000E-03 0.  1.
        -12    1    3    3    0    0 -0.52255738576E+01 -0.36260832500E+02 -0.25880136242E+02  0.44854610105E+02  0.00000000000E+00 0.  1.
</event>
<event>
 7    1  0.1971192E-015  0.9000766E+02  0.7816164E-02  0.1186339E+00
        -11   -1    0    0    0    0  0.00000000000E+00  0.00000000000E+00  0.45593999997E+02  0.45594000000E+02  0.51100000000E-03 0.  1.
         11   -1    0    0    0    0 -0.00000000000E+00 -0.00000000000E+00 -0.45593999997E+02  0.45594000000E+02  0.51100000000E-03 0. -1.
    9900012    2    1    2    0    0 -0.89266353816E+00 -0.41586883392E-02  0.77223014242E+00  0.90007658998E+02  0.89999919297E+02 0.  0.
         12    1    1    2    0    0  0.89266353816E+00  0.41586883392E-02 -0.77223014242E+00  0.11803410015E+01  0.00000000000E+00 0. -1.
         11    1    3    3    0    0  0.34832878059E+02 -0.98954292749E+01 -0.76593075995E+01  0.37012348042E+02  0.51100000000E-03 0. -1.
        -11    1    3    3    0    0  0.64230742645E+01  0.71632441276E+01  0.43590072488E+01  0.10562617758E+02  0.51100000000E-03 0.  1.
        -12    1    3    3    0    0 -0.42148615862E+02  0.27280264589E+01  0.40725304932E+01  0.42432693198E+02  0.00000000000E+00 0.  1.
</event>
<event>
 7    1  0.1971192E-015  0.9000778E+02  0.7816164E-02  0.1186339E+00
        -11   -1    0    0    0    0  0.00000000000E+00  0.00000000000E+00  0.45593999997E+02  0.45594000000E+02  0.51100000000E-03 0.  1.
         11   -1    0    0    0    0 -0.00000000000E+00 -0.00000000000E+00 -0.45593999997E+02  0.45594000000E+02  0.51100000000E-03 0. -1.
    9900012    2    1    2    0    0 -0.64322196641E+00 -0.79012515429E+00  0.59572771251E+00  0.90007778087E+02  0.90000039957E+02 0.  0.
         12    1    1    2    0    0  0.64322196641E+00  0.79012515429E+00 -0.59572771251E+00  0.11802219134E+01  0.00000000000E+00 0. -1.
         11    1    3    3    0    0  0.17592098377E+01  0.26919300001E+02 -0.24034530165E+02  0.36130349740E+02  0.51100000000E-03 0. -1.
        -11    1    3    3    0    0  0.13036496102E+02 -0.39686443441E+01 -0.33860086841E+01  0.14041560583E+02  0.51100000000E-03 0.  1.
        -12    1    3    3    0    0 -0.15438927906E+02 -0.23740780812E+02  0.28016266561E+02  0.39835867763E+02  0.00000000000E+00 0.  1.
</event>
<event>
 7    1  0.1971192E-015  0.9000769E+02  0.7816164E-02  0.1186339E+00
        -11   -1    0    0    0    0  0.00000000000E+00  0.00000000000E+00  0.45593999997E+02  0.45594000000E+02  0.51100000000E-03 0.  1.
         11   -1    0    0    0    0 -0.00000000000E+00 -0.00000000000E+00 -0.45593999997E+02  0.45594000000E+02  0.51100000000E-03 0. -1.
    9900012    2    1    2    0    0 -0.10800172455E+00 -0.30903901911E+00 -0.11340014021E+01  0.90007691283E+02  0.89999952008E+02 0.  0.
         12    1    1    2    0    0  0.10800172455E+00  0.30903901911E+00  0.11340014021E+01  0.11803087171E+01  0.00000000000E+00 0. -1.
         11    1    3    3    0    0 -0.61978027245E+01 -0.14937311517E+02 -0.39338547365E+02  0.42533014742E+02  0.51100000000E-03 0. -1.
        -11    1    3    3    0    0 -0.14396100590E+01 -0.60233341374E+01  0.79291572598E+01  0.10061042012E+02  0.51100000000E-03 0.  1.
        -12    1    3    3    0    0  0.75294110590E+01  0.20651606635E+02  0.30275388704E+02  0.37413634529E+02  0.00000000000E+00 0.  1.
</event>
<event>
 7    1  0.1971192E-015  0.9000777E+02  0.7816164E-02  0.1186339E+00
        -11   -1    0    0    0    0  0.00000000000E+00  0.00000000000E+00  0.45593999997E+02  0.45594000000E+02  0.51100000000E-03 0.  1.
         11   -1    0    0    0    0 -0.00000000000E+00 -0.00000000000E+00 -0.45593999997E+02  0.45594000000E+02  0.51100000000E-03 0. -1.
    9900012    2    1    2    0    0  0.10475117079E+01 -0.29902587155E+00  0.45414022282E+00  0.90007770958E+02  0.90000032734E+02 0.  0.
         12    1    1    2    0    0 -0.10475117079E+01  0.29902587155E+00 -0.45414022282E+00  0.11802290422E+01  0.00000000000E+00 0. -1.
         11    1    3    3    0    0  0.88264686983E+01 -0.36124707403E+01 -0.99633695659E+00  0.95890136158E+01  0.51100000000E-03 0. -1.
        -11    1    3    3    0    0  0.66691959749E+01  0.48979938222E+01  0.39149734318E+02  0.40014625025E+02  0.51100000000E-03 0.  1.
         12    1    3    3    0    0 -0.14448152965E+02 -0.15845489534E+01 -0.37699257139E+02  0.40404132317E+02  0.00000000000E+00 0. -1.
</event>
<event>
 7    1  0.1971192E-015  0.9000771E+02  0.7816164E-02  0.1186339E+00
        -11   -1    0    0    0    0  0.00000000000E+00  0.00000000000E+00  0.45593999997E+02  0.45594000000E+02  0.51100000000E-03 0. -1.
         11   -1    0    0    0    0 -0.00000000000E+00 -0.00000000000E+00 -0.45593999997E+02  0.45594000000E+02  0.51100000000E-03 0.  1.
    9900012    2    1    2    0    0 -0.76608374008E+00 -0.87500403877E+00  0.20141917867E+00  0.90007709337E+02  0.89999970300E+02 0.  0.
         12    1    1    2    0    0  0.76608374008E+00  0.87500403877E+00 -0.20141917867E+00  0.11802906634E+01  0.00000000000E+00 0. -1.
         11    1    3    3    0    0  0.26097024718E+02  0.97135060694E+01 -0.26418750169E+02  0.38384336129E+02  0.51100000000E-03 0. -1.
        -11    1    3    3    0    0  0.34291614995E+01 -0.12922396100E+02  0.47496690507E+01  0.14188263668E+02  0.51100000000E-03 0.  1.
        -12    1    3    3    0    0 -0.30292269958E+02  0.23338859921E+01  0.21870500297E+02  0.37435109540E+02  0.00000000000E+00 0.  1.
</event>
<event>
 7    1  0.1971192E-015  0.9000772E+02  0.7816164E-02  0.1186339E+00
        -11   -1    0    0    0    0  0.00000000000E+00  0.00000000000E+00  0.45593999997E+02  0.45594000000E+02  0.51100000000E-03 0.  1.
         11   -1    0    0    0    0 -0.00000000000E+00 -0.00000000000E+00 -0.45593999997E+02  0.45594000000E+02  0.51100000000E-03 0. -1.
    9900012    2    1    2    0    0 -0.58226448447E+00 -0.88212033181E+00  0.52525478010E+00  0.90007720036E+02  0.89999981140E+02 0.  0.
         12    1    1    2    0    0  0.58226448447E+00  0.88212033181E+00 -0.52525478010E+00  0.11802799641E+01  0.00000000000E+00 0. -1.
         11    1    3    3    0    0 -0.10809459116E+02 -0.88783184973E+01 -0.37515615237E+00  0.13993201496E+02  0.51100000000E-03 0. -1.
        -11    1    3    3    0    0  0.78134015955E+01  0.28662665825E+02  0.28688914205E+02  0.41299533354E+02  0.51100000000E-03 0.  1.
         12    1    3    3    0    0  0.24137930356E+01 -0.20666467659E+02 -0.27788503273E+02  0.34714985186E+02  0.00000000000E+00 0. -1.
</event>
<event>
 7    1  0.1971192E-015  0.9000778E+02  0.7816164E-02  0.1186339E+00
        -11   -1    0    0    0    0  0.00000000000E+00  0.00000000000E+00  0.45593999997E+02  0.45594000000E+02  0.51100000000E-03 0. -1.
         11   -1    0    0    0    0 -0.00000000000E+00 -0.00000000000E+00 -0.45593999997E+02  0.45594000000E+02  0.51100000000E-03 0.  1.
    9900012    2    1    2    0    0 -0.96068830648E+00 -0.68521063746E+00  0.22059202462E-01  0.90007778729E+02  0.90000040608E+02 0.  0.
         12    1    1    2    0    0  0.96068830648E+00  0.68521063746E+00 -0.22059202462E-01  0.11802212709E+01  0.00000000000E+00 0. -1.
         11    1    3    3    0    0 -0.10826999542E+02  0.24407564626E+02  0.28698575510E+02  0.39198997010E+02  0.51100000000E-03 0. -1.
        -11    1    3    3    0    0 -0.43259846415E+01  0.62122514691E+01 -0.50607250458E+01  0.91058854420E+01  0.51100000000E-03 0.  1.
        -12    1    3    3    0    0  0.14192295877E+02 -0.31305026733E+02 -0.23615791261E+02  0.41702896277E+02  0.00000000000E+00 0.  1.
</event>
<event>
 7    1  0.1971192E-015  0.9000779E+02  0.7816164E-02  0.1186339E+00
        -11   -1    0    0    0    0  0.00000000000E+00  0.00000000000E+00  0.45593999997E+02  0.45594000000E+02  0.51100000000E-03 0.  1.
         11   -1    0    0    0    0 -0.00000000000E+00 -0.00000000000E+00 -0.45593999997E+02  0.45594000000E+02  0.51100000000E-03 0. -1.
    9900012    2    1    2    0    0 -0.74732811886E+00 -0.80981884229E+00 -0.42261258831E+00  0.90007785073E+02  0.90000047036E+02 0.  0.
         12    1    1    2    0    0  0.74732811886E+00  0.80981884229E+00  0.42261258831E+00  0.11802149272E+01  0.00000000000E+00 0. -1.
         11    1    3    3    0    0 -0.33032552277E+01 -0.58605077778E+01 -0.51314891523E+01  0.84610417618E+01  0.51100000000E-03 0. -1.
        -11    1    3    3    0    0  0.35450114478E+02 -0.13318885087E+02  0.17555572217E+02  0.41740884425E+02  0.51100000000E-03 0.  1.
         12    1    3    3    0    0 -0.32894187369E+02  0.18369574022E+02 -0.12846695653E+02  0.39805858886E+02  0.00000000000E+00 0. -1.
</event>
<event>
 7    1  0.1971192E-015  0.9000777E+02  0.7816164E-02  0.1186339E+00
        -11   -1    0    0    0    0  0.00000000000E+00  0.00000000000E+00  0.45593999997E+02  0.45594000000E+02  0.51100000000E-03 0. -1.
         11   -1    0    0    0    0 -0.00000000000E+00 -0.00000000000E+00 -0.45593999997E+02  0.45594000000E+02  0.51100000000E-03 0.  1.
    9900012    2    1    2    0    0  0.27895425737E-01  0.69942100338E+00 -0.95025128543E+00  0.90007768921E+02  0.90000030671E+02 0.  0.
         12    1    1    2    0    0 -0.27895425737E-01 -0.69942100338E+00  0.95025128543E+00  0.11802310792E+01  0.00000000000E+00 0. -1.
         11    1    3    3    0    0  0.79378858305E+01 -0.40155416540E+02 -0.16664752042E+02  0.44194812703E+02  0.51100000000E-03 0. -1.
        -11    1    3    3    0    0  0.20101055673E+01  0.96579525466E+01  0.97940313900E+00  0.99134152820E+01  0.51100000000E-03 0.  1.
        -12    1    3    3    0    0 -0.99200959721E+01  0.31196884997E+02  0.14735097618E+02  0.35899540936E+02  0.00000000000E+00 0.  1.
</event>
<event>
 7    1  0.1971192E-015  0.9000784E+02  0.7816164E-02  0.1186339E+00
        -11   -1    0    0    0    0  0.00000000000E+00  0.00000000000E+00  0.45593999997E+02  0.45594000000E+02  0.51100000000E-03 0.  1.
         11   -1    0    0    0    0 -0.00000000000E+00 -0.00000000000E+00 -0.45593999997E+02  0.45594000000E+02  0.51100000000E-03 0. -1.
    9900012    2    1    2    0    0  0.76201778253E+00  0.57782099837E+00 -0.69153993127E+00  0.90007840823E+02  0.90000103522E+02 0.  0.
         12    1    1    2    0    0 -0.76201778253E+00 -0.57782099837E+00  0.69153993127E+00  0.11801591772E+01  0.00000000000E+00 0. -1.
         11    1    3    3    0    0  0.29353267276E+02  0.22748465601E+02 -0.39175993039E+01  0.37342396436E+02  0.51100000000E-03 0. -1.
        -11    1    3    3    0    0  0.95041930040E+01 -0.35948505748E+01  0.20584320985E-01  0.10161351253E+02  0.51100000000E-03 0.  1.
        -12    1    3    3    0    0 -0.38095442498E+02 -0.18575794028E+02  0.32054750516E+01  0.42504093134E+02  0.00000000000E+00 0.  1.
</event>
<event>
 7    1  0.1971192E-015  0.9000792E+02  0.7816164E-02  0.1186339E+00
        -11   -1    0    0    0    0  0.00000000000E+00  0.00000000000E+00  0.45593999997E+02  0.45594000000E+02  0.51100000000E-03 0.  1.
         11   -1    0    0    0    0 -0.00000000000E+00 -0.00000000000E+00 -0.45593999997E+02  0.45594000000E+02  0.51100000000E-03 0. -1.
    9900012    2    1    2    0    0  0.11316669073E+01 -0.32241952455E+00  0.89230922444E-01  0.90007920979E+02  0.90000184735E+02 0.  0.
         12    1    1    2    0    0 -0.11316669073E+01  0.32241952455E+00 -0.89230922444E-01  0.11800790212E+01  0.00000000000E+00 0. -1.
         11    1    3    3    0    0 -0.45559940805E+00 -0.86709171396E+01 -0.20816156078E+00  0.86853731272E+01  0.51100000000E-03 0. -1.
        -11    1    3    3    0    0 -0.32425011143E+02 -0.14195885804E+02  0.14307977759E+02  0.38178825928E+02  0.51100000000E-03 0.  1.
         12    1    3    3    0    0  0.34012277459E+02  0.22544383419E+02 -0.14010585276E+02  0.43143721924E+02  0.00000000000E+00 0. -1.
</event>
<event>
 7    1  0.1971192E-015  0.9000775E+02  0.7816164E-02  0.1186339E+00
        -11   -1    0    0    0    0  0.00000000000E+00  0.00000000000E+00  0.45593999997E+02  0.45594000000E+02  0.51100000000E-03 0. -1.
         11   -1    0    0    0    0 -0.00000000000E+00 -0.00000000000E+00 -0.45593999997E+02  0.45594000000E+02  0.51100000000E-03 0.  1.
    9900012    2    1    2    0    0 -0.96965888526E+00 -0.63270347457E+00  0.22897027727E+00  0.90007754505E+02  0.90000016065E+02 0.  0.
         12    1    1    2    0    0  0.96965888526E+00  0.63270347457E+00 -0.22897027727E+00  0.11802454950E+01  0.00000000000E+00 0. -1.
         11    1    3    3    0    0 -0.11762878328E+02 -0.71974585749E+01  0.96999563047E+01  0.16859948667E+02  0.51100000000E-03 0. -1.
        -11    1    3    3    0    0  0.18172184286E+02  0.35417203252E+02  0.48515235258E+01  0.40101668902E+02  0.51100000000E-03 0.  1.
         12    1    3    3    0    0 -0.73789648434E+01 -0.28852448151E+02 -0.14322509553E+02  0.33046136936E+02  0.00000000000E+00 0. -1.
</event>
<event>
 7    1  0.1971192E-015  0.9000765E+02  0.7816164E-02  0.1186339E+00
        -11   -1    0    0    0    0  0.00000000000E+00  0.00000000000E+00  0.45593999997E+02  0.45594000000E+02  0.51100000000E-03 0. -1.
         11   -1    0    0    0    0 -0.00000000000E+00 -0.00000000000E+00 -0.45593999997E+02  0.45594000000E+02  0.51100000000E-03 0.  1.
    9900012    2    1    2    0    0  0.75874234970E+00  0.90365299464E+00  0.30737877992E-01  0.90007651109E+02  0.89999911303E+02 0.  0.
         12    1    1    2    0    0 -0.75874234970E+00 -0.90365299464E+00 -0.30737877992E-01  0.11803488913E+01  0.00000000000E+00 0. -1.
         11    1    3    3    0    0 -0.11552106143E+02 -0.12768283588E+01  0.84907664890E+00  0.11653427754E+02  0.51100000000E-03 0. -1.
        -11    1    3    3    0    0  0.24983450088E+02 -0.25639582094E+01 -0.34144163704E+02  0.42385971445E+02  0.51100000000E-03 0.  1.
         12    1    3    3    0    0 -0.12672601595E+02  0.47444395629E+01  0.33325824933E+02  0.35968251910E+02  0.00000000000E+00 0. -1.
</event>
<event>
 7    1  0.1971192E-015  0.9000796E+02  0.7816164E-02  0.1186339E+00
        -11   -1    0    0    0    0  0.00000000000E+00  0.00000000000E+00  0.45593999997E+02  0.45594000000E+02  0.51100000000E-03 0.  1.
         11   -1    0    0    0    0 -0.00000000000E+00 -0.00000000000E+00 -0.45593999997E+02  0.45594000000E+02  0.51100000000E-03 0. -1.
    9900012    2    1    2    0    0  0.67022323561E+00 -0.29421209992E+00  0.92559779845E+00  0.90007961344E+02  0.90000225633E+02 0.  0.
         12    1    1    2    0    0 -0.67022323561E+00  0.29421209992E+00 -0.92559779845E+00  0.11800386561E+01  0.00000000000E+00 0. -1.
         11    1    3    3    0    0  0.10370001601E+02 -0.77502399318E+00 -0.23322153610E+01  0.10657242802E+02  0.51100000000E-03 0. -1.
        -11    1    3    3    0    0  0.12357406690E+02  0.12991942516E+02  0.34638889192E+02  0.39004470451E+02  0.51100000000E-03 0.  1.
         12    1    3    3    0    0 -0.22057185056E+02 -0.12511130622E+02 -0.31381076033E+02  0.40346248091E+02  0.00000000000E+00 0. -1.
</event>
<event>
 7    1  0.1971192E-015  0.9000772E+02  0.7816164E-02  0.1186339E+00
        -11   -1    0    0    0    0  0.00000000000E+00  0.00000000000E+00  0.45593999997E+02  0.45594000000E+02  0.51100000000E-03 0. -1.
         11   -1    0    0    0    0 -0.00000000000E+00 -0.00000000000E+00 -0.45593999997E+02  0.45594000000E+02  0.51100000000E-03 0.  1.
    9900012    2    1    2    0    0  0.17611405742E+00  0.10191250218E+00 -0.11626058082E+01  0.90007722666E+02  0.89999983805E+02 0.  0.
         12    1    1    2    0    0 -0.17611405742E+00 -0.10191250218E+00  0.11626058082E+01  0.11802773338E+01  0.00000000000E+00 0. -1.
         11    1    3    3    0    0 -0.28737900209E+02 -0.15508891346E+02  0.15893565675E+02  0.36318012739E+02  0.51100000000E-03 0. -1.
        -11    1    3    3    0    0 -0.45707395148E+01 -0.84749998059E+01 -0.24888287221E+01  0.99454286027E+01  0.51100000000E-03 0.  1.
        -12    1    3    3    0    0  0.33484753781E+02  0.24085803654E+02 -0.14567342761E+02  0.43744281324E+02  0.00000000000E+00 0.  1.
</event>
<event>
 7    1  0.1971192E-015  0.9000773E+02  0.7816164E-02  0.1186339E+00
        -11   -1    0    0    0    0  0.00000000000E+00  0.00000000000E+00  0.45593999997E+02  0.45594000000E+02  0.51100000000E-03 0. -1.
         11   -1    0    0    0    0 -0.00000000000E+00 -0.00000000000E+00 -0.45593999997E+02  0.45594000000E+02  0.51100000000E-03 0.  1.
    9900012    2    1    2    0    0  0.61405248710E-01 -0.16111950775E+00 -0.11676049556E+01  0.90007732474E+02  0.89999993743E+02 0.  0.
         12    1    1    2    0    0 -0.61405248710E-01  0.16111950775E+00  0.11676049556E+01  0.11802675259E+01  0.00000000000E+00 0. -1.
         11    1    3    3    0    0 -0.34343881434E+02 -0.15412885490E+02  0.68026315004E+01  0.38253562274E+02  0.51100000000E-03 0. -1.
        -11    1    3    3    0    0 -0.92518547500E+00  0.49871386196E+01  0.96949373362E+01  0.10941632876E+02  0.51100000000E-03 0.  1.
        -12    1    3    3    0    0  0.35330472157E+02  0.10264627362E+02 -0.17665173792E+02  0.40812537324E+02  0.00000000000E+00 0.  1.
</event>
<event>
 7    1  0.1971192E-015  0.9000776E+02  0.7816164E-02  0.1186339E+00
        -11   -1    0    0    0    0  0.00000000000E+00  0.00000000000E+00  0.45593999997E+02  0.45594000000E+02  0.51100000000E-03 0. -1.
         11   -1    0    0    0    0 -0.00000000000E+00 -0.00000000000E+00 -0.45593999997E+02  0.45594000000E+02  0.51100000000E-03 0.  1.
    9900012    2    1    2    0    0  0.21298951587E+00 -0.95671530388E+00 -0.65749622264E+00  0.90007758504E+02  0.90000020116E+02 0.  0.
         12    1    1    2    0    0 -0.21298951587E+00  0.95671530388E+00  0.65749622264E+00  0.11802414962E+01  0.00000000000E+00 0. -1.
         11    1    3    3    0    0  0.30719318618E+02  0.63983803724E+00  0.19659159743E+02  0.36476958359E+02  0.51100000000E-03 0. -1.
        -11    1    3    3    0    0 -0.51619758478E-01  0.13024420163E+02  0.18060825816E+01  0.13149149012E+02  0.51100000000E-03 0.  1.
        -12    1    3    3    0    0 -0.30454709343E+02 -0.14620973504E+02 -0.22122738547E+02  0.40381651133E+02  0.00000000000E+00 0.  1.
</event>
<event>
 7    1  0.1971192E-015  0.9000774E+02  0.7816164E-02  0.1186339E+00
        -11   -1    0    0    0    0  0.00000000000E+00  0.00000000000E+00  0.45593999997E+02  0.45594000000E+02  0.51100000000E-03 0. -1.
         11   -1    0    0    0    0 -0.00000000000E+00 -0.00000000000E+00 -0.45593999997E+02  0.45594000000E+02  0.51100000000E-03 0.  1.
    9900012    2    1    2    0    0  0.81638389019E+00 -0.22410113583E+00 -0.82237646942E+00  0.90007742811E+02  0.90000004216E+02 0.  0.
         12    1    1    2    0    0 -0.81638389019E+00  0.22410113583E+00  0.82237646942E+00  0.11802571892E+01  0.00000000000E+00 0. -1.
         11    1    3    3    0    0 -0.36382072053E+01  0.58111233147E+01 -0.13839455607E+02  0.15444618402E+02  0.51100000000E-03 0. -1.
        -11    1    3    3    0    0 -0.16246512859E+02  0.15549620116E+02 -0.19942424245E+02  0.30057281162E+02  0.51100000000E-03 0.  1.
         12    1    3    3    0    0  0.20701103955E+02 -0.21584844566E+02  0.32959503382E+02  0.44505843246E+02  0.00000000000E+00 0. -1.
</event>
<event>
 7    1  0.1971192E-015  0.9000770E+02  0.7816164E-02  0.1186339E+00
        -11   -1    0    0    0    0  0.00000000000E+00  0.00000000000E+00  0.45593999997E+02  0.45594000000E+02  0.51100000000E-03 0.  1.
         11   -1    0    0    0    0 -0.00000000000E+00 -0.00000000000E+00 -0.45593999997E+02  0.45594000000E+02  0.51100000000E-03 0. -1.
    9900012    2    1    2    0    0 -0.78460257050E+00 -0.76545760844E+00  0.43770655437E+00  0.90007697678E+02  0.89999958487E+02 0.  0.
         12    1    1    2    0    0  0.78460257050E+00  0.76545760844E+00 -0.43770655437E+00  0.11803023222E+01  0.00000000000E+00 0. -1.
         11    1    3    3    0    0 -0.15311264167E+01  0.85665340373E+01 -0.41559020633E+01  0.96437220893E+01  0.51100000000E-03 0. -1.
        -11    1    3    3    0    0  0.92243430369E+01  0.20540008583E+02  0.31878101072E+02  0.39028115317E+02  0.51100000000E-03 0.  1.
         12    1    3    3    0    0 -0.84778191907E+01 -0.29872000228E+02 -0.27284492454E+02  0.41335860271E+02  0.00000000000E+00 0. -1.
</event>
<event>
 7    1  0.1971192E-015  0.9000779E+02  0.7816164E-02  0.1186339E+00
        -11   -1    0    0    0    0  0.00000000000E+00  0.00000000000E+00  0.45593999997E+02  0.45594000000E+02  0.51100000000E-03 0. -1.
         11   -1    0    0    0    0 -0.00000000000E+00 -0.00000000000E+00 -0.45593999997E+02  0.45594000000E+02  0.51100000000E-03 0.  1.
    9900012    2    1    2    0    0  0.71290940832E+00  0.43408891333E+00  0.83440245062E+00  0.90007787960E+02  0.90000049961E+02 0.  0.
         12    1    1    2    0    0 -0.71290940832E+00 -0.43408891333E+00 -0.83440245062E+00  0.11802120397E+01  0.00000000000E+00 0. -1.
         11    1    3    3    0    0 -0.78764165455E+01  0.30335657936E+01 -0.32825383680E+01  0.90562419039E+01  0.51100000000E-03 0. -1.
        -11    1    3    3    0    0 -0.10508636856E+02 -0.93594101607E+01 -0.34546070798E+02  0.37302292355E+02  0.51100000000E-03 0.  1.
         12    1    3    3    0    0  0.19097962810E+02  0.67599332804E+01  0.38663011616E+02  0.43649253701E+02  0.00000000000E+00 0. -1.
</event>
<event>
 7    1  0.1971192E-015  0.9000776E+02  0.7816164E-02  0.1186339E+00
        -11   -1    0    0    0    0  0.00000000000E+00  0.00000000000E+00  0.45593999997E+02  0.45594000000E+02  0.51100000000E-03 0. -1.
         11   -1    0    0    0    0 -0.00000000000E+00 -0.00000000000E+00 -0.45593999997E+02  0.45594000000E+02  0.51100000000E-03 0.  1.
    9900012    2    1    2    0    0  0.96911858021E+00 -0.13328498583E+00  0.66031381627E+00  0.90007758480E+02  0.90000020092E+02 0.  0.
         12    1    1    2    0    0 -0.96911858021E+00  0.13328498583E+00 -0.66031381627E+00  0.11802415202E+01  0.00000000000E+00 0. -1.
         11    1    3    3    0    0 -0.88241063775E+01  0.32149337286E+01  0.68086261409E+01  0.11599915622E+02  0.51100000000E-03 0. -1.
        -11    1    3    3    0    0 -0.45976204161E+01 -0.14782592975E+02 -0.38334893083E+02  0.41342801024E+02  0.51100000000E-03 0.  1.
         12    1    3    3    0    0  0.14390845374E+02  0.11434374261E+02  0.32186580758E+02  0.37065041835E+02  0.00000000000E+00 0. -1.
</event>
<event>
 7    1  0.1971192E-015  0.9000786E+02  0.7816164E-02  0.1186339E+00
        -11   -1    0    0    0    0  0.00000000000E+00  0.00000000000E+00  0.45593999997E+02  0.45594000000E+02  0.51100000000E-03 0. -1.
         11   -1    0    0    0    0 -0.00000000000E+00 -0.00000000000E+00 -0.45593999997E+02  0.45594000000E+02  0.51100000000E-03 0.  1.
    9900012    2    1    2    0    0 -0.96668813256E+00 -0.64232327021E+00 -0.21368075195E+00  0.90007862469E+02  0.90000125453E+02 0.  0.
         12    1    1    2    0    0  0.96668813256E+00  0.64232327021E+00  0.21368075195E+00  0.11801375313E+01  0.00000000000E+00 0. -1.
         11    1    3    3    0    0 -0.54335176623E+00  0.71391019743E+00  0.10020717790E+02  0.10060799382E+02  0.51100000000E-03 0. -1.
        -11    1    3    3    0    0 -0.11745029260E+01  0.28093555693E+02 -0.32532834728E+02  0.43000147259E+02  0.51100000000E-03 0.  1.
         12    1    3    3    0    0  0.75116655967E+00 -0.29449789161E+02  0.22298436187E+02  0.36946915828E+02  0.00000000000E+00 0. -1.
</event>
<event>
 7    1  0.1971192E-015  0.9000770E+02  0.7816164E-02  0.1186339E+00
        -11   -1    0    0    0    0  0.00000000000E+00  0.00000000000E+00  0.45593999997E+02  0.45594000000E+02  0.51100000000E-03 0.  1.
         11   -1    0    0    0    0 -0.00000000000E+00 -0.00000000000E+00 -0.45593999997E+02  0.45594000000E+02  0.51100000000E-03 0. -1.
    9900012    2    1    2    0    0 -0.10716579879E+01 -0.42319871220E+00  0.25603844410E+00  0.90007701869E+02  0.89999962734E+02 0.  0.
         12    1    1    2    0    0  0.10716579879E+01  0.42319871220E+00 -0.25603844410E+00  0.11802981309E+01  0.00000000000E+00 0. -1.
         11    1    3    3    0    0 -0.10023731841E+01  0.70662703099E+01  0.63949505263E+01  0.95829181666E+01  0.51100000000E-03 0. -1.
        -11    1    3    3    0    0  0.36982629360E+02  0.10683713954E+02  0.11756129755E+01  0.38512837917E+02  0.51100000000E-03 0.  1.
         12    1    3    3    0    0 -0.37051914164E+02 -0.18173182976E+02 -0.73145250577E+01  0.41911945786E+02  0.00000000000E+00 0. -1.
</event>
<event>
 7    1  0.1971192E-015  0.9000745E+02  0.7816164E-02  0.1186340E+00
        -11   -1    0    0    0    0  0.00000000000E+00  0.00000000000E+00  0.45593999997E+02  0.45594000000E+02  0.51100000000E-03 0.  1.
         11   -1    0    0    0    0 -0.00000000000E+00 -0.00000000000E+00 -0.45593999997E+02  0.45594000000E+02  0.51100000000E-03 0. -1.
    9900012    2    1    2    0    0 -0.75749702774E+00  0.47280540920E+00  0.77223618598E+00  0.90007451217E+02  0.89999708773E+02 0.  0.
         12    1    1    2    0    0  0.75749702774E+00 -0.47280540920E+00 -0.77223618598E+00  0.11805487830E+01  0.00000000000E+00 0. -1.
         11    1    3    3    0    0  0.21106160830E+01 -0.53748140849E+01  0.73611864428E+01  0.93557678896E+01  0.51100000000E-03 0. -1.
        -11    1    3    3    0    0  0.17010371851E+02  0.35452685362E+02  0.11081510822E+02  0.40853953692E+02  0.51100000000E-03 0.  1.
         12    1    3    3    0    0 -0.19878484962E+02 -0.29605065868E+02 -0.17670461078E+02  0.39797729636E+02  0.00000000000E+00 0. -1.
</event>
<event>
 7    1  0.1971192E-015  0.9000774E+02  0.7816164E-02  0.1186339E+00
        -11   -1    0    0    0    0  0.00000000000E+00  0.00000000000E+00  0.45593999997E+02  0.45594000000E+02  0.51100000000E-03 0. -1.
         11   -1    0    0    0    0 -0.00000000000E+00 -0.00000000000E+00 -0.45593999997E+02  0.45594000000E+02  0.51100000000E-03 0.  1.
    9900012    2    1    2    0    0 -0.47618020571E+00 -0.76993357073E+00 -0.75727898668E+00  0.90007738692E+02  0.90000000043E+02 0.  0.
         12    1    1    2    0    0  0.47618020571E+00  0.76993357073E+00  0.75727898668E+00  0.11802613081E+01  0.00000000000E+00 0. -1.
         11    1    3    3    0    0  0.10738293095E+02 -0.80074928200E+01  0.24852472463E+00  0.13397486506E+02  0.51100000000E-03 0. -1.
        -11    1    3    3    0    0  0.42988507383E+01  0.29454986498E+02  0.25134587139E+02  0.38959258440E+02  0.51100000000E-03 0.  1.
         12    1    3    3    0    0 -0.15513324039E+02 -0.22217427249E+02 -0.26140390850E+02  0.37650993747E+02  0.00000000000E+00 0. -1.
</event>
<event>
 7    1  0.1971192E-015  0.9000769E+02  0.7816164E-02  0.1186339E+00
        -11   -1    0    0    0    0  0.00000000000E+00  0.00000000000E+00  0.45593999997E+02  0.45594000000E+02  0.51100000000E-03 0.  1.
         11   -1    0    0    0    0 -0.00000000000E+00 -0.00000000000E+00 -0.45593999997E+02  0.45594000000E+02  0.51100000000E-03 0. -1.
    9900012    2    1    2    0    0  0.73906176098E+00 -0.88885351520E+00 -0.23844571158E+00  0.90007691051E+02  0.89999951773E+02 0.  0.
         12    1    1    2    0    0 -0.73906176098E+00  0.88885351520E+00  0.23844571158E+00  0.11803089491E+01  0.00000000000E+00 0. -1.
         11    1    3    3    0    0 -0.37503534723E+01  0.12810346016E+02  0.39300453432E+01  0.13914574118E+02  0.51100000000E-03 0. -1.
        -11    1    3    3    0    0  0.20800145097E+02 -0.21374304173E+02  0.26906619866E+02  0.40168060792E+02  0.51100000000E-03 0.  1.
         12    1    3    3    0    0 -0.16310729863E+02  0.76751046416E+01 -0.31075110921E+02  0.35925056140E+02  0.00000000000E+00 0. -1.
</event>
<event>
 7    1  0.1971192E-015  0.9000753E+02  0.7816164E-02  0.1186339E+00
        -11   -1    0    0    0    0  0.00000000000E+00  0.00000000000E+00  0.45593999997E+02  0.45594000000E+02  0.51100000000E-03 0.  1.
         11   -1    0    0    0    0 -0.00000000000E+00 -0.00000000000E+00 -0.45593999997E+02  0.45594000000E+02  0.51100000000E-03 0. -1.
    9900012    2    1    2    0    0  0.74172898936E+00  0.91744372255E+00 -0.40636453120E-01  0.90007527129E+02  0.89999785687E+02 0.  0.
         12    1    1    2    0    0 -0.74172898936E+00 -0.91744372255E+00  0.40636453120E-01  0.11804728709E+01  0.00000000000E+00 0. -1.
         11    1    3    3    0    0  0.17313433575E+01  0.46258239876E+01 -0.87504496267E+01  0.10048192191E+02  0.51100000000E-03 0. -1.
        -11    1    3    3    0    0 -0.22445353260E+02  0.18636606199E+02  0.30406552066E+02  0.42138763418E+02  0.51100000000E-03 0.  1.
         12    1    3    3    0    0  0.21455738892E+02 -0.22344986464E+02 -0.21696738893E+02  0.37820571520E+02  0.00000000000E+00 0. -1.
</event>
<event>
 7    1  0.1971192E-015  0.9000756E+02  0.7816164E-02  0.1186339E+00
        -11   -1    0    0    0    0  0.00000000000E+00  0.00000000000E+00  0.45593999997E+02  0.45594000000E+02  0.51100000000E-03 0. -1.
         11   -1    0    0    0    0 -0.00000000000E+00 -0.00000000000E+00 -0.45593999997E+02  0.45594000000E+02  0.51100000000E-03 0.  1.
    9900012    2    1    2    0    0  0.11788871422E+01  0.51957393734E-01 -0.30901449436E-01  0.90007563909E+02  0.89999822953E+02 0.  0.
         12    1    1    2    0    0 -0.11788871422E+01 -0.51957393734E-01  0.30901449436E-01  0.11804360908E+01  0.00000000000E+00 0. -1.
         11    1    3    3    0    0 -0.29772082712E+02  0.23210992494E+02 -0.43591728792E+00  0.37753372111E+02  0.51100000000E-03 0. -1.
        -11    1    3    3    0    0  0.11258179789E+01  0.80674345233E+01 -0.35631969542E+01  0.88908570287E+01  0.51100000000E-03 0.  1.
        -12    1    3    3    0    0  0.29825151876E+02 -0.31226469624E+02  0.39682127927E+01  0.43363334770E+02  0.00000000000E+00 0.  1.
</event>
<event>
 7    1  0.1971192E-015  0.9000772E+02  0.7816164E-02  0.1186339E+00
        -11   -1    0    0    0    0  0.00000000000E+00  0.00000000000E+00  0.45593999997E+02  0.45594000000E+02  0.51100000000E-03 0. -1.
         11   -1    0    0    0    0 -0.00000000000E+00 -0.00000000000E+00 -0.45593999997E+02  0.45594000000E+02  0.51100000000E-03 0.  1.
    9900012    2    1    2    0    0  0.41151500523E+00 -0.91470203155E+00  0.62212953604E+00  0.90007716320E+02  0.89999977375E+02 0.  0.
         12    1    1    2    0    0 -0.41151500523E+00  0.91470203155E+00 -0.62212953604E+00  0.11802836802E+01  0.00000000000E+00 0. -1.
         11    1    3    3    0    0  0.31698901029E+02  0.29425940442E+02 -0.22622606350E+01  0.43310785271E+02  0.51100000000E-03 0. -1.
        -11    1    3    3    0    0 -0.26839647072E+01 -0.76738599993E+01 -0.47437939478E+01  0.94125116265E+01  0.51100000000E-03 0.  1.
        -12    1    3    3    0    0 -0.28603421317E+02 -0.22666782474E+02  0.76281841188E+01  0.37284419423E+02  0.00000000000E+00 0.  1.
</event>
<event>
 7    1  0.1971192E-015  0.9000779E+02  0.7816164E-02  0.1186339E+00
        -11   -1    0    0    0    0  0.00000000000E+00  0.00000000000E+00  0.45593999997E+02  0.45594000000E+02  0.51100000000E-03 0.  1.
         11   -1    0    0    0    0 -0.00000000000E+00 -0.00000000000E+00 -0.45593999997E+02  0.45594000000E+02  0.51100000000E-03 0. -1.
    9900012    2    1    2    0    0 -0.27235193302E+00  0.46250610016E+00  0.10510991911E+01  0.90007789435E+02  0.90000051456E+02 0.  0.
         12    1    1    2    0    0  0.27235193302E+00 -0.46250610016E+00 -0.10510991911E+01  0.11802105650E+01  0.00000000000E+00 0. -1.
         11    1    3    3    0    0  0.84094878785E+01 -0.33651071194E+01  0.61437948646E+01  0.10944845723E+02  0.51100000000E-03 0. -1.
        -11    1    3    3    0    0 -0.65656295724E+01  0.30119267708E+02  0.24532571048E+02  0.39397015387E+02  0.51100000000E-03 0.  1.
         12    1    3    3    0    0 -0.21162102392E+01 -0.26291654488E+02 -0.29625266722E+02  0.39665928324E+02  0.00000000000E+00 0. -1.
</event>
<event>
 7    1  0.1971192E-015  0.9000766E+02  0.7816164E-02  0.1186339E+00
        -11   -1    0    0    0    0  0.00000000000E+00  0.00000000000E+00  0.45593999997E+02  0.45594000000E+02  0.51100000000E-03 0. -1.
         11   -1    0    0    0    0 -0.00000000000E+00 -0.00000000000E+00 -0.45593999997E+02  0.45594000000E+02  0.51100000000E-03 0.  1.
    9900012    2    1    2    0    0 -0.89667441132E+00  0.15578245152E+00 -0.75160357992E+00  0.90007660594E+02  0.89999920914E+02 0.  0.
         12    1    1    2    0    0  0.89667441132E+00 -0.15578245152E+00  0.75160357992E+00  0.11803394060E+01  0.00000000000E+00 0. -1.
         11    1    3    3    0    0  0.30981521260E+02  0.15358447377E+02 -0.16157872392E+02  0.38168225082E+02  0.51100000000E-03 0. -1.
        -11    1    3    3    0    0  0.25237108762E+01 -0.70552967138E+01 -0.67764779122E+01  0.10102820471E+02  0.51100000000E-03 0.  1.
        -12    1    3    3    0    0 -0.34401906548E+02 -0.81473682114E+01  0.22182746724E+02  0.41736615041E+02  0.00000000000E+00 0.  1.
</event>
<event>
 7    1  0.1971192E-015  0.9000775E+02  0.7816164E-02  0.1186339E+00
        -11   -1    0    0    0    0  0.00000000000E+00  0.00000000000E+00  0.45593999997E+02  0.45594000000E+02  0.51100000000E-03 0. -1.
         11   -1    0    0    0    0 -0.00000000000E+00 -0.00000000000E+00 -0.45593999997E+02  0.45594000000E+02  0.51100000000E-03 0.  1.
    9900012    2    1    2    0    0 -0.71366131066E+00  0.83527413330E+00 -0.43128309053E+00  0.90007745600E+02  0.90000007042E+02 0.  0.
         12    1    1    2    0    0  0.71366131066E+00 -0.83527413330E+00  0.43128309053E+00  0.11802543998E+01  0.00000000000E+00 0. -1.
         11    1    3    3    0    0  0.12629439364E+01 -0.12509405857E+02  0.11196748254E+02  0.16835897184E+02  0.51100000000E-03 0. -1.
        -11    1    3    3    0    0  0.29703658871E+02 -0.11629020657E+02 -0.54642463794E+01  0.32363551420E+02  0.51100000000E-03 0.  1.
         12    1    3    3    0    0 -0.31680264118E+02  0.24973700647E+02 -0.61637849652E+01  0.40808296996E+02  0.00000000000E+00 0. -1.
</event>
<event>
 7    1  0.1971192E-015  0.9000894E+02  0.7816164E-02  0.1186337E+00
        -11   -1    0    0    0    0  0.00000000000E+00  0.00000000000E+00  0.45593999997E+02  0.45594000000E+02  0.51100000000E-03 0. -1.
         11   -1    0    0    0    0 -0.00000000000E+00 -0.00000000000E+00 -0.45593999997E+02  0.45594000000E+02  0.51100000000E-03 0.  1.
    9900012    2    1    2    0    0  0.36959665744E+00  0.69511506942E+00 -0.87772377598E+00  0.90008938646E+02  0.90001215828E+02 0.  0.
         12    1    1    2    0    0 -0.36959665744E+00 -0.69511506942E+00  0.87772377598E+00  0.11790613537E+01  0.00000000000E+00 0. -1.
         11    1    3    3    0    0  0.76009338331E+01 -0.99795355368E+00 -0.60943628102E+01  0.97934347781E+01  0.51100000000E-03 0. -1.
        -11    1    3    3    0    0 -0.26773458903E+02  0.10671076135E+02 -0.28299852308E+02  0.40392717270E+02  0.51100000000E-03 0.  1.
         12    1    3    3    0    0  0.19542121728E+02 -0.89780075119E+01  0.33516491343E+02  0.39822786598E+02  0.00000000000E+00 0. -1.
</event>
<event>
 7    1  0.1971192E-015  0.9000767E+02  0.7816164E-02  0.1186339E+00
        -11   -1    0    0    0    0  0.00000000000E+00  0.00000000000E+00  0.45593999997E+02  0.45594000000E+02  0.51100000000E-03 0. -1.
         11   -1    0    0    0    0 -0.00000000000E+00 -0.00000000000E+00 -0.45593999997E+02  0.45594000000E+02  0.51100000000E-03 0.  1.
    9900012    2    1    2    0    0  0.25778946990E+00 -0.10993591792E+01 -0.34370053718E+00  0.90007671201E+02  0.89999931660E+02 0.  0.
         12    1    1    2    0    0 -0.25778946990E+00  0.10993591792E+01  0.34370053718E+00  0.11803287995E+01  0.00000000000E+00 0. -1.
         11    1    3    3    0    0  0.34485027781E+02  0.99655686571E+01  0.11410419200E+00  0.35896277240E+02  0.51100000000E-03 0. -1.
        -11    1    3    3    0    0  0.74203220718E+01 -0.18874477024E+01 -0.76946137975E+01  0.10854985962E+02  0.51100000000E-03 0.  1.
        -12    1    3    3    0    0 -0.41647560383E+02 -0.91774801339E+01  0.72368090683E+01  0.43256407998E+02  0.00000000000E+00 0.  1.
</event>
<event>
 7    1  0.1971192E-015  0.9000734E+02  0.7816164E-02  0.1186340E+00
        -11   -1    0    0    0    0  0.00000000000E+00  0.00000000000E+00  0.45593999997E+02  0.45594000000E+02  0.51100000000E-03 0. -1.
         11   -1    0    0    0    0 -0.00000000000E+00 -0.00000000000E+00 -0.45593999997E+02  0.45594000000E+02  0.51100000000E-03 0.  1.
    9900012    2    1    2    0    0  0.84729133872E+00 -0.23973957740E+00 -0.78649456754E+00  0.90007342818E+02  0.89999598942E+02 0.  0.
         12    1    1    2    0    0 -0.84729133872E+00  0.23973957740E+00  0.78649456754E+00  0.11806571824E+01  0.00000000000E+00 0. -1.
         11    1    3    3    0    0 -0.77728785054E+01  0.21352420414E+00 -0.57385576164E+01  0.96640714310E+01  0.51100000000E-03 0. -1.
        -11    1    3    3    0    0  0.61119307456E+01  0.30171538331E+02 -0.23295275824E+02  0.38605016497E+02  0.51100000000E-03 0.  1.
         12    1    3    3    0    0  0.25082390985E+01 -0.30624802113E+02  0.28247338873E+02  0.41738254890E+02  0.00000000000E+00 0. -1.
</event>
<event>
 7    1  0.1971192E-015  0.9000776E+02  0.7816164E-02  0.1186339E+00
        -11   -1    0    0    0    0  0.00000000000E+00  0.00000000000E+00  0.45593999997E+02  0.45594000000E+02  0.51100000000E-03 0. -1.
         11   -1    0    0    0    0 -0.00000000000E+00 -0.00000000000E+00 -0.45593999997E+02  0.45594000000E+02  0.51100000000E-03 0.  1.
    9900012    2    1    2    0    0  0.99008017836E+00 -0.64183102152E+00  0.27425193568E-01  0.90007763600E+02  0.90000025279E+02 0.  0.
         12    1    1    2    0    0 -0.99008017836E+00  0.64183102152E+00 -0.27425193568E-01  0.11802364005E+01  0.00000000000E+00 0. -1.
         11    1    3    3    0    0  0.21579116975E+01  0.62665074006E+01  0.33901691840E+02  0.34543456801E+02  0.51100000000E-03 0. -1.
        -11    1    3    3    0    0 -0.30884013331E+01 -0.39822569580E+01  0.10133571275E+02  0.11317502389E+02  0.51100000000E-03 0.  1.
        -12    1    3    3    0    0  0.19205698140E+01 -0.29260814641E+01 -0.44007837921E+02  0.44146804410E+02  0.00000000000E+00 0.  1.
</event>
<event>
 7    1  0.1971192E-015  0.9000771E+02  0.7816164E-02  0.1186339E+00
        -11   -1    0    0    0    0  0.00000000000E+00  0.00000000000E+00  0.45593999997E+02  0.45594000000E+02  0.51100000000E-03 0. -1.
         11   -1    0    0    0    0 -0.00000000000E+00 -0.00000000000E+00 -0.45593999997E+02  0.45594000000E+02  0.51100000000E-03 0.  1.
    9900012    2    1    2    0    0  0.64505579663E+00 -0.94384405113E+00  0.29351448627E+00  0.90007707948E+02  0.89999968893E+02 0.  0.
         12    1    1    2    0    0 -0.64505579663E+00  0.94384405113E+00 -0.29351448627E+00  0.11802920517E+01  0.00000000000E+00 0. -1.
         11    1    3    3    0    0  0.12054837025E+02  0.25579337771E+01  0.13872086797E+02  0.18555239510E+02  0.51100000000E-03 0. -1.
        -11    1    3    3    0    0 -0.68953091329E+00  0.23289809373E+02 -0.30205803426E+02  0.38148148506E+02  0.51100000000E-03 0.  1.
         12    1    3    3    0    0 -0.10720250315E+02 -0.26791587201E+02  0.16627231116E+02  0.33304319933E+02  0.00000000000E+00 0. -1.
</event>
<event>
 7    1  0.1971192E-015  0.9000781E+02  0.7816164E-02  0.1186339E+00
        -11   -1    0    0    0    0  0.00000000000E+00  0.00000000000E+00  0.45593999997E+02  0.45594000000E+02  0.51100000000E-03 0.  1.
         11   -1    0    0    0    0 -0.00000000000E+00 -0.00000000000E+00 -0.45593999997E+02  0.45594000000E+02  0.51100000000E-03 0. -1.
    9900012    2    1    2    0    0 -0.71400358527E+00  0.13297974996E+00  0.93025128001E+00  0.90007808415E+02  0.90000070686E+02 0.  0.
         12    1    1    2    0    0  0.71400358527E+00 -0.13297974996E+00 -0.93025128001E+00  0.11801915851E+01  0.00000000000E+00 0. -1.
         11    1    3    3    0    0 -0.47270611137E+01 -0.80467996991E+01 -0.25181120995E+01  0.96662806176E+01  0.51100000000E-03 0. -1.
        -11    1    3    3    0    0 -0.30742069844E+02 -0.16436609169E+02 -0.89367589115E+01  0.35987534500E+02  0.51100000000E-03 0.  1.
         12    1    3    3    0    0  0.34755127372E+02  0.24616388618E+02  0.12385122291E+02  0.44353993298E+02  0.00000000000E+00 0. -1.
</event>
<event>
 7    1  0.1971192E-015  0.9000768E+02  0.7816164E-02  0.1186339E+00
        -11   -1    0    0    0    0  0.00000000000E+00  0.00000000000E+00  0.45593999997E+02  0.45594000000E+02  0.51100000000E-03 0.  1.
         11   -1    0    0    0    0 -0.00000000000E+00 -0.00000000000E+00 -0.45593999997E+02  0.45594000000E+02  0.51100000000E-03 0. -1.
    9900012    2    1    2    0    0  0.39708636374E+00 -0.91508208394E+00  0.63095213422E+00  0.90007680807E+02  0.89999941394E+02 0.  0.
         12    1    1    2    0    0 -0.39708636374E+00  0.91508208394E+00 -0.63095213422E+00  0.11803191925E+01  0.00000000000E+00 0. -1.
         11    1    3    3    0    0 -0.32448655879E+02 -0.10764610457E+02 -0.37664894145E+01  0.34394455213E+02  0.51100000000E-03 0. -1.
        -11    1    3    3    0    0 -0.92808357910E+01 -0.35386344472E+01 -0.38406874594E+01  0.10649259465E+02  0.51100000000E-03 0.  1.
        -12    1    3    3    0    0  0.42126578034E+02  0.13388162821E+02  0.82381290081E+01  0.44963966129E+02  0.00000000000E+00 0.  1.
</event>
<event>
 7    1  0.3684186E-015  0.9000778E+02  0.7816164E-02  0.1186339E+00
        -11   -1    0    0    0    0  0.00000000000E+00  0.00000000000E+00  0.45593999997E+02  0.45594000000E+02  0.51100000000E-03 0. -1.
         11   -1    0    0    0    0 -0.00000000000E+00 -0.00000000000E+00 -0.45593999997E+02  0.45594000000E+02  0.51100000000E-03 0.  1.
    9900012    2    1    2    0    0 -0.95949881289E-02  0.76362330386E+00 -0.89983705191E+00  0.90007779964E+02  0.90000041859E+02 0.  0.
         12    1    1    2    0    0  0.95949881289E-02 -0.76362330386E+00  0.89983705191E+00  0.11802200363E+01  0.00000000000E+00 0. -1.
         11    1    3    3    0    0 -0.64418322711E+01  0.24416632555E+02  0.28408288836E+02  0.38009209715E+02  0.51100000000E-03 0. -1.
        -11    1    3    3    0    0  0.16780106510E+01  0.91641788131E+01 -0.33995484349E+01  0.99174000063E+01  0.51100000000E-03 0.  1.
        -12    1    3    3    0    0  0.47542266320E+01 -0.32817188065E+02 -0.25908577453E+02  0.42081170242E+02  0.00000000000E+00 0.  1.
</event>
<event>
 7    1  0.1971192E-015  0.9000774E+02  0.7816164E-02  0.1186339E+00
        -11   -1    0    0    0    0  0.00000000000E+00  0.00000000000E+00  0.45593999997E+02  0.45594000000E+02  0.51100000000E-03 0. -1.
         11   -1    0    0    0    0 -0.00000000000E+00 -0.00000000000E+00 -0.45593999997E+02  0.45594000000E+02  0.51100000000E-03 0.  1.
    9900012    2    1    2    0    0 -0.16061002486E+00 -0.71822670075E+00 -0.92269277697E+00  0.90007742768E+02  0.90000004172E+02 0.  0.
         12    1    1    2    0    0  0.16061002486E+00  0.71822670075E+00  0.92269277697E+00  0.11802572323E+01  0.00000000000E+00 0. -1.
         11    1    3    3    0    0  0.35702909606E+02 -0.19072862749E+02 -0.15617143697E+02  0.43386253875E+02  0.51100000000E-03 0. -1.
        -11    1    3    3    0    0  0.11886809233E+01  0.45050834034E+01  0.20833976695E+01  0.51038500095E+01  0.51100000000E-03 0.  1.
        -12    1    3    3    0    0 -0.37052200554E+02  0.13849552644E+02  0.12611053251E+02  0.41517638883E+02  0.00000000000E+00 0.  1.
</event>
<event>
 7    1  0.1971192E-015  0.9000772E+02  0.7816164E-02  0.1186339E+00
        -11   -1    0    0    0    0  0.00000000000E+00  0.00000000000E+00  0.45593999997E+02  0.45594000000E+02  0.51100000000E-03 0.  1.
         11   -1    0    0    0    0 -0.00000000000E+00 -0.00000000000E+00 -0.45593999997E+02  0.45594000000E+02  0.51100000000E-03 0. -1.
    9900012    2    1    2    0    0  0.92422462574E+00  0.90554041423E-01  0.72846408908E+00  0.90007724133E+02  0.89999985292E+02 0.  0.
         12    1    1    2    0    0 -0.92422462574E+00 -0.90554041423E-01 -0.72846408908E+00  0.11802758670E+01  0.00000000000E+00 0. -1.
         11    1    3    3    0    0 -0.23452369267E+01 -0.81744609433E+01  0.33851807292E+01  0.91532178378E+01  0.51100000000E-03 0. -1.
        -11    1    3    3    0    0 -0.35165405838E+02  0.84086347371E+01  0.14252259174E+02  0.38864351246E+02  0.51100000000E-03 0.  1.
         12    1    3    3    0    0  0.38434867391E+02 -0.14361975234E+00 -0.16908975815E+02  0.41990155049E+02  0.00000000000E+00 0. -1.
</event>
<event>
 7    1  0.1971192E-015  0.9000801E+02  0.7816164E-02  0.1186339E+00
        -11   -1    0    0    0    0  0.00000000000E+00  0.00000000000E+00  0.45593999997E+02  0.45594000000E+02  0.51100000000E-03 0.  1.
         11   -1    0    0    0    0 -0.00000000000E+00 -0.00000000000E+00 -0.45593999997E+02  0.45594000000E+02  0.51100000000E-03 0. -1.
    9900012    2    1    2    0    0  0.10986008741E+01  0.41660090266E+00 -0.10910618953E+00  0.90008006630E+02  0.90000271517E+02 0.  0.
         12    1    1    2    0    0 -0.10986008741E+01 -0.41660090266E+00  0.10910618953E+00  0.11799933700E+01  0.00000000000E+00 0. -1.
         11    1    3    3    0    0  0.11445237577E+02  0.43070437401E-01 -0.89578262250E+00  0.11480319901E+02  0.51100000000E-03 0. -1.
        -11    1    3    3    0    0  0.11459571849E+00  0.32594195296E+02 -0.20512606608E+02  0.38511838820E+02  0.51100000000E-03 0.  1.
         12    1    3    3    0    0 -0.10461232421E+02 -0.32220664831E+02  0.21299283041E+02  0.40015847910E+02  0.00000000000E+00 0. -1.
</event>
<event>
 7    1  0.1971192E-015  0.9000770E+02  0.7816164E-02  0.1186339E+00
        -11   -1    0    0    0    0  0.00000000000E+00  0.00000000000E+00  0.45593999997E+02  0.45594000000E+02  0.51100000000E-03 0.  1.
         11   -1    0    0    0    0 -0.00000000000E+00 -0.00000000000E+00 -0.45593999997E+02  0.45594000000E+02  0.51100000000E-03 0. -1.
    9900012    2    1    2    0    0 -0.60919527562E+00  0.90227956400E-01  0.10068959187E+01  0.90007703699E+02  0.89999964587E+02 0.  0.
         12    1    1    2    0    0  0.60919527562E+00 -0.90227956400E-01 -0.10068959187E+01  0.11802963014E+01  0.00000000000E+00 0. -1.
         11    1    3    3    0    0 -0.29963737712E+02 -0.20400744606E+02 -0.30013782172E+01  0.36373400028E+02  0.51100000000E-03 0. -1.
        -11    1    3    3    0    0 -0.57715449437E+01 -0.65725391555E+01  0.31072067070E+01  0.92824423386E+01  0.51100000000E-03 0.  1.
        -12    1    3    3    0    0  0.35126087380E+02  0.27063511718E+02  0.90106742885E+00  0.44351861332E+02  0.00000000000E+00 0.  1.
</event>
<event>
 7    1  0.1971192E-015  0.9000749E+02  0.7816164E-02  0.1186340E+00
        -11   -1    0    0    0    0  0.00000000000E+00  0.00000000000E+00  0.45593999997E+02  0.45594000000E+02  0.51100000000E-03 0.  1.
         11   -1    0    0    0    0 -0.00000000000E+00 -0.00000000000E+00 -0.45593999997E+02  0.45594000000E+02  0.51100000000E-03 0. -1.
    9900012    2    1    2    0    0  0.93267359987E+00 -0.76561648621E-01  0.71962167653E+00  0.90007492869E+02  0.89999750974E+02 0.  0.
         12    1    1    2    0    0 -0.93267359987E+00  0.76561648621E-01 -0.71962167653E+00  0.11805071314E+01  0.00000000000E+00 0. -1.
         11    1    3    3    0    0 -0.55985046273E+01  0.91334319060E+00  0.70136991677E+01  0.90205003255E+01  0.51100000000E-03 0. -1.
        -11    1    3    3    0    0  0.26313672161E+02  0.31213316151E+02 -0.12480120923E+02  0.42689973838E+02  0.51100000000E-03 0.  1.
         12    1    3    3    0    0 -0.19782493934E+02 -0.32203220990E+02  0.61860434322E+01  0.38297018706E+02  0.00000000000E+00 0. -1.
</event>
<event>
 7    1  0.1971192E-015  0.9000772E+02  0.7816164E-02  0.1186339E+00
        -11   -1    0    0    0    0  0.00000000000E+00  0.00000000000E+00  0.45593999997E+02  0.45594000000E+02  0.51100000000E-03 0.  1.
         11   -1    0    0    0    0 -0.00000000000E+00 -0.00000000000E+00 -0.45593999997E+02  0.45594000000E+02  0.51100000000E-03 0. -1.
    9900012    2    1    2    0    0  0.38040641970E+00  0.61596245704E+00  0.93217369792E+00  0.90007717578E+02  0.89999978650E+02 0.  0.
         12    1    1    2    0    0 -0.38040641970E+00 -0.61596245704E+00 -0.93217369792E+00  0.11802824220E+01  0.00000000000E+00 0. -1.
         11    1    3    3    0    0 -0.77502159894E+01  0.22138152039E+01  0.68859977823E+01  0.10601122174E+02  0.51100000000E-03 0. -1.
        -11    1    3    3    0    0  0.32282266304E+02 -0.83509063409E+01  0.23446927581E+02  0.40763228131E+02  0.51100000000E-03 0.  1.
         12    1    3    3    0    0 -0.24151643895E+02  0.67530535940E+01 -0.29400751665E+02  0.38643367272E+02  0.00000000000E+00 0. -1.
</event>
<event>
 7    1  0.1971192E-015  0.9000769E+02  0.7816164E-02  0.1186339E+00
        -11   -1    0    0    0    0  0.00000000000E+00  0.00000000000E+00  0.45593999997E+02  0.45594000000E+02  0.51100000000E-03 0.  1.
         11   -1    0    0    0    0 -0.00000000000E+00 -0.00000000000E+00 -0.45593999997E+02  0.45594000000E+02  0.51100000000E-03 0. -1.
    9900012    2    1    2    0    0  0.86932189561E+00 -0.36295540233E+00  0.71110723657E+00  0.90007690429E+02  0.89999951142E+02 0.  0.
         12    1    1    2    0    0 -0.86932189561E+00  0.36295540233E+00 -0.71110723657E+00  0.11803095713E+01  0.00000000000E+00 0. -1.
         11    1    3    3    0    0  0.50519722122E+01 -0.55814206552E+01 -0.18384516517E+02  0.19866180498E+02  0.51100000000E-03 0. -1.
        -11    1    3    3    0    0 -0.28075262945E+02  0.66846263427E+01 -0.11695838465E+02  0.31139962371E+02  0.51100000000E-03 0.  1.
        -12    1    3    3    0    0  0.23892612629E+02 -0.14661610898E+01  0.30791462218E+02  0.39001547560E+02  0.00000000000E+00 0.  1.
</event>
<event>
 7    1  0.1971192E-015  0.9000776E+02  0.7816164E-02  0.1186339E+00
        -11   -1    0    0    0    0  0.00000000000E+00  0.00000000000E+00  0.45593999997E+02  0.45594000000E+02  0.51100000000E-03 0.  1.
         11   -1    0    0    0    0 -0.00000000000E+00 -0.00000000000E+00 -0.45593999997E+02  0.45594000000E+02  0.51100000000E-03 0. -1.
    9900012    2    1    2    0    0 -0.50292912260E+00 -0.10670939381E+01 -0.36685700052E-01  0.90007757222E+02  0.90000018817E+02 0.  0.
         12    1    1    2    0    0  0.50292912260E+00  0.10670939381E+01  0.36685700052E-01  0.11802427783E+01  0.00000000000E+00 0. -1.
         11    1    3    3    0    0 -0.11523500917E+02  0.33295434614E+02  0.24042084942E+01  0.35315113737E+02  0.51100000000E-03 0. -1.
        -11    1    3    3    0    0 -0.62333914471E+00  0.48137559101E+01  0.10710223207E+02  0.11758812825E+02  0.51100000000E-03 0.  1.
        -12    1    3    3    0    0  0.11643910939E+02 -0.39176284462E+02 -0.13151117402E+02  0.42933830660E+02  0.00000000000E+00 0.  1.
</event>
<event>
 7    1  0.1971192E-015  0.9000771E+02  0.7816164E-02  0.1186339E+00
        -11   -1    0    0    0    0  0.00000000000E+00  0.00000000000E+00  0.45593999997E+02  0.45594000000E+02  0.51100000000E-03 0.  1.
         11   -1    0    0    0    0 -0.00000000000E+00 -0.00000000000E+00 -0.45593999997E+02  0.45594000000E+02  0.51100000000E-03 0. -1.
    9900012    2    1    2    0    0  0.11806827438E+00 -0.50125729184E-01  0.11732946020E+01  0.90007714895E+02  0.89999975932E+02 0.  0.
         12    1    1    2    0    0 -0.11806827438E+00  0.50125729184E-01 -0.11732946020E+01  0.11802851051E+01  0.00000000000E+00 0. -1.
         11    1    3    3    0    0  0.27166720361E+02  0.11457788397E+02 -0.14840788559E+02  0.33008493080E+02  0.51100000000E-03 0. -1.
        -11    1    3    3    0    0  0.76722115384E+01  0.33836867587E+00 -0.95720770091E+01  0.12271999910E+02  0.51100000000E-03 0.  1.
        -12    1    3    3    0    0 -0.34720863625E+02 -0.11846282802E+02  0.25586160171E+02  0.44727221905E+02  0.00000000000E+00 0.  1.
</event>
<event>
 7    1  0.1971192E-015  0.9000722E+02  0.7816164E-02  0.1186340E+00
        -11   -1    0    0    0    0  0.00000000000E+00  0.00000000000E+00  0.45593999997E+02  0.45594000000E+02  0.51100000000E-03 0.  1.
         11   -1    0    0    0    0 -0.00000000000E+00 -0.00000000000E+00 -0.45593999997E+02  0.45594000000E+02  0.51100000000E-03 0. -1.
    9900012    2    1    2    0    0  0.31534789462E+00  0.58746269067E+00  0.97451711342E+00  0.90007220464E+02  0.89999474973E+02 0.  0.
         12    1    1    2    0    0 -0.31534789462E+00 -0.58746269067E+00 -0.97451711342E+00  0.11807795357E+01  0.00000000000E+00 0. -1.
         11    1    3    3    0    0 -0.66481979774E+01  0.25558441197E+02 -0.34119490297E+02  0.43145939220E+02  0.51100000000E-03 0. -1.
        -11    1    3    3    0    0 -0.31021475002E+01 -0.63036856604E-01  0.85466063591E+01  0.90924019531E+01  0.51100000000E-03 0.  1.
        -12    1    3    3    0    0  0.10065693372E+02 -0.24907941650E+02  0.26547401052E+02  0.37768879291E+02  0.00000000000E+00 0.  1.
</event>
<event>
 7    1  0.1971192E-015  0.9000776E+02  0.7816164E-02  0.1186339E+00
        -11   -1    0    0    0    0  0.00000000000E+00  0.00000000000E+00  0.45593999997E+02  0.45594000000E+02  0.51100000000E-03 0.  1.
         11   -1    0    0    0    0 -0.00000000000E+00 -0.00000000000E+00 -0.45593999997E+02  0.45594000000E+02  0.51100000000E-03 0. -1.
    9900012    2    1    2    0    0 -0.96112795613E+00 -0.23704832920E+00  0.64266129571E+00  0.90007757483E+02  0.90000019082E+02 0.  0.
         12    1    1    2    0    0  0.96112795613E+00  0.23704832920E+00 -0.64266129571E+00  0.11802425172E+01  0.00000000000E+00 0. -1.
         11    1    3    3    0    0  0.14411920568E+00 -0.56574726603E+01  0.87850892477E+01  0.10450146439E+02  0.51100000000E-03 0. -1.
        -11    1    3    3    0    0  0.51271637772E+01  0.36119216202E+02  0.16170381795E+02  0.39904471367E+02  0.51100000000E-03 0.  1.
         12    1    3    3    0    0 -0.62324109390E+01 -0.30698791871E+02 -0.24312809747E+02  0.39653139677E+02  0.00000000000E+00 0. -1.
</event>
<event>
 7    1  0.2004178E-015  0.9000775E+02  0.7816164E-02  0.1186339E+00
        -11   -1    0    0    0    0  0.00000000000E+00  0.00000000000E+00  0.45593999997E+02  0.45594000000E+02  0.51100000000E-03 0.  1.
         11   -1    0    0    0    0 -0.00000000000E+00 -0.00000000000E+00 -0.45593999997E+02  0.45594000000E+02  0.51100000000E-03 0. -1.
    9900012    2    1    2    0    0  0.62789530216E+00 -0.26644820967E+00  0.96319793673E+00  0.90007746881E+02  0.90000008340E+02 0.  0.
         12    1    1    2    0    0 -0.62789530216E+00  0.26644820967E+00 -0.96319793673E+00  0.11802531187E+01  0.00000000000E+00 0. -1.
         11    1    3    3    0    0  0.19568575238E+02 -0.97413916447E+01 -0.35918348760E+02  0.42047016849E+02  0.51100000000E-03 0. -1.
        -11    1    3    3    0    0 -0.17091396520E+01  0.92168076804E+01  0.28220613873E+01  0.97895215870E+01  0.51100000000E-03 0.  1.
        -12    1    3    3    0    0 -0.17231540284E+02  0.25813575468E+00  0.34059485309E+02  0.38171208445E+02  0.00000000000E+00 0.  1.
</event>
<event>
 7    1  0.1971192E-015  0.9000773E+02  0.7816164E-02  0.1186339E+00
        -11   -1    0    0    0    0  0.00000000000E+00  0.00000000000E+00  0.45593999997E+02  0.45594000000E+02  0.51100000000E-03 0. -1.
         11   -1    0    0    0    0 -0.00000000000E+00 -0.00000000000E+00 -0.45593999997E+02  0.45594000000E+02  0.51100000000E-03 0.  1.
    9900012    2    1    2    0    0  0.28481828975E+00 -0.72136565675E+00  0.88969012297E+00  0.90007729529E+02  0.89999990759E+02 0.  0.
         12    1    1    2    0    0 -0.28481828975E+00  0.72136565675E+00 -0.88969012297E+00  0.11802704706E+01  0.00000000000E+00 0. -1.
         11    1    3    3    0    0  0.14492930851E+02 -0.11228358142E+02  0.37503996178E+02  0.41745308728E+02  0.51100000000E-03 0. -1.
        -11    1    3    3    0    0  0.17563895233E+01  0.83217840959E+01 -0.27351285923E+00  0.85095125737E+01  0.51100000000E-03 0.  1.
        -12    1    3    3    0    0 -0.15964502084E+02  0.21852083896E+01 -0.36340793196E+02  0.39752908228E+02  0.00000000000E+00 0.  1.
</event>
<event>
 7    1  0.1971192E-015  0.9000772E+02  0.7816164E-02  0.1186339E+00
        -11   -1    0    0    0    0  0.00000000000E+00  0.00000000000E+00  0.45593999997E+02  0.45594000000E+02  0.51100000000E-03 0. -1.
         11   -1    0    0    0    0 -0.00000000000E+00 -0.00000000000E+00 -0.45593999997E+02  0.45594000000E+02  0.51100000000E-03 0.  1.
    9900012    2    1    2    0    0  0.88662915581E+00  0.76791783516E+00 -0.13138330433E+00  0.90007715867E+02  0.89999976917E+02 0.  0.
         12    1    1    2    0    0 -0.88662915581E+00 -0.76791783516E+00  0.13138330433E+00  0.11802841328E+01  0.00000000000E+00 0. -1.
         11    1    3    3    0    0 -0.36105121769E+02  0.49663877614E+01 -0.94718786664E+00  0.36457399667E+02  0.51100000000E-03 0. -1.
        -11    1    3    3    0    0 -0.80160017774E+01 -0.15993666791E+01 -0.18787330693E+01  0.83871268308E+01  0.51100000000E-03 0.  1.
        -12    1    3    3    0    0  0.45007752702E+02 -0.25991032471E+01  0.26945376316E+01  0.45163189370E+02  0.00000000000E+00 0.  1.
</event>
<event>
 7    1  0.1971192E-015  0.9000789E+02  0.7816164E-02  0.1186339E+00
        -11   -1    0    0    0    0  0.00000000000E+00  0.00000000000E+00  0.45593999997E+02  0.45594000000E+02  0.51100000000E-03 0. -1.
         11   -1    0    0    0    0 -0.00000000000E+00 -0.00000000000E+00 -0.45593999997E+02  0.45594000000E+02  0.51100000000E-03 0.  1.
    9900012    2    1    2    0    0  0.94579058726E+00  0.43019935847E+00 -0.55953225776E+00  0.90007886586E+02  0.90000149889E+02 0.  0.
         12    1    1    2    0    0 -0.94579058726E+00 -0.43019935847E+00  0.55953225776E+00  0.11801134142E+01  0.00000000000E+00 0. -1.
         11    1    3    3    0    0 -0.96834161032E+01 -0.46280318963E+01  0.52060409092E+01  0.11928540936E+02  0.51100000000E-03 0. -1.
        -11    1    3    3    0    0  0.54133835481E+01 -0.29378873248E+02  0.18944955340E+02  0.35374203141E+02  0.51100000000E-03 0.  1.
         12    1    3    3    0    0  0.52158231424E+01  0.34437104502E+02 -0.24710528507E+02  0.42705142509E+02  0.00000000000E+00 0. -1.
</event>
<event>
 7    1  0.1971192E-015  0.9000764E+02  0.7816164E-02  0.1186339E+00
        -11   -1    0    0    0    0  0.00000000000E+00  0.00000000000E+00  0.45593999997E+02  0.45594000000E+02  0.51100000000E-03 0. -1.
         11   -1    0    0    0    0 -0.00000000000E+00 -0.00000000000E+00 -0.45593999997E+02  0.45594000000E+02  0.51100000000E-03 0.  1.
    9900012    2    1    2    0    0 -0.19373593574E+00 -0.59790099277E+00 -0.99911434592E+00  0.90007640442E+02  0.89999900496E+02 0.  0.
         12    1    1    2    0    0  0.19373593574E+00  0.59790099277E+00  0.99911434592E+00  0.11803595580E+01  0.00000000000E+00 0. -1.
         11    1    3    3    0    0  0.14585045048E+02 -0.36215433154E+02  0.26473647370E+01  0.39131696589E+02  0.51100000000E-03 0. -1.
        -11    1    3    3    0    0  0.49403483495E+01 -0.85628453348E+00  0.64808720025E+01  0.81940202093E+01  0.51100000000E-03 0.  1.
        -12    1    3    3    0    0 -0.19719129333E+02  0.36473816695E+02 -0.10127351085E+02  0.42681923644E+02  0.00000000000E+00 0.  1.
</event>
<event>
 7    1  0.1971192E-015  0.9000780E+02  0.7816164E-02  0.1186339E+00
        -11   -1    0    0    0    0  0.00000000000E+00  0.00000000000E+00  0.45593999997E+02  0.45594000000E+02  0.51100000000E-03 0.  1.
         11   -1    0    0    0    0 -0.00000000000E+00 -0.00000000000E+00 -0.45593999997E+02  0.45594000000E+02  0.51100000000E-03 0. -1.
    9900012    2    1    2    0    0  0.88344952352E+00  0.78229326840E+00  0.20281051765E-01  0.90007797840E+02  0.90000059971E+02 0.  0.
         12    1    1    2    0    0 -0.88344952352E+00 -0.78229326840E+00 -0.20281051765E-01  0.11802021604E+01  0.00000000000E+00 0. -1.
         11    1    3    3    0    0  0.46231721099E-01 -0.26698291385E+01  0.95887451258E+01  0.99536002707E+01  0.51100000000E-03 0. -1.
        -11    1    3    3    0    0  0.44864412941E+01 -0.31793629800E+02  0.16465564011E+02  0.36084315842E+02  0.51100000000E-03 0.  1.
         12    1    3    3    0    0 -0.36492234917E+01  0.35245752207E+02 -0.26034028085E+02  0.43969881727E+02  0.00000000000E+00 0. -1.
</event>
<event>
 7    1  0.1971192E-015  0.9000773E+02  0.7816164E-02  0.1186339E+00
        -11   -1    0    0    0    0  0.00000000000E+00  0.00000000000E+00  0.45593999997E+02  0.45594000000E+02  0.51100000000E-03 0. -1.
         11   -1    0    0    0    0 -0.00000000000E+00 -0.00000000000E+00 -0.45593999997E+02  0.45594000000E+02  0.51100000000E-03 0.  1.
    9900012    2    1    2    0    0  0.86752204824E+00  0.64937888073E+00  0.46770868941E+00  0.90007729331E+02  0.89999990558E+02 0.  0.
         12    1    1    2    0    0 -0.86752204824E+00 -0.64937888073E+00 -0.46770868941E+00  0.11802706694E+01  0.00000000000E+00 0. -1.
         11    1    3    3    0    0 -0.36464388289E+02 -0.11604536773E+02 -0.73167980870E+01  0.38959625531E+02  0.51100000000E-03 0. -1.
        -11    1    3    3    0    0  0.19692255434E+01 -0.85222021310E+01 -0.17972658737E+01  0.89294984901E+01  0.51100000000E-03 0.  1.
        -12    1    3    3    0    0  0.35362684794E+02  0.20776117785E+02  0.95817726501E+01  0.42118605309E+02  0.00000000000E+00 0.  1.
</event>
<event>
 7    1  0.1971192E-015  0.9000771E+02  0.7816164E-02  0.1186339E+00
        -11   -1    0    0    0    0  0.00000000000E+00  0.00000000000E+00  0.45593999997E+02  0.45594000000E+02  0.51100000000E-03 0.  1.
         11   -1    0    0    0    0 -0.00000000000E+00 -0.00000000000E+00 -0.45593999997E+02  0.45594000000E+02  0.51100000000E-03 0. -1.
    9900012    2    1    2    0    0  0.40000415316E+00 -0.54638322055E+00  0.96672178884E+00  0.90007708103E+02  0.89999969049E+02 0.  0.
         12    1    1    2    0    0 -0.40000415316E+00  0.54638322055E+00 -0.96672178884E+00  0.11802918975E+01  0.00000000000E+00 0. -1.
         11    1    3    3    0    0  0.37247920125E+02  0.20096912786E+01 -0.13050283065E+02  0.39519062502E+02  0.51100000000E-03 0. -1.
        -11    1    3    3    0    0  0.42529882194E+01  0.32553767378E+01 -0.23759335589E+01  0.58592189784E+01  0.51100000000E-03 0.  1.
        -12    1    3    3    0    0 -0.41100904192E+02 -0.58114512370E+01  0.16392938412E+02  0.44629426622E+02  0.00000000000E+00 0.  1.
</event>
<event>
 7    1  0.1971192E-015  0.9000777E+02  0.7816164E-02  0.1186339E+00
        -11   -1    0    0    0    0  0.00000000000E+00  0.00000000000E+00  0.45593999997E+02  0.45594000000E+02  0.51100000000E-03 0.  1.
         11   -1    0    0    0    0 -0.00000000000E+00 -0.00000000000E+00 -0.45593999997E+02  0.45594000000E+02  0.51100000000E-03 0. -1.
    9900012    2    1    2    0    0  0.28592352448E-01 -0.24578799732E+00  0.11539994501E+01  0.90007769517E+02  0.90000031275E+02 0.  0.
         12    1    1    2    0    0 -0.28592352448E-01  0.24578799732E+00 -0.11539994501E+01  0.11802304830E+01  0.00000000000E+00 0. -1.
         11    1    3    3    0    0 -0.11631874561E+02 -0.44950467040E+01  0.89161188366E+01  0.15329811677E+02  0.51100000000E-03 0. -1.
        -11    1    3    3    0    0 -0.11407529452E+02 -0.30500181483E+02 -0.32538675616E+01  0.32725837699E+02  0.51100000000E-03 0.  1.
         12    1    3    3    0    0  0.23067996365E+02  0.34749440190E+02 -0.45082518249E+01  0.41952120141E+02  0.00000000000E+00 0. -1.
</event>
<event>
 7    1  0.1971192E-015  0.9000825E+02  0.7816164E-02  0.1186338E+00
        -11   -1    0    0    0    0  0.00000000000E+00  0.00000000000E+00  0.45593999997E+02  0.45594000000E+02  0.51100000000E-03 0.  1.
         11   -1    0    0    0    0 -0.00000000000E+00 -0.00000000000E+00 -0.45593999997E+02  0.45594000000E+02  0.51100000000E-03 0. -1.
    9900012    2    1    2    0    0 -0.66175470242E+00  0.80216710168E+00 -0.55714747377E+00  0.90008252293E+02  0.90000520422E+02 0.  0.
         12    1    1    2    0    0  0.66175470242E+00 -0.80216710168E+00  0.55714747377E+00  0.11797477072E+01  0.00000000000E+00 0. -1.
         11    1    3    3    0    0 -0.92809497974E+01  0.20778232099E+00 -0.86991494485E+00  0.93239452437E+01  0.51100000000E-03 0. -1.
        -11    1    3    3    0    0 -0.34306990017E+02  0.11308618498E+02  0.36997977565E+01  0.36311746310E+02  0.51100000000E-03 0.  1.
         12    1    3    3    0    0  0.42926185112E+02 -0.10714233717E+02 -0.33870302854E+01  0.44372560739E+02  0.00000000000E+00 0. -1.
</event>
<event>
 7    1  0.1971192E-015  0.9000777E+02  0.7816164E-02  0.1186339E+00
        -11   -1    0    0    0    0  0.00000000000E+00  0.00000000000E+00  0.45593999997E+02  0.45594000000E+02  0.51100000000E-03 0.  1.
         11   -1    0    0    0    0 -0.00000000000E+00 -0.00000000000E+00 -0.45593999997E+02  0.45594000000E+02  0.51100000000E-03 0. -1.
    9900012    2    1    2    0    0 -0.11342083715E+01 -0.32278798633E+00  0.48216745250E-01  0.90007768849E+02  0.90000030598E+02 0.  0.
         12    1    1    2    0    0  0.11342083715E+01  0.32278798633E+00 -0.48216745250E-01  0.11802311505E+01  0.00000000000E+00 0. -1.
         11    1    3    3    0    0 -0.21651472191E+02 -0.11952944331E+02 -0.31037160510E+02  0.39685821889E+02  0.51100000000E-03 0. -1.
        -11    1    3    3    0    0 -0.77123031862E+01 -0.21809019616E+01  0.47285125960E+01  0.93056319201E+01  0.51100000000E-03 0.  1.
        -12    1    3    3    0    0  0.28229567006E+02  0.13811058306E+02  0.26356864659E+02  0.41016315041E+02  0.00000000000E+00 0.  1.
</event>
<event>
 7    1  0.1971192E-015  0.9000782E+02  0.7816164E-02  0.1186339E+00
        -11   -1    0    0    0    0  0.00000000000E+00  0.00000000000E+00  0.45593999997E+02  0.45594000000E+02  0.51100000000E-03 0. -1.
         11   -1    0    0    0    0 -0.00000000000E+00 -0.00000000000E+00 -0.45593999997E+02  0.45594000000E+02  0.51100000000E-03 0.  1.
    9900012    2    1    2    0    0  0.52655172978E+00 -0.38818304171E+00 -0.98228653357E+00  0.90007817967E+02  0.90000080364E+02 0.  0.
         12    1    1    2    0    0 -0.52655172978E+00  0.38818304171E+00  0.98228653357E+00  0.11801820334E+01  0.00000000000E+00 0. -1.
         11    1    3    3    0    0  0.32433546038E+02 -0.35444395576E+01  0.10332772876E+02  0.34223736733E+02  0.51100000000E-03 0. -1.
        -11    1    3    3    0    0  0.91700625837E+01 -0.78612817274E+00  0.60492651167E+01  0.11013703011E+02  0.51100000000E-03 0.  1.
        -12    1    3    3    0    0 -0.41077056892E+02  0.39423846886E+01 -0.17364324526E+02  0.44770378223E+02  0.00000000000E+00 0.  1.
</event>
<event>
 7    1  0.1971192E-015  0.9000781E+02  0.7816164E-02  0.1186339E+00
        -11   -1    0    0    0    0  0.00000000000E+00  0.00000000000E+00  0.45593999997E+02  0.45594000000E+02  0.51100000000E-03 0. -1.
         11   -1    0    0    0    0 -0.00000000000E+00 -0.00000000000E+00 -0.45593999997E+02  0.45594000000E+02  0.51100000000E-03 0.  1.
    9900012    2    1    2    0    0  0.24934932790E+00  0.10540929189E+01 -0.46856207450E+00  0.90007814681E+02  0.90000077035E+02 0.  0.
         12    1    1    2    0    0 -0.24934932790E+00 -0.10540929189E+01  0.46856207450E+00  0.11801853188E+01  0.00000000000E+00 0. -1.
         11    1    3    3    0    0  0.28443893637E+02  0.24285015513E+02 -0.56424596853E+01  0.37823992588E+02  0.51100000000E-03 0. -1.
        -11    1    3    3    0    0 -0.24280724661E+01  0.19649442306E+01 -0.11901890052E+02  0.12304939203E+02  0.51100000000E-03 0.  1.
        -12    1    3    3    0    0 -0.25766471843E+02 -0.25195866825E+02  0.17075787663E+02  0.39878882890E+02  0.00000000000E+00 0.  1.
</event>
<event>
 7    1  0.1971192E-015  0.9000789E+02  0.7816164E-02  0.1186339E+00
        -11   -1    0    0    0    0  0.00000000000E+00  0.00000000000E+00  0.45593999997E+02  0.45594000000E+02  0.51100000000E-03 0.  1.
         11   -1    0    0    0    0 -0.00000000000E+00 -0.00000000000E+00 -0.45593999997E+02  0.45594000000E+02  0.51100000000E-03 0. -1.
    9900012    2    1    2    0    0 -0.11525604738E+01 -0.25145390797E+00  0.32311027108E-01  0.90007886143E+02  0.90000149440E+02 0.  0.
         12    1    1    2    0    0  0.11525604738E+01  0.25145390797E+00 -0.32311027108E-01  0.11801138573E+01  0.00000000000E+00 0. -1.
         11    1    3    3    0    0  0.49854815480E+01  0.14725866993E+02 -0.36918752192E+02  0.40058712519E+02  0.51100000000E-03 0. -1.
        -11    1    3    3    0    0 -0.88276065299E+01  0.36883172732E+01  0.13502205193E+01  0.96619572068E+01  0.51100000000E-03 0.  1.
        -12    1    3    3    0    0  0.26895645080E+01 -0.18665638175E+02  0.35600842700E+02  0.40287216417E+02  0.00000000000E+00 0.  1.
</event>
<event>
 7    1  0.1971192E-015  0.9000786E+02  0.7816164E-02  0.1186339E+00
        -11   -1    0    0    0    0  0.00000000000E+00  0.00000000000E+00  0.45593999997E+02  0.45594000000E+02  0.51100000000E-03 0.  1.
         11   -1    0    0    0    0 -0.00000000000E+00 -0.00000000000E+00 -0.45593999997E+02  0.45594000000E+02  0.51100000000E-03 0. -1.
    9900012    2    1    2    0    0  0.96933304027E+00  0.66575982607E+00  0.99480835003E-01  0.90007856312E+02  0.90000119215E+02 0.  0.
         12    1    1    2    0    0 -0.96933304027E+00 -0.66575982607E+00 -0.99480835003E-01  0.11801436885E+01  0.00000000000E+00 0. -1.
         11    1    3    3    0    0  0.36557874267E+01  0.40398036343E+02 -0.14304661531E+02  0.43011503855E+02  0.51100000000E-03 0. -1.
        -11    1    3    3    0    0  0.29820914338E+01 -0.75310353452E+01 -0.44617542754E+01  0.92475193519E+01  0.51100000000E-03 0.  1.
        -12    1    3    3    0    0 -0.56685458203E+01 -0.32201241171E+02  0.18865896642E+02  0.37748833105E+02  0.00000000000E+00 0.  1.
</event>
<event>
 7    1  0.1971192E-015  0.9000763E+02  0.7816164E-02  0.1186339E+00
        -11   -1    0    0    0    0  0.00000000000E+00  0.00000000000E+00  0.45593999997E+02  0.45594000000E+02  0.51100000000E-03 0.  1.
         11   -1    0    0    0    0 -0.00000000000E+00 -0.00000000000E+00 -0.45593999997E+02  0.45594000000E+02  0.51100000000E-03 0. -1.
    9900012    2    1    2    0    0  0.57934669059E+00  0.11754453533E+00  0.10216748099E+01  0.90007627719E+02  0.89999887604E+02 0.  0.
         12    1    1    2    0    0 -0.57934669059E+00 -0.11754453533E+00 -0.10216748099E+01  0.11803722815E+01  0.00000000000E+00 0. -1.
         11    1    3    3    0    0 -0.26672978758E+02  0.20322424651E+02  0.54504123034E+01  0.33972867616E+02  0.51100000000E-03 0. -1.
        -11    1    3    3    0    0  0.37007293295E+01  0.81988417260E+01  0.12531399596E+02  0.15425705148E+02  0.51100000000E-03 0.  1.
        -12    1    3    3    0    0  0.23551596119E+02 -0.28403721841E+02 -0.16960137089E+02  0.40609054954E+02  0.00000000000E+00 0.  1.
</event>
<event>
 7    1  0.1971192E-015  0.9000763E+02  0.7816164E-02  0.1186339E+00
        -11   -1    0    0    0    0  0.00000000000E+00  0.00000000000E+00  0.45593999997E+02  0.45594000000E+02  0.51100000000E-03 0. -1.
         11   -1    0    0    0    0 -0.00000000000E+00 -0.00000000000E+00 -0.45593999997E+02  0.45594000000E+02  0.51100000000E-03 0.  1.
    9900012    2    1    2    0    0  0.55145851148E+00  0.12957362168E-01 -0.10435547935E+01  0.90007626758E+02  0.89999886631E+02 0.  0.
         12    1    1    2    0    0 -0.55145851148E+00 -0.12957362167E-01  0.10435547935E+01  0.11803732418E+01  0.00000000000E+00 0. -1.
         11    1    3    3    0    0  0.33182764009E+01 -0.87924903514E+01 -0.89911787359E+01  0.13006157779E+02  0.51100000000E-03 0. -1.
        -11    1    3    3    0    0 -0.23458640169E+02 -0.15160365133E+02 -0.20332794041E+02  0.34548038777E+02  0.51100000000E-03 0.  1.
         12    1    3    3    0    0  0.20691822279E+02  0.23965812846E+02  0.28280417984E+02  0.42453430202E+02  0.00000000000E+00 0. -1.
</event>
<event>
 7    1  0.2479245E-015  0.9000777E+02  0.7816164E-02  0.1186339E+00
        -11   -1    0    0    0    0  0.00000000000E+00  0.00000000000E+00  0.45593999997E+02  0.45594000000E+02  0.51100000000E-03 0. -1.
         11   -1    0    0    0    0 -0.00000000000E+00 -0.00000000000E+00 -0.45593999997E+02  0.45594000000E+02  0.51100000000E-03 0.  1.
    9900012    2    1    2    0    0 -0.64559616250E+00  0.51383395034E+00 -0.84387034328E+00  0.90007772526E+02  0.90000034324E+02 0.  0.
         12    1    1    2    0    0  0.64559616250E+00 -0.51383395034E+00  0.84387034328E+00  0.11802274738E+01  0.00000000000E+00 0. -1.
         11    1    3    3    0    0  0.81009626640E+01  0.26158034273E+02  0.29549891657E+02  0.40287274049E+02  0.51100000000E-03 0. -1.
        -11    1    3    3    0    0 -0.10104043724E+02 -0.98966178749E+00  0.50833252289E+00  0.10165113489E+02  0.51100000000E-03 0.  1.
        -12    1    3    3    0    0  0.13574848978E+01 -0.24654538535E+02 -0.30902094523E+02  0.39555384988E+02  0.00000000000E+00 0.  1.
</event>
<event>
 7    1  0.1971192E-015  0.9000787E+02  0.7816164E-02  0.1186339E+00
        -11   -1    0    0    0    0  0.00000000000E+00  0.00000000000E+00  0.45593999997E+02  0.45594000000E+02  0.51100000000E-03 0. -1.
         11   -1    0    0    0    0 -0.00000000000E+00 -0.00000000000E+00 -0.45593999997E+02  0.45594000000E+02  0.51100000000E-03 0.  1.
    9900012    2    1    2    0    0 -0.82848553604E+00 -0.59251143440E+00  0.59602780319E+00  0.90007869827E+02  0.90000132908E+02 0.  0.
         12    1    1    2    0    0  0.82848553604E+00  0.59251143440E+00 -0.59602780319E+00  0.11801301731E+01  0.00000000000E+00 0. -1.
         11    1    3    3    0    0  0.50040692396E+01 -0.57769827681E+01  0.36184677289E+02  0.36983038134E+02  0.51100000000E-03 0. -1.
        -11    1    3    3    0    0 -0.26961477680E+01  0.13552612101E+01  0.83136628016E+01  0.88443730798E+01  0.51100000000E-03 0.  1.
        -12    1    3    3    0    0 -0.31364070076E+01  0.38292101236E+01 -0.43902312287E+02  0.44180458613E+02  0.00000000000E+00 0.  1.
</event>
<event>
 7    1  0.1971192E-015  0.9000776E+02  0.7816164E-02  0.1186339E+00
        -11   -1    0    0    0    0  0.00000000000E+00  0.00000000000E+00  0.45593999997E+02  0.45594000000E+02  0.51100000000E-03 0.  1.
         11   -1    0    0    0    0 -0.00000000000E+00 -0.00000000000E+00 -0.45593999997E+02  0.45594000000E+02  0.51100000000E-03 0. -1.
    9900012    2    1    2    0    0  0.71743001881E+00  0.85162811660E+00  0.39113607646E+00  0.90007761164E+02  0.90000022811E+02 0.  0.
         12    1    1    2    0    0 -0.71743001881E+00 -0.85162811660E+00 -0.39113607646E+00  0.11802388365E+01  0.00000000000E+00 0. -1.
         11    1    3    3    0    0  0.25462638937E+02 -0.22614596684E+02 -0.19441274212E+02  0.39213889224E+02  0.51100000000E-03 0. -1.
        -11    1    3    3    0    0  0.72104581398E+01  0.40190460326E+01  0.81595624334E+01  0.11606976220E+02  0.51100000000E-03 0.  1.
        -12    1    3    3    0    0 -0.31955667058E+02  0.19447178768E+02  0.11672847855E+02  0.39186895720E+02  0.00000000000E+00 0.  1.
</event>
<event>
 7    1  0.1971192E-015  0.9000778E+02  0.7816164E-02  0.1186339E+00
        -11   -1    0    0    0    0  0.00000000000E+00  0.00000000000E+00  0.45593999997E+02  0.45594000000E+02  0.51100000000E-03 0.  1.
         11   -1    0    0    0    0 -0.00000000000E+00 -0.00000000000E+00 -0.45593999997E+02  0.45594000000E+02  0.51100000000E-03 0. -1.
    9900012    2    1    2    0    0  0.59748490798E+00 -0.18752438935E+00  0.10003838177E+01  0.90007779091E+02  0.90000040975E+02 0.  0.
         12    1    1    2    0    0 -0.59748490798E+00  0.18752438935E+00 -0.10003838177E+01  0.11802209092E+01  0.00000000000E+00 0. -1.
         11    1    3    3    0    0  0.93643821171E+01  0.20385691065E+01  0.36455166629E+01  0.10253643666E+02  0.51100000000E-03 0. -1.
        -11    1    3    3    0    0 -0.15939619122E+02  0.32973856206E+02 -0.17853378244E+02  0.40744199168E+02  0.51100000000E-03 0.  1.
         12    1    3    3    0    0  0.71727219130E+01 -0.35199949702E+02  0.15208245398E+02  0.39009936257E+02  0.00000000000E+00 0. -1.
</event>
<event>
 7    1  0.1971192E-015  0.9000777E+02  0.7816164E-02  0.1186339E+00
        -11   -1    0    0    0    0  0.00000000000E+00  0.00000000000E+00  0.45593999997E+02  0.45594000000E+02  0.51100000000E-03 0.  1.
         11   -1    0    0    0    0 -0.00000000000E+00 -0.00000000000E+00 -0.45593999997E+02  0.45594000000E+02  0.51100000000E-03 0. -1.
    9900012    2    1    2    0    0 -0.53280806977E-01  0.11390269282E+01  0.30449205018E+00  0.90007772651E+02  0.90000034450E+02 0.  0.
         12    1    1    2    0    0  0.53280806977E-01 -0.11390269282E+01 -0.30449205018E+00  0.11802273494E+01  0.00000000000E+00 0. -1.
         11    1    3    3    0    0 -0.55890917971E+01  0.89264557185E+01 -0.10360450082E+02  0.14773573873E+02  0.51100000000E-03 0. -1.
        -11    1    3    3    0    0  0.38904385622E+02  0.38690715577E+01  0.44961933406E+01  0.39353992048E+02  0.51100000000E-03 0.  1.
         12    1    3    3    0    0 -0.33368574632E+02 -0.11656500348E+02  0.61687487913E+01  0.35880206730E+02  0.00000000000E+00 0. -1.
</event>
<event>
 7    1  0.1971192E-015  0.9000767E+02  0.7816164E-02  0.1186339E+00
        -11   -1    0    0    0    0  0.00000000000E+00  0.00000000000E+00  0.45593999997E+02  0.45594000000E+02  0.51100000000E-03 0.  1.
         11   -1    0    0    0    0 -0.00000000000E+00 -0.00000000000E+00 -0.45593999997E+02  0.45594000000E+02  0.51100000000E-03 0. -1.
    9900012    2    1    2    0    0 -0.37373803450E+00 -0.60628014335E+00  0.94123569354E+00  0.90007669385E+02  0.89999929821E+02 0.  0.
         12    1    1    2    0    0  0.37373803450E+00  0.60628014335E+00 -0.94123569354E+00  0.11803306153E+01  0.00000000000E+00 0. -1.
         11    1    3    3    0    0  0.23538513792E+01 -0.83273836291E+01  0.47444846741E+01  0.98689447007E+01  0.51100000000E-03 0. -1.
        -11    1    3    3    0    0  0.69409102980E+01 -0.32820242330E+02  0.11908703002E+02  0.35597215478E+02  0.51100000000E-03 0.  1.
         12    1    3    3    0    0 -0.96684997117E+01  0.40541345816E+02 -0.15711951983E+02  0.44541509206E+02  0.00000000000E+00 0. -1.
</event>
<event>
 7    1  0.1971192E-015  0.9000766E+02  0.7816164E-02  0.1186339E+00
        -11   -1    0    0    0    0  0.00000000000E+00  0.00000000000E+00  0.45593999997E+02  0.45594000000E+02  0.51100000000E-03 0.  1.
         11   -1    0    0    0    0 -0.00000000000E+00 -0.00000000000E+00 -0.45593999997E+02  0.45594000000E+02  0.51100000000E-03 0. -1.
    9900012    2    1    2    0    0 -0.10202476782E+01  0.58019559306E+00 -0.12513604074E+00  0.90007664760E+02  0.89999925134E+02 0.  0.
         12    1    1    2    0    0  0.10202476782E+01 -0.58019559306E+00  0.12513604074E+00  0.11803352404E+01  0.00000000000E+00 0. -1.
         11    1    3    3    0    0 -0.66083264993E+01  0.62262995618E+01 -0.25234099450E+01  0.94236077681E+01  0.51100000000E-03 0. -1.
        -11    1    3    3    0    0 -0.33892993083E+02  0.12314025080E+02 -0.55571392214E+01  0.36486326074E+02  0.51100000000E-03 0.  1.
         12    1    3    3    0    0  0.39481071904E+02 -0.17960129049E+02  0.79554131256E+01  0.44097730918E+02  0.00000000000E+00 0. -1.
</event>
<event>
 7    1  0.1971192E-015  0.9000765E+02  0.7816164E-02  0.1186339E+00
        -11   -1    0    0    0    0  0.00000000000E+00  0.00000000000E+00  0.45593999997E+02  0.45594000000E+02  0.51100000000E-03 0.  1.
         11   -1    0    0    0    0 -0.00000000000E+00 -0.00000000000E+00 -0.45593999997E+02  0.45594000000E+02  0.51100000000E-03 0. -1.
    9900012    2    1    2    0    0 -0.10200179818E+01  0.46701543029E+00 -0.36701155921E+00  0.90007645147E+02  0.89999905263E+02 0.  0.
         12    1    1    2    0    0  0.10200179818E+01 -0.46701543029E+00  0.36701155921E+00  0.11803548533E+01  0.00000000000E+00 0. -1.
         11    1    3    3    0    0  0.12571854308E+01 -0.10352751626E+02  0.41825773562E+01  0.11236277633E+02  0.51100000000E-03 0. -1.
        -11    1    3    3    0    0 -0.15174691751E+02 -0.36909123011E+01  0.32995023599E+02  0.36504324209E+02  0.51100000000E-03 0.  1.
         12    1    3    3    0    0  0.12897488339E+02  0.14510679358E+02 -0.37544612515E+02  0.42267043305E+02  0.00000000000E+00 0. -1.
</event>
<event>
 7    1  0.1971192E-015  0.9000774E+02  0.7816164E-02  0.1186339E+00
        -11   -1    0    0    0    0  0.00000000000E+00  0.00000000000E+00  0.45593999997E+02  0.45594000000E+02  0.51100000000E-03 0. -1.
         11   -1    0    0    0    0 -0.00000000000E+00 -0.00000000000E+00 -0.45593999997E+02  0.45594000000E+02  0.51100000000E-03 0.  1.
    9900012    2    1    2    0    0 -0.75796599002E+00 -0.77903051900E+00 -0.46001408144E+00  0.90007739882E+02  0.90000001248E+02 0.  0.
         12    1    1    2    0    0  0.75796599002E+00  0.77903051900E+00  0.46001408144E+00  0.11802601182E+01  0.00000000000E+00 0. -1.
         11    1    3    3    0    0  0.36697200476E+01  0.10154740559E+02  0.37168097955E+01  0.11419294040E+02  0.51100000000E-03 0. -1.
        -11    1    3    3    0    0 -0.38326167374E+02 -0.12435375642E+02 -0.14965979133E+02  0.42982719837E+02  0.51100000000E-03 0.  1.
         12    1    3    3    0    0  0.33898481337E+02  0.15016045636E+01  0.10789155256E+02  0.35605726005E+02  0.00000000000E+00 0. -1.
</event>
<event>
 7    1  0.1971192E-015  0.9000734E+02  0.7816164E-02  0.1186340E+00
        -11   -1    0    0    0    0  0.00000000000E+00  0.00000000000E+00  0.45593999997E+02  0.45594000000E+02  0.51100000000E-03 0.  1.
         11   -1    0    0    0    0 -0.00000000000E+00 -0.00000000000E+00 -0.45593999997E+02  0.45594000000E+02  0.51100000000E-03 0. -1.
    9900012    2    1    2    0    0 -0.33797287004E+00  0.10686437322E+01  0.37112312563E+00  0.90007340243E+02  0.89999596333E+02 0.  0.
         12    1    1    2    0    0  0.33797287004E+00 -0.10686437322E+01 -0.37112312563E+00  0.11806597570E+01  0.00000000000E+00 0. -1.
         11    1    3    3    0    0  0.83261517628E+00 -0.37990489887E+02  0.26729143089E+01  0.38093503922E+02  0.51100000000E-03 0. -1.
        -11    1    3    3    0    0  0.68968431950E+01 -0.14140152535E+01 -0.75370746733E+01  0.10313747141E+02  0.51100000000E-03 0.  1.
        -12    1    3    3    0    0 -0.80674312413E+01  0.40473148873E+02  0.52352834900E+01  0.41600089180E+02  0.00000000000E+00 0.  1.
</event>
<event>
 7    1  0.1971192E-015  0.9000776E+02  0.7816164E-02  0.1186339E+00
        -11   -1    0    0    0    0  0.00000000000E+00  0.00000000000E+00  0.45593999997E+02  0.45594000000E+02  0.51100000000E-03 0. -1.
         11   -1    0    0    0    0 -0.00000000000E+00 -0.00000000000E+00 -0.45593999997E+02  0.45594000000E+02  0.51100000000E-03 0.  1.
    9900012    2    1    2    0    0 -0.43448228423E+00  0.10952538891E+01  0.67968657728E-01  0.90007756095E+02  0.90000017675E+02 0.  0.
         12    1    1    2    0    0  0.43448228423E+00 -0.10952538891E+01 -0.67968657728E-01  0.11802439050E+01  0.00000000000E+00 0. -1.
         11    1    3    3    0    0  0.17728767542E+01 -0.77469536154E+01  0.57129748056E+01  0.97875667913E+01  0.51100000000E-03 0. -1.
        -11    1    3    3    0    0  0.32501666531E+02 -0.37787393741E+01 -0.22411651470E+02  0.39660046904E+02  0.51100000000E-03 0.  1.
         12    1    3    3    0    0 -0.34709025570E+02  0.12620946879E+02  0.16766645322E+02  0.40560142400E+02  0.00000000000E+00 0. -1.
</event>
<event>
 7    1  0.1971192E-015  0.9000772E+02  0.7816164E-02  0.1186339E+00
        -11   -1    0    0    0    0  0.00000000000E+00  0.00000000000E+00  0.45593999997E+02  0.45594000000E+02  0.51100000000E-03 0.  1.
         11   -1    0    0    0    0 -0.00000000000E+00 -0.00000000000E+00 -0.45593999997E+02  0.45594000000E+02  0.51100000000E-03 0. -1.
    9900012    2    1    2    0    0  0.61675658399E+00  0.30993159292E+00  0.95739800746E+00  0.90007721549E+02  0.89999982674E+02 0.  0.
         12    1    1    2    0    0 -0.61675658399E+00 -0.30993159292E+00 -0.95739800746E+00  0.11802784506E+01  0.00000000000E+00 0. -1.
         11    1    3    3    0    0 -0.10649913266E+02  0.62623808737E+01 -0.13803309790E+01  0.12431547798E+02  0.51100000000E-03 0. -1.
        -11    1    3    3    0    0  0.23092910951E+02 -0.77232058354E+01  0.35088910030E+02  0.42710210160E+02  0.51100000000E-03 0.  1.
         12    1    3    3    0    0 -0.11826241101E+02  0.17707565546E+01 -0.32751181044E+02  0.34865963591E+02  0.00000000000E+00 0. -1.
</event>
<event>
 7    1  0.1971192E-015  0.9000777E+02  0.7816164E-02  0.1186339E+00
        -11   -1    0    0    0    0  0.00000000000E+00  0.00000000000E+00  0.45593999997E+02  0.45594000000E+02  0.51100000000E-03 0. -1.
         11   -1    0    0    0    0 -0.00000000000E+00 -0.00000000000E+00 -0.45593999997E+02  0.45594000000E+02  0.51100000000E-03 0.  1.
    9900012    2    1    2    0    0 -0.39578296203E+00  0.31276431655E+00 -0.10669971090E+01  0.90007767607E+02  0.90000029339E+02 0.  0.
         12    1    1    2    0    0  0.39578296203E+00 -0.31276431655E+00  0.10669971090E+01  0.11802323929E+01  0.00000000000E+00 0. -1.
         11    1    3    3    0    0 -0.63990982850E+01  0.48512862017E+01  0.40171131746E+01  0.89788994421E+01  0.51100000000E-03 0. -1.
        -11    1    3    3    0    0  0.10935892114E+01  0.31727037850E+02  0.19207386318E+02  0.37104239077E+02  0.51100000000E-03 0.  1.
         12    1    3    3    0    0  0.49097261116E+01 -0.36265559735E+02 -0.24291496601E+02  0.43924629088E+02  0.00000000000E+00 0. -1.
</event>
<event>
 7    1  0.1971192E-015  0.9000778E+02  0.7816164E-02  0.1186339E+00
        -11   -1    0    0    0    0  0.00000000000E+00  0.00000000000E+00  0.45593999997E+02  0.45594000000E+02  0.51100000000E-03 0.  1.
         11   -1    0    0    0    0 -0.00000000000E+00 -0.00000000000E+00 -0.45593999997E+02  0.45594000000E+02  0.51100000000E-03 0. -1.
    9900012    2    1    2    0    0  0.37099433462E+00  0.31724665124E+00  0.10745443221E+01  0.90007776405E+02  0.90000038254E+02 0.  0.
         12    1    1    2    0    0 -0.37099433462E+00 -0.31724665124E+00 -0.10745443221E+01  0.11802235950E+01  0.00000000000E+00 0. -1.
         11    1    3    3    0    0  0.15623047559E+02 -0.29026976522E+02  0.22207117673E+02  0.39746711268E+02  0.51100000000E-03 0. -1.
        -11    1    3    3    0    0  0.23727689010E+01 -0.42656218135E+01 -0.93091601391E+01  0.10511233252E+02  0.51100000000E-03 0.  1.
        -12    1    3    3    0    0 -0.17624822126E+02  0.33609844986E+02 -0.11823413212E+02  0.39749831886E+02  0.00000000000E+00 0.  1.
</event>
<event>
 7    1  0.1971192E-015  0.9000774E+02  0.7816164E-02  0.1186339E+00
        -11   -1    0    0    0    0  0.00000000000E+00  0.00000000000E+00  0.45593999997E+02  0.45594000000E+02  0.51100000000E-03 0.  1.
         11   -1    0    0    0    0 -0.00000000000E+00 -0.00000000000E+00 -0.45593999997E+02  0.45594000000E+02  0.51100000000E-03 0. -1.
    9900012    2    1    2    0    0 -0.86289269164E+00  0.68196543522E+00 -0.42818552417E+00  0.90007744309E+02  0.90000005734E+02 0.  0.
         12    1    1    2    0    0  0.86289269164E+00 -0.68196543522E+00  0.42818552417E+00  0.11802556906E+01  0.00000000000E+00 0. -1.
         11    1    3    3    0    0 -0.17173809738E+02  0.20613080706E+02 -0.23790674365E+02  0.35858541857E+02  0.51100000000E-03 0. -1.
        -11    1    3    3    0    0 -0.38235913642E+01  0.90682318870E+01 -0.27723083539E+01  0.10224400929E+02  0.51100000000E-03 0.  1.
        -12    1    3    3    0    0  0.20134508411E+02 -0.28999347158E+02  0.26134797195E+02  0.43924801524E+02  0.00000000000E+00 0.  1.
</event>
<event>
 7    1  0.1971192E-015  0.9000774E+02  0.7816164E-02  0.1186339E+00
        -11   -1    0    0    0    0  0.00000000000E+00  0.00000000000E+00  0.45593999997E+02  0.45594000000E+02  0.51100000000E-03 0. -1.
         11   -1    0    0    0    0 -0.00000000000E+00 -0.00000000000E+00 -0.45593999997E+02  0.45594000000E+02  0.51100000000E-03 0.  1.
    9900012    2    1    2    0    0 -0.58553155569E+00  0.80652885189E+00  0.63219914595E+00  0.90007740812E+02  0.90000002190E+02 0.  0.
         12    1    1    2    0    0  0.58553155569E+00 -0.80652885189E+00 -0.63219914595E+00  0.11802591884E+01  0.00000000000E+00 0. -1.
         11    1    3    3    0    0  0.11325585595E+02 -0.55756745310E+00 -0.36745975460E+01  0.11919833804E+02  0.51100000000E-03 0. -1.
        -11    1    3    3    0    0  0.47088373398E+01  0.37111272713E+02 -0.45466581540E+01  0.37684105564E+02  0.51100000000E-03 0.  1.
         12    1    3    3    0    0 -0.16619954490E+02 -0.35747176408E+02  0.88534548459E+01  0.40403801444E+02  0.00000000000E+00 0. -1.
</event>
<event>
 7    1  0.1971192E-015  0.9000766E+02  0.7816164E-02  0.1186339E+00
        -11   -1    0    0    0    0  0.00000000000E+00  0.00000000000E+00  0.45593999997E+02  0.45594000000E+02  0.51100000000E-03 0.  1.
         11   -1    0    0    0    0 -0.00000000000E+00 -0.00000000000E+00 -0.45593999997E+02  0.45594000000E+02  0.51100000000E-03 0. -1.
    9900012    2    1    2    0    0  0.68736267637E+00  0.49054507147E+00  0.82468704759E+00  0.90007656557E+02  0.89999916824E+02 0.  0.
         12    1    1    2    0    0 -0.68736267637E+00 -0.49054507147E+00 -0.82468704759E+00  0.11803434426E+01  0.00000000000E+00 0. -1.
         11    1    3    3    0    0  0.87783680159E+01 -0.33184081700E+01 -0.28360820950E+01  0.98038227093E+01  0.51100000000E-03 0. -1.
        -11    1    3    3    0    0 -0.19576686848E+02  0.23867717595E+02  0.31443083215E+02  0.44063387222E+02  0.51100000000E-03 0.  1.
         12    1    3    3    0    0  0.11485681508E+02 -0.20058764354E+02 -0.27782314073E+02  0.36140446626E+02  0.00000000000E+00 0. -1.
</event>
<event>
 7    1  0.1971192E-015  0.9000766E+02  0.7816164E-02  0.1186339E+00
        -11   -1    0    0    0    0  0.00000000000E+00  0.00000000000E+00  0.45593999997E+02  0.45594000000E+02  0.51100000000E-03 0.  1.
         11   -1    0    0    0    0 -0.00000000000E+00 -0.00000000000E+00 -0.45593999997E+02  0.45594000000E+02  0.51100000000E-03 0. -1.
    9900012    2    1    2    0    0  0.70854363243E+00 -0.65234522250E+00 -0.68235973006E+00  0.90007659723E+02  0.89999920031E+02 0.  0.
         12    1    1    2    0    0 -0.70854363243E+00  0.65234522250E+00  0.68235973006E+00  0.11803402770E+01  0.00000000000E+00 0. -1.
         11    1    3    3    0    0 -0.19097085175E+01 -0.15000562193E+02 -0.31204890515E+02  0.34675770287E+02  0.51100000000E-03 0. -1.
        -11    1    3    3    0    0 -0.19144160149E+01 -0.40219446555E+01 -0.98142803418E+01  0.10777807123E+02  0.51100000000E-03 0.  1.
        -12    1    3    3    0    0  0.45326681648E+01  0.18370161626E+02  0.40336811127E+02  0.44554082313E+02  0.00000000000E+00 0.  1.
</event>
<event>
 7    1  0.1971192E-015  0.9000777E+02  0.7816164E-02  0.1186339E+00
        -11   -1    0    0    0    0  0.00000000000E+00  0.00000000000E+00  0.45593999997E+02  0.45594000000E+02  0.51100000000E-03 0.  1.
         11   -1    0    0    0    0 -0.00000000000E+00 -0.00000000000E+00 -0.45593999997E+02  0.45594000000E+02  0.51100000000E-03 0. -1.
    9900012    2    1    2    0    0 -0.10860095698E+01  0.42400517576E+00 -0.18372176967E+00  0.90007766606E+02  0.90000028326E+02 0.  0.
         12    1    1    2    0    0  0.10860095698E+01 -0.42400517576E+00  0.18372176967E+00  0.11802333936E+01  0.00000000000E+00 0. -1.
         11    1    3    3    0    0  0.21763899646E+02  0.11843849769E+02  0.26726524051E+02  0.36445180659E+02  0.51100000000E-03 0. -1.
        -11    1    3    3    0    0 -0.20008793451E+01  0.49533186860E+01  0.80663414184E+01  0.96749546923E+01  0.51100000000E-03 0.  1.
        -12    1    3    3    0    0 -0.20849029870E+02 -0.16373163279E+02 -0.34976587239E+02  0.43887631255E+02  0.00000000000E+00 0.  1.
</event>
<event>
 7    1  0.3972408E-015  0.9000795E+02  0.7816164E-02  0.1186339E+00
        -11   -1    0    0    0    0  0.00000000000E+00  0.00000000000E+00  0.45593999997E+02  0.45594000000E+02  0.51100000000E-03 0. -1.
         11   -1    0    0    0    0 -0.00000000000E+00 -0.00000000000E+00 -0.45593999997E+02  0.45594000000E+02  0.51100000000E-03 0.  1.
    9900012    2    1    2    0    0 -0.30359093076E-01  0.87857496625E+00 -0.78720807428E+00  0.90007952459E+02  0.90000216632E+02 0.  0.
         12    1    1    2    0    0  0.30359093076E-01 -0.87857496625E+00  0.78720807428E+00  0.11800475406E+01  0.00000000000E+00 0. -1.
         11    1    3    3    0    0  0.53250517346E+01  0.94788276076E+01  0.34956354979E+02  0.36608074280E+02  0.51100000000E-03 0. -1.
        -11    1    3    3    0    0 -0.36102240876E+01 -0.30168440616E+01  0.79924480262E+01  0.92743890240E+01  0.51100000000E-03 0.  1.
        -12    1    3    3    0    0 -0.17451867401E+01 -0.55834085797E+01 -0.43736011079E+02  0.44125489156E+02  0.00000000000E+00 0.  1.
</event>
<event>
 7    1  0.1971192E-015  0.9000771E+02  0.7816164E-02  0.1186339E+00
        -11   -1    0    0    0    0  0.00000000000E+00  0.00000000000E+00  0.45593999997E+02  0.45594000000E+02  0.51100000000E-03 0. -1.
         11   -1    0    0    0    0 -0.00000000000E+00 -0.00000000000E+00 -0.45593999997E+02  0.45594000000E+02  0.51100000000E-03 0.  1.
    9900012    2    1    2    0    0  0.14056341574E+00  0.10804388655E+01 -0.45385222408E+00  0.90007708486E+02  0.89999969438E+02 0.  0.
         12    1    1    2    0    0 -0.14056341574E+00 -0.10804388655E+01  0.45385222408E+00  0.11802915136E+01  0.00000000000E+00 0. -1.
         11    1    3    3    0    0  0.70702269863E+01 -0.47861983222E+01  0.68331418344E+01  0.10935612996E+02  0.51100000000E-03 0. -1.
        -11    1    3    3    0    0 -0.24388459308E+02 -0.30089457695E+02 -0.47294154119E+01  0.39019735804E+02  0.51100000000E-03 0.  1.
         12    1    3    3    0    0  0.17458795738E+02  0.35956094883E+02 -0.25575786466E+01  0.40052359686E+02  0.00000000000E+00 0. -1.
</event>
<event>
 7    1  0.1971192E-015  0.9000775E+02  0.7816164E-02  0.1186339E+00
        -11   -1    0    0    0    0  0.00000000000E+00  0.00000000000E+00  0.45593999997E+02  0.45594000000E+02  0.51100000000E-03 0.  1.
         11   -1    0    0    0    0 -0.00000000000E+00 -0.00000000000E+00 -0.45593999997E+02  0.45594000000E+02  0.51100000000E-03 0. -1.
    9900012    2    1    2    0    0  0.11618795111E+00 -0.15616524131E-01  0.11744117608E+01  0.90007751509E+02  0.90000013029E+02 0.  0.
         12    1    1    2    0    0 -0.11618795111E+00  0.15616524131E-01 -0.11744117608E+01  0.11802484907E+01  0.00000000000E+00 0. -1.
         11    1    3    3    0    0 -0.90829785583E+00 -0.51472254680E+01 -0.54629124667E+01  0.75605785423E+01  0.51100000000E-03 0. -1.
        -11    1    3    3    0    0 -0.16671359947E+02  0.13834741841E+02 -0.32246794028E+02  0.38848295325E+02  0.51100000000E-03 0.  1.
         12    1    3    3    0    0  0.17695845754E+02 -0.87031328973E+01  0.38884118256E+02  0.43598877642E+02  0.00000000000E+00 0. -1.
</event>
<event>
 7    1  0.1971192E-015  0.9000789E+02  0.7816164E-02  0.1186339E+00
        -11   -1    0    0    0    0  0.00000000000E+00  0.00000000000E+00  0.45593999997E+02  0.45594000000E+02  0.51100000000E-03 0. -1.
         11   -1    0    0    0    0 -0.00000000000E+00 -0.00000000000E+00 -0.45593999997E+02  0.45594000000E+02  0.51100000000E-03 0.  1.
    9900012    2    1    2    0    0  0.21023697563E-01 -0.42197648410E+00 -0.11018834817E+01  0.90007892651E+02  0.90000156033E+02 0.  0.
         12    1    1    2    0    0 -0.21023697563E-01  0.42197648410E+00  0.11018834817E+01  0.11801073494E+01  0.00000000000E+00 0. -1.
         11    1    3    3    0    0  0.21146662397E+01 -0.11235490305E+01 -0.97402222517E+01  0.10030259493E+02  0.51100000000E-03 0. -1.
        -11    1    3    3    0    0 -0.10666258708E+02  0.19310741834E+01 -0.34404755118E+02  0.36071946126E+02  0.51100000000E-03 0.  1.
         12    1    3    3    0    0  0.85726161659E+01 -0.12295016370E+01  0.43043093888E+02  0.43905687031E+02  0.00000000000E+00 0. -1.
</event>
<event>
 7    1  0.1971192E-015  0.9000778E+02  0.7816164E-02  0.1186339E+00
        -11   -1    0    0    0    0  0.00000000000E+00  0.00000000000E+00  0.45593999997E+02  0.45594000000E+02  0.51100000000E-03 0. -1.
         11   -1    0    0    0    0 -0.00000000000E+00 -0.00000000000E+00 -0.45593999997E+02  0.45594000000E+02  0.51100000000E-03 0.  1.
    9900012    2    1    2    0    0  0.32292138804E+00 -0.79997728926E+00 -0.80541112902E+00  0.90007775880E+02  0.90000037722E+02 0.  0.
         12    1    1    2    0    0 -0.32292138804E+00  0.79997728926E+00  0.80541112902E+00  0.11802241198E+01  0.00000000000E+00 0. -1.
         11    1    3    3    0    0 -0.21838103085E+01  0.95108081092E+01  0.14367247532E+01  0.98635022498E+01  0.51100000000E-03 0. -1.
        -11    1    3    3    0    0 -0.15582737909E+02  0.24038023952E+02 -0.22434164614E+02  0.36385987116E+02  0.51100000000E-03 0.  1.
         12    1    3    3    0    0  0.18089469605E+02 -0.34348809350E+02  0.20192028732E+02  0.43758286514E+02  0.00000000000E+00 0. -1.
</event>
<event>
 7    1  0.1971192E-015  0.9000760E+02  0.7816164E-02  0.1186339E+00
        -11   -1    0    0    0    0  0.00000000000E+00  0.00000000000E+00  0.45593999997E+02  0.45594000000E+02  0.51100000000E-03 0.  1.
         11   -1    0    0    0    0 -0.00000000000E+00 -0.00000000000E+00 -0.45593999997E+02  0.45594000000E+02  0.51100000000E-03 0. -1.
    9900012    2    1    2    0    0  0.95502423890E+00  0.61245611241E+00  0.32582941343E+00  0.90007602358E+02  0.89999861909E+02 0.  0.
         12    1    1    2    0    0 -0.95502423890E+00 -0.61245611241E+00 -0.32582941343E+00  0.11803976420E+01  0.00000000000E+00 0. -1.
         11    1    3    3    0    0  0.15462754693E+02  0.33560050796E+02  0.37047608271E+01  0.37136222818E+02  0.51100000000E-03 0. -1.
        -11    1    3    3    0    0  0.51813680939E+01  0.66998364069E+01 -0.11597846615E+01  0.85486539248E+01  0.51100000000E-03 0.  1.
        -12    1    3    3    0    0 -0.19689098548E+02 -0.39647431090E+02 -0.22191467521E+01  0.44322725616E+02  0.00000000000E+00 0.  1.
</event>
<event>
 7    1  0.1971192E-015  0.9000774E+02  0.7816164E-02  0.1186339E+00
        -11   -1    0    0    0    0  0.00000000000E+00  0.00000000000E+00  0.45593999997E+02  0.45594000000E+02  0.51100000000E-03 0.  1.
         11   -1    0    0    0    0 -0.00000000000E+00 -0.00000000000E+00 -0.45593999997E+02  0.45594000000E+02  0.51100000000E-03 0. -1.
    9900012    2    1    2    0    0 -0.85254152714E+00  0.59192324758E+00 -0.56196475314E+00  0.90007743854E+02  0.90000005273E+02 0.  0.
         12    1    1    2    0    0  0.85254152714E+00 -0.59192324758E+00  0.56196475314E+00  0.11802561461E+01  0.00000000000E+00 0. -1.
         11    1    3    3    0    0 -0.64396575039E+01 -0.65519201806E+01  0.73950202266E+01  0.11793352841E+02  0.51100000000E-03 0. -1.
        -11    1    3    3    0    0 -0.25303851563E+02  0.28683666142E+02  0.45806501782E+01  0.38522979682E+02  0.51100000000E-03 0.  1.
         12    1    3    3    0    0  0.30890967540E+02 -0.21539822713E+02 -0.12537635158E+02  0.39691411331E+02  0.00000000000E+00 0. -1.
</event>
<event>
 7    1  0.1971192E-015  0.9000776E+02  0.7816164E-02  0.1186339E+00
        -11   -1    0    0    0    0  0.00000000000E+00  0.00000000000E+00  0.45593999997E+02  0.45594000000E+02  0.51100000000E-03 0. -1.
         11   -1    0    0    0    0 -0.00000000000E+00 -0.00000000000E+00 -0.45593999997E+02  0.45594000000E+02  0.51100000000E-03 0.  1.
    9900012    2    1    2    0    0  0.76603858111E+00 -0.89664655569E+00  0.46560318747E-01  0.90007763576E+02  0.90000025255E+02 0.  0.
         12    1    1    2    0    0 -0.76603858111E+00  0.89664655569E+00 -0.46560318747E-01  0.11802364241E+01  0.00000000000E+00 0. -1.
         11    1    3    3    0    0  0.11108328822E+02  0.32817674706E+02 -0.24064935816E+00  0.34647549043E+02  0.51100000000E-03 0. -1.
        -11    1    3    3    0    0  0.13128771592E+02 -0.73579372236E+01 -0.10621223042E+02  0.18420484871E+02  0.51100000000E-03 0.  1.
        -12    1    3    3    0    0 -0.23471061832E+02 -0.26356384038E+02  0.10908432719E+02  0.36939729662E+02  0.00000000000E+00 0.  1.
</event>
<event>
 7    1  0.1971192E-015  0.9000771E+02  0.7816164E-02  0.1186339E+00
        -11   -1    0    0    0    0  0.00000000000E+00  0.00000000000E+00  0.45593999997E+02  0.45594000000E+02  0.51100000000E-03 0. -1.
         11   -1    0    0    0    0 -0.00000000000E+00 -0.00000000000E+00 -0.45593999997E+02  0.45594000000E+02  0.51100000000E-03 0.  1.
    9900012    2    1    2    0    0 -0.33956376340E-02  0.11781199966E+01 -0.71437569486E-01  0.90007711229E+02  0.89999972217E+02 0.  0.
         12    1    1    2    0    0  0.33956376340E-02 -0.11781199966E+01  0.71437569486E-01  0.11802887710E+01  0.00000000000E+00 0. -1.
         11    1    3    3    0    0 -0.20830236742E+01  0.89482322982E+01 -0.51117399729E+01  0.10513787838E+02  0.51100000000E-03 0. -1.
        -11    1    3    3    0    0  0.33149362761E+02  0.51424067165E+01 -0.18614839907E+02  0.38364526106E+02  0.51100000000E-03 0.  1.
         12    1    3    3    0    0 -0.31069734725E+02 -0.12912519018E+02  0.23655142311E+02  0.41129397285E+02  0.00000000000E+00 0. -1.
</event>
<event>
 7    1  0.1971192E-015  0.9000772E+02  0.7816164E-02  0.1186339E+00
        -11   -1    0    0    0    0  0.00000000000E+00  0.00000000000E+00  0.45593999997E+02  0.45594000000E+02  0.51100000000E-03 0. -1.
         11   -1    0    0    0    0 -0.00000000000E+00 -0.00000000000E+00 -0.45593999997E+02  0.45594000000E+02  0.51100000000E-03 0.  1.
    9900012    2    1    2    0    0  0.93699001126E+00 -0.39588962538E+00 -0.59865236743E+00  0.90007718875E+02  0.89999979964E+02 0.  0.
         12    1    1    2    0    0 -0.93699001126E+00  0.39588962538E+00  0.59865236743E+00  0.11802811249E+01  0.00000000000E+00 0. -1.
         11    1    3    3    0    0  0.88896503078E+01 -0.19588160091E+01 -0.61214135027E+01  0.10969710401E+02  0.51100000000E-03 0. -1.
        -11    1    3    3    0    0 -0.23048182735E+01 -0.34129350470E+02 -0.15143823361E+02  0.37409358949E+02  0.51100000000E-03 0.  1.
         12    1    3    3    0    0 -0.56478420231E+01  0.35692276854E+02  0.20666584496E+02  0.41628649525E+02  0.00000000000E+00 0. -1.
</event>
<event>
 7    1  0.1971192E-015  0.9000773E+02  0.7816164E-02  0.1186339E+00
        -11   -1    0    0    0    0  0.00000000000E+00  0.00000000000E+00  0.45593999997E+02  0.45594000000E+02  0.51100000000E-03 0.  1.
         11   -1    0    0    0    0 -0.00000000000E+00 -0.00000000000E+00 -0.45593999997E+02  0.45594000000E+02  0.51100000000E-03 0. -1.
    9900012    2    1    2    0    0  0.74809021923E+00 -0.87879807229E+00  0.24719367499E+00  0.90007733191E+02  0.89999994469E+02 0.  0.
         12    1    1    2    0    0 -0.74809021923E+00  0.87879807229E+00 -0.24719367499E+00  0.11802668092E+01  0.00000000000E+00 0. -1.
         11    1    3    3    0    0  0.81327990150E+01 -0.27714962963E+02 -0.26459188863E+00  0.28884798788E+02  0.51100000000E-03 0. -1.
        -11    1    3    3    0    0  0.14659696188E+02 -0.52809440908E+01  0.12918143795E+02  0.20240392836E+02  0.51100000000E-03 0.  1.
         12    1    3    3    0    0 -0.22044404983E+02  0.32117108982E+02 -0.12406358231E+02  0.40882541567E+02  0.00000000000E+00 0. -1.
</event>
<event>
 7    1  0.2441517E-015  0.9000775E+02  0.7816164E-02  0.1186339E+00
        -11   -1    0    0    0    0  0.00000000000E+00  0.00000000000E+00  0.45593999997E+02  0.45594000000E+02  0.51100000000E-03 0. -1.
         11   -1    0    0    0    0 -0.00000000000E+00 -0.00000000000E+00 -0.45593999997E+02  0.45594000000E+02  0.51100000000E-03 0.  1.
    9900012    2    1    2    0    0 -0.19651430759E+00 -0.11396084288E+01  0.23592845234E+00  0.90007751095E+02  0.90000012609E+02 0.  0.
         12    1    1    2    0    0  0.19651430759E+00  0.11396084288E+01 -0.23592845234E+00  0.11802489054E+01  0.00000000000E+00 0. -1.
         11    1    3    3    0    0 -0.27575251696E+02  0.28750326213E+02  0.46082432249E+00  0.39839529650E+02  0.51100000000E-03 0. -1.
        -11    1    3    3    0    0  0.66901588704E+01  0.49952537271E+01  0.42408411177E+01  0.93645885738E+01  0.51100000000E-03 0.  1.
        -12    1    3    3    0    0  0.20688578518E+02 -0.34885188369E+02 -0.44657369878E+01  0.40803632871E+02  0.00000000000E+00 0.  1.
</event>
<event>
 7    1  0.1971192E-015  0.9000779E+02  0.7816164E-02  0.1186339E+00
        -11   -1    0    0    0    0  0.00000000000E+00  0.00000000000E+00  0.45593999997E+02  0.45594000000E+02  0.51100000000E-03 0.  1.
         11   -1    0    0    0    0 -0.00000000000E+00 -0.00000000000E+00 -0.45593999997E+02  0.45594000000E+02  0.51100000000E-03 0. -1.
    9900012    2    1    2    0    0 -0.29988721792E+00 -0.84695424247E+00  0.76526581962E+00  0.90007790016E+02  0.90000052044E+02 0.  0.
         12    1    1    2    0    0  0.29988721792E+00  0.84695424247E+00 -0.76526581962E+00  0.11802099843E+01  0.00000000000E+00 0. -1.
         11    1    3    3    0    0  0.16037184153E+02  0.24095186927E+02 -0.22916173112E+02  0.36917750459E+02  0.51100000000E-03 0. -1.
        -11    1    3    3    0    0  0.10520757645E+02  0.37566777453E+00  0.40092965114E+01  0.11265075521E+02  0.51100000000E-03 0.  1.
        -12    1    3    3    0    0 -0.26857829016E+02 -0.25317808944E+02  0.19672142420E+02  0.41824964036E+02  0.00000000000E+00 0.  1.
</event>
<event>
 7    1  0.1971192E-015  0.9000775E+02  0.7816164E-02  0.1186339E+00
        -11   -1    0    0    0    0  0.00000000000E+00  0.00000000000E+00  0.45593999997E+02  0.45594000000E+02  0.51100000000E-03 0. -1.
         11   -1    0    0    0    0 -0.00000000000E+00 -0.00000000000E+00 -0.45593999997E+02  0.45594000000E+02  0.51100000000E-03 0.  1.
    9900012    2    1    2    0    0  0.28436611344E+00 -0.10931729843E+01  0.34219075791E+00  0.90007751816E+02  0.90000013340E+02 0.  0.
         12    1    1    2    0    0 -0.28436611344E+00  0.10931729843E+01 -0.34219075791E+00  0.11802481836E+01  0.00000000000E+00 0. -1.
         11    1    3    3    0    0  0.34130827713E+02  0.14747176577E+02  0.36971930729E+01  0.37363911121E+02  0.51100000000E-03 0. -1.
        -11    1    3    3    0    0  0.31313048116E+01  0.66066510673E+01 -0.57775517769E+01  0.93184233079E+01  0.51100000000E-03 0.  1.
        -12    1    3    3    0    0 -0.36977766411E+02 -0.22447000628E+02  0.24225494619E+01  0.43325417388E+02  0.00000000000E+00 0.  1.
</event>
<event>
 7    1  0.1971192E-015  0.9000772E+02  0.7816164E-02  0.1186339E+00
        -11   -1    0    0    0    0  0.00000000000E+00  0.00000000000E+00  0.45593999997E+02  0.45594000000E+02  0.51100000000E-03 0.  1.
         11   -1    0    0    0    0 -0.00000000000E+00 -0.00000000000E+00 -0.45593999997E+02  0.45594000000E+02  0.51100000000E-03 0. -1.
    9900012    2    1    2    0    0 -0.94223429751E+00 -0.52741600088E+00  0.47653814584E+00  0.90007719646E+02  0.89999980745E+02 0.  0.
         12    1    1    2    0    0  0.94223429751E+00  0.52741600088E+00 -0.47653814584E+00  0.11802803539E+01  0.00000000000E+00 0. -1.
         11    1    3    3    0    0 -0.18169786922E+01  0.15951671604E+02  0.69551921678E+01  0.17496626443E+02  0.51100000000E-03 0. -1.
        -11    1    3    3    0    0  0.15807916584E+02 -0.16272795088E+02  0.27348650471E+02  0.35533684999E+02  0.51100000000E-03 0.  1.
         12    1    3    3    0    0 -0.14933172190E+02 -0.20629251677E+00 -0.33827304493E+02  0.36977408205E+02  0.00000000000E+00 0. -1.
</event>
<event>
 7    1  0.1971192E-015  0.9000763E+02  0.7816164E-02  0.1186339E+00
        -11   -1    0    0    0    0  0.00000000000E+00  0.00000000000E+00  0.45593999997E+02  0.45594000000E+02  0.51100000000E-03 0.  1.
         11   -1    0    0    0    0 -0.00000000000E+00 -0.00000000000E+00 -0.45593999997E+02  0.45594000000E+02  0.51100000000E-03 0. -1.
    9900012    2    1    2    0    0 -0.39143285876E+00  0.15387746618E+00  0.11028946750E+01  0.90007629456E+02  0.89999889365E+02 0.  0.
         12    1    1    2    0    0  0.39143285876E+00 -0.15387746618E+00 -0.11028946750E+01  0.11803705442E+01  0.00000000000E+00 0. -1.
         11    1    3    3    0    0  0.51484784978E+01  0.15004364589E+01  0.70893828879E+01  0.88891782749E+01  0.51100000000E-03 0. -1.
        -11    1    3    3    0    0  0.16803650431E+02 -0.13985393499E+02  0.29872656509E+02  0.37017961941E+02  0.51100000000E-03 0.  1.
         12    1    3    3    0    0 -0.22343561787E+02  0.12638834506E+02 -0.35859144722E+02  0.44100489240E+02  0.00000000000E+00 0. -1.
</event>
<event>
 7    1  0.1971192E-015  0.9000772E+02  0.7816164E-02  0.1186339E+00
        -11   -1    0    0    0    0  0.00000000000E+00  0.00000000000E+00  0.45593999997E+02  0.45594000000E+02  0.51100000000E-03 0.  1.
         11   -1    0    0    0    0 -0.00000000000E+00 -0.00000000000E+00 -0.45593999997E+02  0.45594000000E+02  0.51100000000E-03 0. -1.
    9900012    2    1    2    0    0 -0.11244405743E+01 -0.14694136338E+00 -0.32727229514E+00  0.90007718032E+02  0.89999979110E+02 0.  0.
         12    1    1    2    0    0  0.11244405743E+01  0.14694136338E+00  0.32727229514E+00  0.11802819683E+01  0.00000000000E+00 0. -1.
         11    1    3    3    0    0  0.76038471192E+01  0.38912290546E+02  0.79516709518E+01  0.40437778348E+02  0.51100000000E-03 0. -1.
        -11    1    3    3    0    0  0.75816136803E+01 -0.25164373787E+01 -0.49874895272E+01  0.94174505639E+01  0.51100000000E-03 0.  1.
        -12    1    3    3    0    0 -0.16309901374E+02 -0.36542794531E+02 -0.32914537197E+01  0.40152489120E+02  0.00000000000E+00 0.  1.
</event>
<event>
 7    1  0.1971192E-015  0.9000776E+02  0.7816164E-02  0.1186339E+00
        -11   -1    0    0    0    0  0.00000000000E+00  0.00000000000E+00  0.45593999997E+02  0.45594000000E+02  0.51100000000E-03 0.  1.
         11   -1    0    0    0    0 -0.00000000000E+00 -0.00000000000E+00 -0.45593999997E+02  0.45594000000E+02  0.51100000000E-03 0. -1.
    9900012    2    1    2    0    0  0.37413200981E+00  0.74225571648E+00  0.83788906057E+00  0.90007755793E+02  0.90000017370E+02 0.  0.
         12    1    1    2    0    0 -0.37413200981E+00 -0.74225571648E+00 -0.83788906057E+00  0.11802442066E+01  0.00000000000E+00 0. -1.
         11    1    3    3    0    0  0.16804174833E+02  0.23914004952E+02 -0.27618832470E+02  0.40212682477E+02  0.51100000000E-03 0. -1.
        -11    1    3    3    0    0  0.77586530245E+01 -0.55150731057E+01  0.12946714498E+02  0.16069540898E+02  0.51100000000E-03 0.  1.
        -12    1    3    3    0    0 -0.24188695847E+02 -0.17656676130E+02  0.15510007033E+02  0.33725532419E+02  0.00000000000E+00 0.  1.
</event>
<event>
 7    1  0.1971192E-015  0.9000769E+02  0.7816164E-02  0.1186339E+00
        -11   -1    0    0    0    0  0.00000000000E+00  0.00000000000E+00  0.45593999997E+02  0.45594000000E+02  0.51100000000E-03 0.  1.
         11   -1    0    0    0    0 -0.00000000000E+00 -0.00000000000E+00 -0.45593999997E+02  0.45594000000E+02  0.51100000000E-03 0. -1.
    9900012    2    1    2    0    0 -0.38908786711E-02 -0.70965931754E+00  0.94312696390E+00  0.90007694973E+02  0.89999955747E+02 0.  0.
         12    1    1    2    0    0  0.38908786711E-02  0.70965931754E+00 -0.94312696390E+00  0.11803050267E+01  0.00000000000E+00 0. -1.
         11    1    3    3    0    0  0.86342129269E+01 -0.63780899281E+01  0.16914359632E+01  0.10866950809E+02  0.51100000000E-03 0. -1.
        -11    1    3    3    0    0 -0.14393377923E+02 -0.72945257225E+01  0.36162193859E+02  0.39599036585E+02  0.51100000000E-03 0.  1.
         12    1    3    3    0    0  0.57552741175E+01  0.12962956333E+02 -0.36910502858E+02  0.39541707579E+02  0.00000000000E+00 0. -1.
</event>
<event>
 7    1  0.1971192E-015  0.9000775E+02  0.7816164E-02  0.1186339E+00
        -11   -1    0    0    0    0  0.00000000000E+00  0.00000000000E+00  0.45593999997E+02  0.45594000000E+02  0.51100000000E-03 0.  1.
         11   -1    0    0    0    0 -0.00000000000E+00 -0.00000000000E+00 -0.45593999997E+02  0.45594000000E+02  0.51100000000E-03 0. -1.
    9900012    2    1    2    0    0 -0.79265373746E-01 -0.10706025508E+01  0.49043697563E+00  0.90007745261E+02  0.90000006699E+02 0.  0.
         12    1    1    2    0    0  0.79265373746E-01  0.10706025508E+01 -0.49043697563E+00  0.11802547387E+01  0.00000000000E+00 0. -1.
         11    1    3    3    0    0 -0.16904152691E+02 -0.88161256611E+01 -0.32727722820E+02  0.37875827267E+02  0.51100000000E-03 0. -1.
        -11    1    3    3    0    0  0.10667121149E+02  0.22080235775E+01 -0.57332576407E+01  0.12309877545E+02  0.51100000000E-03 0.  1.
        -12    1    3    3    0    0  0.61577661682E+01  0.55374995329E+01  0.38951417436E+02  0.39822040450E+02  0.00000000000E+00 0.  1.
</event>
<event>
 7    1  0.1971192E-015  0.9000893E+02  0.7816164E-02  0.1186337E+00
        -11   -1    0    0    0    0  0.00000000000E+00  0.00000000000E+00  0.45593999997E+02  0.45594000000E+02  0.51100000000E-03 0. -1.
         11   -1    0    0    0    0 -0.00000000000E+00 -0.00000000000E+00 -0.45593999997E+02  0.45594000000E+02  0.51100000000E-03 0.  1.
    9900012    2    1    2    0    0 -0.10045740733E+01  0.61443098602E+00 -0.59230279453E-01  0.90008931414E+02  0.90001208500E+02 0.  0.
         12    1    1    2    0    0  0.10045740733E+01 -0.61443098602E+00  0.59230279453E-01  0.11790685864E+01  0.00000000000E+00 0. -1.
         11    1    3    3    0    0 -0.43970783935E+01 -0.31921385290E+01 -0.66704785125E+01  0.86034487639E+01  0.51100000000E-03 0. -1.
        -11    1    3    3    0    0 -0.99724432912E+00 -0.38442093271E+02  0.60333624682E+01  0.38925447900E+02  0.51100000000E-03 0.  1.
         12    1    3    3    0    0  0.43897486493E+01  0.42248662786E+02  0.57788576493E+00  0.42480034750E+02  0.00000000000E+00 0. -1.
</event>
<event>
 7    1  0.1971192E-015  0.9000785E+02  0.7816164E-02  0.1186339E+00
        -11   -1    0    0    0    0  0.00000000000E+00  0.00000000000E+00  0.45593999997E+02  0.45594000000E+02  0.51100000000E-03 0.  1.
         11   -1    0    0    0    0 -0.00000000000E+00 -0.00000000000E+00 -0.45593999997E+02  0.45594000000E+02  0.51100000000E-03 0. -1.
    9900012    2    1    2    0    0 -0.58013666820E+00  0.10240246476E+01 -0.86955672538E-01  0.90007853263E+02  0.90000116126E+02 0.  0.
         12    1    1    2    0    0  0.58013666820E+00 -0.10240246476E+01  0.86955672538E-01  0.11801467373E+01  0.00000000000E+00 0. -1.
         11    1    3    3    0    0 -0.25090953376E+02 -0.24994776573E+02 -0.43741484511E+01  0.35685122561E+02  0.51100000000E-03 0. -1.
        -11    1    3    3    0    0 -0.11989807439E+01 -0.91736055180E+01 -0.37891198882E+01  0.99975008283E+01  0.51100000000E-03 0.  1.
        -12    1    3    3    0    0  0.25709797452E+02  0.35192406738E+02  0.80763126668E+01  0.44325229874E+02  0.00000000000E+00 0.  1.
</event>
<event>
 7    1  0.1971192E-015  0.9000756E+02  0.7816164E-02  0.1186339E+00
        -11   -1    0    0    0    0  0.00000000000E+00  0.00000000000E+00  0.45593999997E+02  0.45594000000E+02  0.51100000000E-03 0.  1.
         11   -1    0    0    0    0 -0.00000000000E+00 -0.00000000000E+00 -0.45593999997E+02  0.45594000000E+02  0.51100000000E-03 0. -1.
    9900012    2    1    2    0    0  0.10153041910E+01 -0.41659321624E+00  0.43480053372E+00  0.90007557705E+02  0.89999816666E+02 0.  0.
         12    1    1    2    0    0 -0.10153041910E+01  0.41659321624E+00 -0.43480053372E+00  0.11804422951E+01  0.00000000000E+00 0. -1.
         11    1    3    3    0    0  0.23171537527E+02  0.27493596888E+02  0.17227557102E+02  0.39869872651E+02  0.51100000000E-03 0. -1.
        -11    1    3    3    0    0 -0.14201341046E+02  0.36747845045E+01 -0.50345003123E+01  0.15508975540E+02  0.51100000000E-03 0.  1.
        -12    1    3    3    0    0 -0.79548922901E+01 -0.31584974609E+02 -0.11758256256E+02  0.34628709514E+02  0.00000000000E+00 0.  1.
</event>
<event>
 7    1  0.1971192E-015  0.9000780E+02  0.7816164E-02  0.1186339E+00
        -11   -1    0    0    0    0  0.00000000000E+00  0.00000000000E+00  0.45593999997E+02  0.45594000000E+02  0.51100000000E-03 0.  1.
         11   -1    0    0    0    0 -0.00000000000E+00 -0.00000000000E+00 -0.45593999997E+02  0.45594000000E+02  0.51100000000E-03 0. -1.
    9900012    2    1    2    0    0 -0.48545522619E+00  0.53998502130E+00  0.93039402342E+00  0.90007795086E+02  0.90000057181E+02 0.  0.
         12    1    1    2    0    0  0.48545522619E+00 -0.53998502130E+00 -0.93039402342E+00  0.11802049138E+01  0.00000000000E+00 0. -1.
         11    1    3    3    0    0 -0.19845962236E+02 -0.20533122090E+02 -0.78710431353E+01  0.29621354461E+02  0.51100000000E-03 0. -1.
        -11    1    3    3    0    0 -0.23830523150E-01 -0.14818469274E+02 -0.73160182451E+01  0.16526092180E+02  0.51100000000E-03 0.  1.
        -12    1    3    3    0    0  0.19384337533E+02  0.35891576385E+02  0.16117455404E+02  0.43860348445E+02  0.00000000000E+00 0.  1.
</event>
<event>
 7    1  0.1971192E-015  0.9000772E+02  0.7816164E-02  0.1186339E+00
        -11   -1    0    0    0    0  0.00000000000E+00  0.00000000000E+00  0.45593999997E+02  0.45594000000E+02  0.51100000000E-03 0.  1.
         11   -1    0    0    0    0 -0.00000000000E+00 -0.00000000000E+00 -0.45593999997E+02  0.45594000000E+02  0.51100000000E-03 0. -1.
    9900012    2    1    2    0    0 -0.88056614518E+00  0.64069773735E+00  0.45515335762E+00  0.90007722530E+02  0.89999983668E+02 0.  0.
         12    1    1    2    0    0  0.88056614518E+00 -0.64069773735E+00 -0.45515335762E+00  0.11802774698E+01  0.00000000000E+00 0. -1.
         11    1    3    3    0    0  0.67607947665E+01  0.32805095946E+01  0.79909450920E+01  0.10969288619E+02  0.51100000000E-03 0. -1.
        -11    1    3    3    0    0 -0.21955043879E+02 -0.31766414657E+01  0.30889666969E+02  0.38030074000E+02  0.51100000000E-03 0.  1.
         12    1    3    3    0    0  0.14313682967E+02  0.53682960845E+00 -0.38425458703E+02  0.41008359912E+02  0.00000000000E+00 0. -1.
</event>
<event>
 7    1  0.1971192E-015  0.9000770E+02  0.7816164E-02  0.1186339E+00
        -11   -1    0    0    0    0  0.00000000000E+00  0.00000000000E+00  0.45593999997E+02  0.45594000000E+02  0.51100000000E-03 0. -1.
         11   -1    0    0    0    0 -0.00000000000E+00 -0.00000000000E+00 -0.45593999997E+02  0.45594000000E+02  0.51100000000E-03 0.  1.
    9900012    2    1    2    0    0  0.76953925491E-01 -0.67483697701E-01 -0.11758508374E+01  0.90007702941E+02  0.89999963820E+02 0.  0.
         12    1    1    2    0    0 -0.76953925491E-01  0.67483697701E-01  0.11758508374E+01  0.11802970592E+01  0.00000000000E+00 0. -1.
         11    1    3    3    0    0  0.51018602457E+01  0.65194835317E+01 -0.34017803514E+01  0.89501258822E+01  0.51100000000E-03 0. -1.
        -11    1    3    3    0    0 -0.41251110153E+02 -0.45742508699E+01  0.12506128270E+02  0.43347215648E+02  0.51100000000E-03 0.  1.
         12    1    3    3    0    0  0.36226203833E+02 -0.20127163595E+01 -0.10280198756E+02  0.37710361411E+02  0.00000000000E+00 0. -1.
</event>
<event>
 7    1  0.1971192E-015  0.9000783E+02  0.7816164E-02  0.1186339E+00
        -11   -1    0    0    0    0  0.00000000000E+00  0.00000000000E+00  0.45593999997E+02  0.45594000000E+02  0.51100000000E-03 0.  1.
         11   -1    0    0    0    0 -0.00000000000E+00 -0.00000000000E+00 -0.45593999997E+02  0.45594000000E+02  0.51100000000E-03 0. -1.
    9900012    2    1    2    0    0 -0.67990974460E+00  0.49740611684E+00  0.82651068226E+00  0.90007826278E+02  0.90000088785E+02 0.  0.
         12    1    1    2    0    0  0.67990974460E+00 -0.49740611684E+00 -0.82651068226E+00  0.11801737219E+01  0.00000000000E+00 0. -1.
         11    1    3    3    0    0 -0.19966360845E+02 -0.35951846524E+02  0.58575265252E+01  0.41539155638E+02  0.51100000000E-03 0. -1.
        -11    1    3    3    0    0  0.64574205148E+01  0.31829584466E-01 -0.73552977247E+01  0.97877320002E+01  0.51100000000E-03 0.  1.
        -12    1    3    3    0    0  0.12829030586E+02  0.36417423056E+02  0.23242818818E+01  0.38680938640E+02  0.00000000000E+00 0.  1.
</event>
<event>
 7    1  0.1971192E-015  0.9000777E+02  0.7816164E-02  0.1186339E+00
        -11   -1    0    0    0    0  0.00000000000E+00  0.00000000000E+00  0.45593999997E+02  0.45594000000E+02  0.51100000000E-03 0.  1.
         11   -1    0    0    0    0 -0.00000000000E+00 -0.00000000000E+00 -0.45593999997E+02  0.45594000000E+02  0.51100000000E-03 0. -1.
    9900012    2    1    2    0    0  0.92598793284E+00 -0.56879158442E+00 -0.46040743125E+00  0.90007765904E+02  0.90000027614E+02 0.  0.
         12    1    1    2    0    0 -0.92598793284E+00  0.56879158442E+00  0.46040743125E+00  0.11802340959E+01  0.00000000000E+00 0. -1.
         11    1    3    3    0    0 -0.18668282474E+02  0.35889380822E+02 -0.49353705462E+01  0.40754267372E+02  0.51100000000E-03 0. -1.
        -11    1    3    3    0    0 -0.65396583860E+01 -0.67141079286E+01 -0.26715398078E+00  0.93764464801E+01  0.51100000000E-03 0.  1.
        -12    1    3    3    0    0  0.26133928793E+02 -0.29744064478E+02  0.47421170958E+01  0.39877052052E+02  0.00000000000E+00 0.  1.
</event>
<event>
 7    1  0.1971192E-015  0.9000762E+02  0.7816164E-02  0.1186339E+00
        -11   -1    0    0    0    0  0.00000000000E+00  0.00000000000E+00  0.45593999997E+02  0.45594000000E+02  0.51100000000E-03 0. -1.
         11   -1    0    0    0    0 -0.00000000000E+00 -0.00000000000E+00 -0.45593999997E+02  0.45594000000E+02  0.51100000000E-03 0.  1.
    9900012    2    1    2    0    0 -0.99446207976E+00 -0.60015711551E+00  0.21015388080E+00  0.90007615298E+02  0.89999875020E+02 0.  0.
         12    1    1    2    0    0  0.99446207976E+00  0.60015711551E+00 -0.21015388080E+00  0.11803847021E+01  0.00000000000E+00 0. -1.
         11    1    3    3    0    0  0.43615703646E+01  0.79368535561E+01 -0.21703856151E+01  0.93127608364E+01  0.51100000000E-03 0. -1.
        -11    1    3    3    0    0 -0.92759865723E+01  0.29975897714E+02 -0.18788196442E+02  0.36573141736E+02  0.51100000000E-03 0.  1.
         12    1    3    3    0    0  0.39199541279E+01 -0.38512908385E+02  0.21168735938E+02  0.44121712726E+02  0.00000000000E+00 0. -1.
</event>
<event>
 7    1  0.1971192E-015  0.9000792E+02  0.7816164E-02  0.1186339E+00
        -11   -1    0    0    0    0  0.00000000000E+00  0.00000000000E+00  0.45593999997E+02  0.45594000000E+02  0.51100000000E-03 0. -1.
         11   -1    0    0    0    0 -0.00000000000E+00 -0.00000000000E+00 -0.45593999997E+02  0.45594000000E+02  0.51100000000E-03 0.  1.
    9900012    2    1    2    0    0 -0.17257448854E+00  0.93252296837E+00 -0.70228256148E+00  0.90007922953E+02  0.90000186736E+02 0.  0.
         12    1    1    2    0    0  0.17257448854E+00 -0.93252296837E+00  0.70228256148E+00  0.11800770470E+01  0.00000000000E+00 0. -1.
         11    1    3    3    0    0 -0.32602482370E+01  0.76818950786E+01  0.52385093837E+01  0.98530559417E+01  0.51100000000E-03 0. -1.
        -11    1    3    3    0    0  0.28249647719E+02 -0.51863086897E+01 -0.32610483440E+02  0.43455540781E+02  0.51100000000E-03 0.  1.
         12    1    3    3    0    0 -0.25161973970E+02 -0.15630634205E+01  0.26669691495E+02  0.36699326231E+02  0.00000000000E+00 0. -1.
</event>
<event>
 7    1  0.1971192E-015  0.9000788E+02  0.7816164E-02  0.1186339E+00
        -11   -1    0    0    0    0  0.00000000000E+00  0.00000000000E+00  0.45593999997E+02  0.45594000000E+02  0.51100000000E-03 0.  1.
         11   -1    0    0    0    0 -0.00000000000E+00 -0.00000000000E+00 -0.45593999997E+02  0.45594000000E+02  0.51100000000E-03 0. -1.
    9900012    2    1    2    0    0 -0.85319061760E+00  0.41983589371E+00 -0.69892390452E+00  0.90007876688E+02  0.90000139860E+02 0.  0.
         12    1    1    2    0    0  0.85319061760E+00 -0.41983589371E+00  0.69892390452E+00  0.11801233122E+01  0.00000000000E+00 0. -1.
         11    1    3    3    0    0 -0.11152709527E+02  0.14839007659E+01  0.36510074555E+01  0.11828556420E+02  0.51100000000E-03 0. -1.
        -11    1    3    3    0    0 -0.30128609240E+02 -0.49352197863E+01  0.14031538253E+02  0.33600201712E+02  0.51100000000E-03 0.  1.
         12    1    3    3    0    0  0.40428128150E+02  0.38711549141E+01 -0.18381469613E+02  0.44579118556E+02  0.00000000000E+00 0. -1.
</event>
<event>
 7    1  0.1971192E-015  0.9000775E+02  0.7816164E-02  0.1186339E+00
        -11   -1    0    0    0    0  0.00000000000E+00  0.00000000000E+00  0.45593999997E+02  0.45594000000E+02  0.51100000000E-03 0. -1.
         11   -1    0    0    0    0 -0.00000000000E+00 -0.00000000000E+00 -0.45593999997E+02  0.45594000000E+02  0.51100000000E-03 0.  1.
    9900012    2    1    2    0    0 -0.10662381594E+01  0.50291496963E+00  0.56603028221E-01  0.90007749526E+02  0.90000011019E+02 0.  0.
         12    1    1    2    0    0  0.10662381594E+01 -0.50291496963E+00 -0.56603028221E-01  0.11802504743E+01  0.00000000000E+00 0. -1.
         11    1    3    3    0    0  0.85830537777E+01  0.70154215135E+01  0.38711524707E+01  0.11741838565E+02  0.51100000000E-03 0. -1.
        -11    1    3    3    0    0  0.14181021435E+02  0.30349150514E+02 -0.71224261665E+01  0.34247646060E+02  0.51100000000E-03 0.  1.
         12    1    3    3    0    0 -0.23830313372E+02 -0.36861657058E+02  0.33078767241E+01  0.44018264901E+02  0.00000000000E+00 0. -1.
</event>
<event>
 7    1  0.1971192E-015  0.9000772E+02  0.7816164E-02  0.1186339E+00
        -11   -1    0    0    0    0  0.00000000000E+00  0.00000000000E+00  0.45593999997E+02  0.45594000000E+02  0.51100000000E-03 0.  1.
         11   -1    0    0    0    0 -0.00000000000E+00 -0.00000000000E+00 -0.45593999997E+02  0.45594000000E+02  0.51100000000E-03 0. -1.
    9900012    2    1    2    0    0  0.28902801298E+00  0.72874505194E-01  0.11420179330E+01  0.90007723403E+02  0.89999984552E+02 0.  0.
         12    1    1    2    0    0 -0.28902801298E+00 -0.72874505194E-01 -0.11420179330E+01  0.11802765969E+01  0.00000000000E+00 0. -1.
         11    1    3    3    0    0  0.80659312333E+01 -0.41258669406E+01  0.20983583642E+01  0.92997383166E+01  0.51100000000E-03 0. -1.
        -11    1    3    3    0    0  0.15964824115E+01  0.18687994152E+02  0.35624882746E+02  0.40260677496E+02  0.51100000000E-03 0.  1.
         12    1    3    3    0    0 -0.93733856319E+01 -0.14489252706E+02 -0.36581223177E+02  0.40447307591E+02  0.00000000000E+00 0. -1.
</event>
<event>
 7    1  0.1971192E-015  0.9000772E+02  0.7816164E-02  0.1186339E+00
        -11   -1    0    0    0    0  0.00000000000E+00  0.00000000000E+00  0.45593999997E+02  0.45594000000E+02  0.51100000000E-03 0. -1.
         11   -1    0    0    0    0 -0.00000000000E+00 -0.00000000000E+00 -0.45593999997E+02  0.45594000000E+02  0.51100000000E-03 0.  1.
    9900012    2    1    2    0    0  0.10828743816E+01  0.43477884854E+00 -0.17724028556E+00  0.90007718808E+02  0.89999979896E+02 0.  0.
         12    1    1    2    0    0 -0.10828743816E+01 -0.43477884854E+00  0.17724028556E+00  0.11802811920E+01  0.00000000000E+00 0. -1.
         11    1    3    3    0    0  0.86859398493E+00 -0.12489423113E+02  0.18831279136E+01  0.12660423224E+02  0.51100000000E-03 0. -1.
        -11    1    3    3    0    0 -0.76889461155E+01 -0.11729944907E+02 -0.33678209068E+02  0.36481958092E+02  0.51100000000E-03 0.  1.
         12    1    3    3    0    0  0.79032265121E+01  0.24654146869E+02  0.31617840869E+02  0.40865337492E+02  0.00000000000E+00 0. -1.
</event>
<event>
 7    1  0.1971192E-015  0.9000768E+02  0.7816164E-02  0.1186339E+00
        -11   -1    0    0    0    0  0.00000000000E+00  0.00000000000E+00  0.45593999997E+02  0.45594000000E+02  0.51100000000E-03 0.  1.
         11   -1    0    0    0    0 -0.00000000000E+00 -0.00000000000E+00 -0.45593999997E+02  0.45594000000E+02  0.51100000000E-03 0. -1.
    9900012    2    1    2    0    0  0.25717788442E+00  0.11276506280E+01 -0.23542985290E+00  0.90007676477E+02  0.89999937007E+02 0.  0.
         12    1    1    2    0    0 -0.25717788442E+00 -0.11276506280E+01  0.23542985290E+00  0.11803235229E+01  0.00000000000E+00 0. -1.
         11    1    3    3    0    0  0.16175893123E+02  0.36054032998E+02  0.11945978016E+02  0.41282674390E+02  0.51100000000E-03 0. -1.
        -11    1    3    3    0    0 -0.98968819389E+01  0.97116739059E+00  0.10408121889E+01  0.99987363445E+01  0.51100000000E-03 0.  1.
        -12    1    3    3    0    0 -0.60218332995E+01 -0.35897549761E+02 -0.13222220058E+02  0.38726265743E+02  0.00000000000E+00 0.  1.
</event>
<event>
 7    1  0.1971192E-015  0.9000775E+02  0.7816164E-02  0.1186339E+00
        -11   -1    0    0    0    0  0.00000000000E+00  0.00000000000E+00  0.45593999997E+02  0.45594000000E+02  0.51100000000E-03 0. -1.
         11   -1    0    0    0    0 -0.00000000000E+00 -0.00000000000E+00 -0.45593999997E+02  0.45594000000E+02  0.51100000000E-03 0.  1.
    9900012    2    1    2    0    0 -0.93401913437E+00  0.22760983456E+00  0.68469209058E+00  0.90007745265E+02  0.90000006703E+02 0.  0.
         12    1    1    2    0    0  0.93401913437E+00 -0.22760983456E+00 -0.68469209058E+00  0.11802547348E+01  0.00000000000E+00 0. -1.
         11    1    3    3    0    0  0.28364832951E+02  0.17955948797E+02  0.22143571311E+02  0.40215887360E+02  0.51100000000E-03 0. -1.
        -11    1    3    3    0    0  0.57765258837E+01 -0.79586956131E+00 -0.14702197097E+01  0.60135851120E+01  0.51100000000E-03 0.  1.
        -12    1    3    3    0    0 -0.35075377969E+02 -0.16932469401E+02 -0.19988659510E+02  0.43778272793E+02  0.00000000000E+00 0.  1.
</event>
<event>
 7    1  0.1971192E-015  0.9000791E+02  0.7816164E-02  0.1186339E+00
        -11   -1    0    0    0    0  0.00000000000E+00  0.00000000000E+00  0.45593999997E+02  0.45594000000E+02  0.51100000000E-03 0. -1.
         11   -1    0    0    0    0 -0.00000000000E+00 -0.00000000000E+00 -0.45593999997E+02  0.45594000000E+02  0.51100000000E-03 0.  1.
    9900012    2    1    2    0    0 -0.94227946155E+00 -0.70077527151E+00  0.11681419808E+00  0.90007905884E+02  0.90000169442E+02 0.  0.
         12    1    1    2    0    0  0.94227946155E+00  0.70077527151E+00 -0.11681419808E+00  0.11800941156E+01  0.00000000000E+00 0. -1.
         11    1    3    3    0    0  0.26404091365E+02 -0.17082253824E+02  0.23487534341E+02  0.39251034460E+02  0.51100000000E-03 0. -1.
        -11    1    3    3    0    0 -0.13752351157E+02 -0.85875181461E+01 -0.52452671852E+01  0.17040700055E+02  0.51100000000E-03 0.  1.
        -12    1    3    3    0    0 -0.13594019669E+02  0.24968996699E+02 -0.18125452957E+02  0.33716171370E+02  0.00000000000E+00 0.  1.
</event>
<event>
 7    1  0.1971192E-015  0.9000774E+02  0.7816164E-02  0.1186339E+00
        -11   -1    0    0    0    0  0.00000000000E+00  0.00000000000E+00  0.45593999997E+02  0.45594000000E+02  0.51100000000E-03 0.  1.
         11   -1    0    0    0    0 -0.00000000000E+00 -0.00000000000E+00 -0.45593999997E+02  0.45594000000E+02  0.51100000000E-03 0. -1.
    9900012    2    1    2    0    0  0.40500911157E+00 -0.85473919131E+00  0.70597189682E+00  0.90007742492E+02  0.90000003893E+02 0.  0.
         12    1    1    2    0    0 -0.40500911157E+00  0.85473919131E+00 -0.70597189682E+00  0.11802575078E+01  0.00000000000E+00 0. -1.
         11    1    3    3    0    0  0.67561496720E+01 -0.68553800690E+01  0.30637132874E+01  0.10100897666E+02  0.51100000000E-03 0. -1.
        -11    1    3    3    0    0  0.17872624201E+01 -0.27185002869E+02  0.24349058755E+02  0.36538956614E+02  0.51100000000E-03 0.  1.
         12    1    3    3    0    0 -0.81384029805E+01  0.33185643747E+02 -0.26706800145E+02  0.43367888212E+02  0.00000000000E+00 0. -1.
</event>
<event>
 7    1  0.1971192E-015  0.9000736E+02  0.7816164E-02  0.1186340E+00
        -11   -1    0    0    0    0  0.00000000000E+00  0.00000000000E+00  0.45593999997E+02  0.45594000000E+02  0.51100000000E-03 0.  1.
         11   -1    0    0    0    0 -0.00000000000E+00 -0.00000000000E+00 -0.45593999997E+02  0.45594000000E+02  0.51100000000E-03 0. -1.
    9900012    2    1    2    0    0 -0.11333349618E+01 -0.31835877498E+00 -0.90044612450E-01  0.90007360988E+02  0.89999617352E+02 0.  0.
         12    1    1    2    0    0  0.11333349618E+01  0.31835877498E+00  0.90044612450E-01  0.11806390124E+01  0.00000000000E+00 0. -1.
         11    1    3    3    0    0  0.22116585348E+01  0.11233463578E+01 -0.94500345212E+01  0.97701838891E+01  0.51100000000E-03 0. -1.
        -11    1    3    3    0    0  0.26516250521E+02  0.18768262209E+02  0.24942118135E+02  0.40956909861E+02  0.51100000000E-03 0.  1.
         12    1    3    3    0    0 -0.29861244017E+02 -0.20209967342E+02 -0.15582128226E+02  0.39280267238E+02  0.00000000000E+00 0. -1.
</event>
<event>
 7    1  0.1971192E-015  0.9000770E+02  0.7816164E-02  0.1186339E+00
        -11   -1    0    0    0    0  0.00000000000E+00  0.00000000000E+00  0.45593999997E+02  0.45594000000E+02  0.51100000000E-03 0. -1.
         11   -1    0    0    0    0 -0.00000000000E+00 -0.00000000000E+00 -0.45593999997E+02  0.45594000000E+02  0.51100000000E-03 0.  1.
    9900012    2    1    2    0    0  0.71440172259E+00  0.60153731676E+00 -0.72172464008E+00  0.90007701978E+02  0.89999962844E+02 0.  0.
         12    1    1    2    0    0 -0.71440172259E+00 -0.60153731676E+00  0.72172464008E+00  0.11802980220E+01  0.00000000000E+00 0. -1.
         11    1    3    3    0    0  0.13871862906E+02 -0.38964870063E+01 -0.28054123314E+01  0.14679289154E+02  0.51100000000E-03 0. -1.
        -11    1    3    3    0    0 -0.18423000800E+02 -0.70629372657E+01 -0.32759102362E+02  0.38242003466E+02  0.51100000000E-03 0.  1.
         12    1    3    3    0    0  0.52655396169E+01  0.11560961589E+02  0.34842790053E+02  0.37086409357E+02  0.00000000000E+00 0. -1.
</event>
<event>
 7    1  0.1971192E-015  0.9000764E+02  0.7816164E-02  0.1186339E+00
        -11   -1    0    0    0    0  0.00000000000E+00  0.00000000000E+00  0.45593999997E+02  0.45594000000E+02  0.51100000000E-03 0.  1.
         11   -1    0    0    0    0 -0.00000000000E+00 -0.00000000000E+00 -0.45593999997E+02  0.45594000000E+02  0.51100000000E-03 0. -1.
    9900012    2    1    2    0    0 -0.57686186540E+00  0.25948179831E+00  0.99657086901E+00  0.90007638228E+02  0.89999898253E+02 0.  0.
         12    1    1    2    0    0  0.57686186540E+00 -0.25948179831E+00 -0.99657086901E+00  0.11803617718E+01  0.00000000000E+00 0. -1.
         11    1    3    3    0    0 -0.10742795796E+02  0.26665179411E+02  0.23576637011E+02  0.37179258566E+02  0.51100000000E-03 0. -1.
        -11    1    3    3    0    0  0.60106260071E+01  0.78982862337E+01  0.23739828045E+01  0.10205211661E+02  0.51100000000E-03 0.  1.
        -12    1    3    3    0    0  0.41553079234E+01 -0.34303983846E+02 -0.24954048946E+02  0.42623168001E+02  0.00000000000E+00 0.  1.
</event>
<event>
 7    1  0.1971192E-015  0.9000767E+02  0.7816164E-02  0.1186339E+00
        -11   -1    0    0    0    0  0.00000000000E+00  0.00000000000E+00  0.45593999997E+02  0.45594000000E+02  0.51100000000E-03 0.  1.
         11   -1    0    0    0    0 -0.00000000000E+00 -0.00000000000E+00 -0.45593999997E+02  0.45594000000E+02  0.51100000000E-03 0. -1.
    9900012    2    1    2    0    0  0.24705194076E+00 -0.90259886069E+00 -0.71934519916E+00  0.90007670859E+02  0.89999931315E+02 0.  0.
         12    1    1    2    0    0 -0.24705194076E+00  0.90259886069E+00  0.71934519916E+00  0.11803291407E+01  0.00000000000E+00 0. -1.
         11    1    3    3    0    0 -0.21415711663E+01  0.44674432622E+01  0.60025287871E+01  0.77829768381E+01  0.51100000000E-03 0. -1.
        -11    1    3    3    0    0 -0.25230319714E+02 -0.61967969065E+01  0.27771147605E+02  0.38029014769E+02  0.51100000000E-03 0.  1.
         12    1    3    3    0    0  0.27618942821E+02  0.82675478359E+00 -0.34493021592E+02  0.44195679252E+02  0.00000000000E+00 0. -1.
</event>
<event>
 7    1  0.1971192E-015  0.9000775E+02  0.7816164E-02  0.1186339E+00
        -11   -1    0    0    0    0  0.00000000000E+00  0.00000000000E+00  0.45593999997E+02  0.45594000000E+02  0.51100000000E-03 0.  1.
         11   -1    0    0    0    0 -0.00000000000E+00 -0.00000000000E+00 -0.45593999997E+02  0.45594000000E+02  0.51100000000E-03 0. -1.
    9900012    2    1    2    0    0 -0.31875145459E-01  0.11771410558E+01 -0.79391908677E-01  0.90007754193E+02  0.90000015748E+02 0.  0.
         12    1    1    2    0    0  0.31875145459E-01 -0.11771410558E+01  0.79391908677E-01  0.11802458072E+01  0.00000000000E+00 0. -1.
         11    1    3    3    0    0 -0.38952337334E+02  0.10462197840E+02 -0.14428146217E+02  0.42835891153E+02  0.51100000000E-03 0. -1.
        -11    1    3    3    0    0  0.48117834158E+01 -0.94329412202E+01  0.13723283088E+01  0.10677870806E+02  0.51100000000E-03 0.  1.
        -12    1    3    3    0    0  0.34108678772E+02  0.14788443587E+00  0.12976425999E+02  0.36493992233E+02  0.00000000000E+00 0.  1.
</event>
<event>
 7    1  0.1971192E-015  0.9000776E+02  0.7816164E-02  0.1186339E+00
        -11   -1    0    0    0    0  0.00000000000E+00  0.00000000000E+00  0.45593999997E+02  0.45594000000E+02  0.51100000000E-03 0.  1.
         11   -1    0    0    0    0 -0.00000000000E+00 -0.00000000000E+00 -0.45593999997E+02  0.45594000000E+02  0.51100000000E-03 0. -1.
    9900012    2    1    2    0    0  0.59183256555E+00 -0.33767070658E+00  0.96368369707E+00  0.90007756991E+02  0.90000018584E+02 0.  0.
         12    1    1    2    0    0 -0.59183256555E+00  0.33767070658E+00 -0.96368369707E+00  0.11802430088E+01  0.00000000000E+00 0. -1.
         11    1    3    3    0    0 -0.32616962017E+01 -0.10118571795E+02 -0.35935381019E+01  0.11222195580E+02  0.51100000000E-03 0. -1.
        -11    1    3    3    0    0  0.86494141207E-01 -0.89829180352E+01  0.38654404413E+02  0.39684547099E+02  0.51100000000E-03 0.  1.
         12    1    3    3    0    0  0.37670346261E+01  0.18763819124E+02 -0.34097182614E+02  0.39101014312E+02  0.00000000000E+00 0. -1.
</event>
<event>
 7    1  0.1971192E-015  0.9000776E+02  0.7816164E-02  0.1186339E+00
        -11   -1    0    0    0    0  0.00000000000E+00  0.00000000000E+00  0.45593999997E+02  0.45594000000E+02  0.51100000000E-03 0.  1.
         11   -1    0    0    0    0 -0.00000000000E+00 -0.00000000000E+00 -0.45593999997E+02  0.45594000000E+02  0.51100000000E-03 0. -1.
    9900012    2    1    2    0    0  0.11495364595E+01 -0.84958865333E-03  0.26746533489E+00  0.90007757441E+02  0.90000019039E+02 0.  0.
         12    1    1    2    0    0 -0.11495364595E+01  0.84958865334E-03 -0.26746533489E+00  0.11802425593E+01  0.00000000000E+00 0. -1.
         11    1    3    3    0    0  0.23580587989E+01 -0.88566405432E+01 -0.20145653148E+00  0.91673937412E+01  0.51100000000E-03 0. -1.
        -11    1    3    3    0    0 -0.28957887912E+02  0.25386387398E+02  0.19692164575E+02  0.43252852892E+02  0.51100000000E-03 0.  1.
         12    1    3    3    0    0  0.27749365572E+02 -0.16530596443E+02 -0.19223242709E+02  0.37587510807E+02  0.00000000000E+00 0. -1.
</event>
<event>
 7    1  0.1971192E-015  0.9000769E+02  0.7816164E-02  0.1186339E+00
        -11   -1    0    0    0    0  0.00000000000E+00  0.00000000000E+00  0.45593999997E+02  0.45594000000E+02  0.51100000000E-03 0.  1.
         11   -1    0    0    0    0 -0.00000000000E+00 -0.00000000000E+00 -0.45593999997E+02  0.45594000000E+02  0.51100000000E-03 0. -1.
    9900012    2    1    2    0    0 -0.72026035050E-01 -0.11499658941E+01  0.25595663531E+00  0.90007693639E+02  0.89999954395E+02 0.  0.
         12    1    1    2    0    0  0.72026035050E-01  0.11499658941E+01 -0.25595663531E+00  0.11803063613E+01  0.00000000000E+00 0. -1.
         11    1    3    3    0    0 -0.25053000907E+01 -0.97584094591E+00 -0.85188183765E+01  0.89330320099E+01  0.51100000000E-03 0. -1.
        -11    1    3    3    0    0  0.17707467349E+01  0.38572136273E+02  0.15747421283E+02  0.41700437864E+02  0.51100000000E-03 0.  1.
         12    1    3    3    0    0  0.66252732078E+00 -0.38746261221E+02 -0.69726462714E+01  0.39374223765E+02  0.00000000000E+00 0. -1.
</event>
<event>
 7    1  0.1971192E-015  0.9000743E+02  0.7816164E-02  0.1186340E+00
        -11   -1    0    0    0    0  0.00000000000E+00  0.00000000000E+00  0.45593999997E+02  0.45594000000E+02  0.51100000000E-03 0.  1.
         11   -1    0    0    0    0 -0.00000000000E+00 -0.00000000000E+00 -0.45593999997E+02  0.45594000000E+02  0.51100000000E-03 0. -1.
    9900012    2    1    2    0    0  0.26353579131E+00  0.11507525083E+01  0.74272577432E-02  0.90007433351E+02  0.89999690671E+02 0.  0.
         12    1    1    2    0    0 -0.26353579131E+00 -0.11507525083E+01 -0.74272577432E-02  0.11805666490E+01  0.00000000000E+00 0. -1.
         11    1    3    3    0    0  0.19946175306E+02 -0.10925508084E+02  0.33065683585E+02  0.40131733921E+02  0.51100000000E-03 0. -1.
        -11    1    3    3    0    0  0.64501987382E+01  0.81503092789E+01 -0.13300978585E+02  0.16880421697E+02  0.51100000000E-03 0.  1.
        -12    1    3    3    0    0 -0.26132838253E+02  0.39259513132E+01 -0.19757277743E+02  0.32995277733E+02  0.00000000000E+00 0.  1.
</event>
<event>
 7    1  0.2344079E-015  0.9000777E+02  0.7816164E-02  0.1186339E+00
        -11   -1    0    0    0    0  0.00000000000E+00  0.00000000000E+00  0.45593999997E+02  0.45594000000E+02  0.51100000000E-03 0. -1.
         11   -1    0    0    0    0 -0.00000000000E+00 -0.00000000000E+00 -0.45593999997E+02  0.45594000000E+02  0.51100000000E-03 0.  1.
    9900012    2    1    2    0    0  0.22754362785E+00  0.87037893690E+00 -0.76393726347E+00  0.90007773014E+02  0.90000034818E+02 0.  0.
         12    1    1    2    0    0 -0.22754362785E+00 -0.87037893690E+00  0.76393726347E+00  0.11802269862E+01  0.00000000000E+00 0. -1.
         11    1    3    3    0    0 -0.25260300963E+02  0.85363312605E+01  0.25235013282E+02  0.36711818965E+02  0.51100000000E-03 0. -1.
        -11    1    3    3    0    0 -0.23146711241E+01  0.77216521298E+01  0.45161429154E+01  0.92399762510E+01  0.51100000000E-03 0.  1.
        -12    1    3    3    0    0  0.27802515714E+02 -0.15387604453E+02 -0.30515093460E+02  0.44055977798E+02  0.00000000000E+00 0.  1.
</event>
<event>
 7    1  0.1971192E-015  0.9000772E+02  0.7816164E-02  0.1186339E+00
        -11   -1    0    0    0    0  0.00000000000E+00  0.00000000000E+00  0.45593999997E+02  0.45594000000E+02  0.51100000000E-03 0. -1.
         11   -1    0    0    0    0 -0.00000000000E+00 -0.00000000000E+00 -0.45593999997E+02  0.45594000000E+02  0.51100000000E-03 0.  1.
    9900012    2    1    2    0    0  0.26626078888E+00  0.73506278823E+00 -0.88421668426E+00  0.90007724077E+02  0.89999985235E+02 0.  0.
         12    1    1    2    0    0 -0.26626078888E+00 -0.73506278823E+00  0.88421668426E+00  0.11802759233E+01  0.00000000000E+00 0. -1.
         11    1    3    3    0    0 -0.23327908401E+02  0.12435837673E+02  0.30612965294E+02  0.40447435189E+02  0.51100000000E-03 0. -1.
        -11    1    3    3    0    0  0.11762053540E+02  0.10779285493E+01  0.18347049805E+01  0.11952990256E+02  0.51100000000E-03 0.  1.
        -12    1    3    3    0    0  0.11832115651E+02 -0.12778703434E+02 -0.33331886958E+02  0.37607298632E+02  0.00000000000E+00 0.  1.
</event>
<event>
 7    1  0.1971192E-015  0.9000775E+02  0.7816164E-02  0.1186339E+00
        -11   -1    0    0    0    0  0.00000000000E+00  0.00000000000E+00  0.45593999997E+02  0.45594000000E+02  0.51100000000E-03 0. -1.
         11   -1    0    0    0    0 -0.00000000000E+00 -0.00000000000E+00 -0.45593999997E+02  0.45594000000E+02  0.51100000000E-03 0.  1.
    9900012    2    1    2    0    0 -0.32793728903E+00 -0.77742655861E+00 -0.82526679374E+00  0.90007745705E+02  0.90000007148E+02 0.  0.
         12    1    1    2    0    0  0.32793728903E+00  0.77742655861E+00  0.82526679374E+00  0.11802542948E+01  0.00000000000E+00 0. -1.
         11    1    3    3    0    0  0.93940969364E+01  0.99687948019E+00  0.72343164030E+01  0.11898662111E+02  0.51100000000E-03 0. -1.
        -11    1    3    3    0    0  0.14164041603E+02  0.32152087895E+02  0.27240549879E+01  0.35239144519E+02  0.51100000000E-03 0.  1.
        -12    1    3    3    0    0 -0.23886075829E+02 -0.33926393934E+02 -0.10783638185E+02  0.42869939076E+02  0.00000000000E+00 0.  1.
</event>
<event>
 7    1  0.1971192E-015  0.9000776E+02  0.7816164E-02  0.1186339E+00
        -11   -1    0    0    0    0  0.00000000000E+00  0.00000000000E+00  0.45593999997E+02  0.45594000000E+02  0.51100000000E-03 0.  1.
         11   -1    0    0    0    0 -0.00000000000E+00 -0.00000000000E+00 -0.45593999997E+02  0.45594000000E+02  0.51100000000E-03 0. -1.
    9900012    2    1    2    0    0 -0.27943477595E+00  0.63738197677E+00  0.95322344407E+00  0.90007756588E+02  0.90000018175E+02 0.  0.
         12    1    1    2    0    0  0.27943477595E+00 -0.63738197677E+00 -0.95322344407E+00  0.11802434124E+01  0.00000000000E+00 0. -1.
         11    1    3    3    0    0  0.33254450186E+02 -0.17696332746E+02  0.16036352952E+01  0.37703982499E+02  0.51100000000E-03 0. -1.
        -11    1    3    3    0    0 -0.21040977187E+01 -0.74138669869E+01  0.76234877262E+01  0.10840212926E+02  0.51100000000E-03 0.  1.
        -12    1    3    3    0    0 -0.31429787243E+02  0.25747581710E+02 -0.82738995773E+01  0.41463561163E+02  0.00000000000E+00 0.  1.
</event>
<event>
 7    1  0.1971192E-015  0.9000769E+02  0.7816164E-02  0.1186339E+00
        -11   -1    0    0    0    0  0.00000000000E+00  0.00000000000E+00  0.45593999997E+02  0.45594000000E+02  0.51100000000E-03 0.  1.
         11   -1    0    0    0    0 -0.00000000000E+00 -0.00000000000E+00 -0.45593999997E+02  0.45594000000E+02  0.51100000000E-03 0. -1.
    9900012    2    1    2    0    0 -0.81698890072E+00  0.82964657911E+00  0.19328032644E+00  0.90007685807E+02  0.89999946459E+02 0.  0.
         12    1    1    2    0    0  0.81698890072E+00 -0.82964657911E+00 -0.19328032644E+00  0.11803141932E+01  0.00000000000E+00 0. -1.
         11    1    3    3    0    0 -0.39480393032E+02 -0.59596520719E+01 -0.61473204674E+01  0.40398124164E+02  0.51100000000E-03 0. -1.
        -11    1    3    3    0    0  0.26843362903E+01 -0.90611860246E+01 -0.13568227496E+01  0.95473410815E+01  0.51100000000E-03 0.  1.
        -12    1    3    3    0    0  0.35979067841E+02  0.15850484676E+02  0.76974235434E+01  0.40062220562E+02  0.00000000000E+00 0.  1.
</event>
<event>
 7    1  0.1971192E-015  0.9000767E+02  0.7816164E-02  0.1186339E+00
        -11   -1    0    0    0    0  0.00000000000E+00  0.00000000000E+00  0.45593999997E+02  0.45594000000E+02  0.51100000000E-03 0. -1.
         11   -1    0    0    0    0 -0.00000000000E+00 -0.00000000000E+00 -0.45593999997E+02  0.45594000000E+02  0.51100000000E-03 0.  1.
    9900012    2    1    2    0    0 -0.42712007042E-01  0.11023940839E+01 -0.41960975733E+00  0.90007674036E+02  0.89999934534E+02 0.  0.
         12    1    1    2    0    0  0.42712007042E-01 -0.11023940839E+01  0.41960975733E+00  0.11803259636E+01  0.00000000000E+00 0. -1.
         11    1    3    3    0    0 -0.14295945415E+02 -0.19594839567E+02  0.27017045236E+02  0.36307747472E+02  0.51100000000E-03 0. -1.
        -11    1    3    3    0    0  0.23006003709E+01 -0.10461425066E+02 -0.34791208755E+00  0.10717052746E+02  0.51100000000E-03 0.  1.
        -12    1    3    3    0    0  0.11952633037E+02  0.31158658717E+02 -0.27088742905E+02  0.42982873819E+02  0.00000000000E+00 0.  1.
</event>
<event>
 7    1  0.1971192E-015  0.9000768E+02  0.7816164E-02  0.1186339E+00
        -11   -1    0    0    0    0  0.00000000000E+00  0.00000000000E+00  0.45593999997E+02  0.45594000000E+02  0.51100000000E-03 0.  1.
         11   -1    0    0    0    0 -0.00000000000E+00 -0.00000000000E+00 -0.45593999997E+02  0.45594000000E+02  0.51100000000E-03 0. -1.
    9900012    2    1    2    0    0 -0.11026749353E+01  0.36929844318E+00  0.20216847821E+00  0.90007684175E+02  0.89999944806E+02 0.  0.
         12    1    1    2    0    0  0.11026749353E+01 -0.36929844318E+00 -0.20216847821E+00  0.11803158250E+01  0.00000000000E+00 0. -1.
         11    1    3    3    0    0  0.74094137514E+01  0.92467558804E+01  0.10648681116E+02  0.15930986040E+02  0.51100000000E-03 0. -1.
        -11    1    3    3    0    0 -0.25507977320E+01 -0.22777647742E+01  0.31252909674E+02  0.31439452043E+02  0.51100000000E-03 0.  1.
         12    1    3    3    0    0 -0.59612909547E+01 -0.65996926630E+01 -0.41699422312E+02  0.42637246091E+02  0.00000000000E+00 0. -1.
</event>
<event>
 7    1  0.1971192E-015  0.9000783E+02  0.7816164E-02  0.1186339E+00
        -11   -1    0    0    0    0  0.00000000000E+00  0.00000000000E+00  0.45593999997E+02  0.45594000000E+02  0.51100000000E-03 0.  1.
         11   -1    0    0    0    0 -0.00000000000E+00 -0.00000000000E+00 -0.45593999997E+02  0.45594000000E+02  0.51100000000E-03 0. -1.
    9900012    2    1    2    0    0  0.11704394319E+00  0.33890707366E+00  0.11243890247E+01  0.90007827145E+02  0.90000089663E+02 0.  0.
         12    1    1    2    0    0 -0.11704394319E+00 -0.33890707366E+00 -0.11243890247E+01  0.11801728551E+01  0.00000000000E+00 0. -1.
         11    1    3    3    0    0  0.40399058006E+01  0.40513590043E+02 -0.67303779587E+01  0.41267054714E+02  0.51100000000E-03 0. -1.
        -11    1    3    3    0    0 -0.21931191863E+00 -0.19921255303E+01  0.10115822293E+02  0.10312445043E+02  0.51100000000E-03 0.  1.
        -12    1    3    3    0    0 -0.37035499388E+01 -0.38182557439E+02 -0.22610553093E+01  0.38428327388E+02  0.00000000000E+00 0.  1.
</event>
<event>
 7    1  0.1971192E-015  0.9000782E+02  0.7816164E-02  0.1186339E+00
        -11   -1    0    0    0    0  0.00000000000E+00  0.00000000000E+00  0.45593999997E+02  0.45594000000E+02  0.51100000000E-03 0. -1.
         11   -1    0    0    0    0 -0.00000000000E+00 -0.00000000000E+00 -0.45593999997E+02  0.45594000000E+02  0.51100000000E-03 0.  1.
    9900012    2    1    2    0    0  0.45997633609E+00 -0.95104214688E+00  0.52607564948E+00  0.90007824172E+02  0.90000086652E+02 0.  0.
         12    1    1    2    0    0 -0.45997633609E+00  0.95104214688E+00 -0.52607564948E+00  0.11801758275E+01  0.00000000000E+00 0. -1.
         11    1    3    3    0    0 -0.91649771448E+01  0.14705631942E+01 -0.22256123114E+01  0.95452979312E+01  0.51100000000E-03 0. -1.
        -11    1    3    3    0    0  0.35570188917E+02  0.24158734671E+02  0.47786252112E+01  0.43263357009E+02  0.51100000000E-03 0.  1.
         12    1    3    3    0    0 -0.25945235436E+02 -0.26580340013E+02 -0.20269372503E+01  0.37199169233E+02  0.00000000000E+00 0. -1.
</event>
<event>
 7    1  0.1971192E-015  0.9000779E+02  0.7816164E-02  0.1186339E+00
        -11   -1    0    0    0    0  0.00000000000E+00  0.00000000000E+00  0.45593999997E+02  0.45594000000E+02  0.51100000000E-03 0.  1.
         11   -1    0    0    0    0 -0.00000000000E+00 -0.00000000000E+00 -0.45593999997E+02  0.45594000000E+02  0.51100000000E-03 0. -1.
    9900012    2    1    2    0    0 -0.40289724651E-01  0.23179769118E+00  0.11565254643E+01  0.90007786214E+02  0.90000048192E+02 0.  0.
         12    1    1    2    0    0  0.40289724651E-01 -0.23179769118E+00 -0.11565254643E+01  0.11802137862E+01  0.00000000000E+00 0. -1.
         11    1    3    3    0    0 -0.27337086367E+01  0.57660593676E+01 -0.68922793851E+01  0.93927695024E+01  0.51100000000E-03 0. -1.
        -11    1    3    3    0    0 -0.34164332180E+02  0.14246651781E+02  0.11180888770E+02  0.38667569799E+02  0.51100000000E-03 0.  1.
         12    1    3    3    0    0  0.36857751092E+02 -0.19780913457E+02 -0.31320839203E+01  0.41947446912E+02  0.00000000000E+00 0. -1.
</event>
<event>
 7    1  0.1971192E-015  0.9000793E+02  0.7816164E-02  0.1186339E+00
        -11   -1    0    0    0    0  0.00000000000E+00  0.00000000000E+00  0.45593999997E+02  0.45594000000E+02  0.51100000000E-03 0. -1.
         11   -1    0    0    0    0 -0.00000000000E+00 -0.00000000000E+00 -0.45593999997E+02  0.45594000000E+02  0.51100000000E-03 0.  1.
    9900012    2    1    2    0    0 -0.71229186711E+00  0.86070111266E+00 -0.37999842499E+00  0.90007930124E+02  0.90000194001E+02 0.  0.
         12    1    1    2    0    0  0.71229186711E+00 -0.86070111266E+00  0.37999842499E+00  0.11800698760E+01  0.00000000000E+00 0. -1.
         11    1    3    3    0    0 -0.97960813813E+01 -0.33758906898E+01  0.50592839947E+00  0.10373804133E+02  0.51100000000E-03 0. -1.
        -11    1    3    3    0    0 -0.26026581044E+02  0.17431280825E+02 -0.20372144270E+02  0.37366518897E+02  0.51100000000E-03 0.  1.
         12    1    3    3    0    0  0.35110370558E+02 -0.13194689023E+02  0.19486217446E+02  0.42267607094E+02  0.00000000000E+00 0. -1.
</event>
<event>
 7    1  0.1971192E-015  0.9000754E+02  0.7816164E-02  0.1186339E+00
        -11   -1    0    0    0    0  0.00000000000E+00  0.00000000000E+00  0.45593999997E+02  0.45594000000E+02  0.51100000000E-03 0. -1.
         11   -1    0    0    0    0 -0.00000000000E+00 -0.00000000000E+00 -0.45593999997E+02  0.45594000000E+02  0.51100000000E-03 0.  1.
    9900012    2    1    2    0    0  0.21680357802E-01  0.36085727411E-01 -0.11797099497E+01  0.90007539165E+02  0.89999797882E+02 0.  0.
         12    1    1    2    0    0 -0.21680357802E-01 -0.36085727411E-01  0.11797099497E+01  0.11804608351E+01  0.00000000000E+00 0. -1.
         11    1    3    3    0    0  0.83484643973E+01 -0.20840675163E+02  0.31061681796E+02  0.38325692105E+02  0.51100000000E-03 0. -1.
        -11    1    3    3    0    0 -0.11708649114E+02 -0.25156840710E+01 -0.34259588206E+00  0.11980755511E+02  0.51100000000E-03 0.  1.
        -12    1    3    3    0    0  0.33818650741E+01  0.23392444961E+02 -0.31898795864E+02  0.39701091549E+02  0.00000000000E+00 0.  1.
</event>
<event>
 7    1  0.1971192E-015  0.9000774E+02  0.7816164E-02  0.1186339E+00
        -11   -1    0    0    0    0  0.00000000000E+00  0.00000000000E+00  0.45593999997E+02  0.45594000000E+02  0.51100000000E-03 0.  1.
         11   -1    0    0    0    0 -0.00000000000E+00 -0.00000000000E+00 -0.45593999997E+02  0.45594000000E+02  0.51100000000E-03 0. -1.
    9900012    2    1    2    0    0  0.74344995983E+00  0.97371984337E-01  0.91149618117E+00  0.90007735439E+02  0.89999996747E+02 0.  0.
         12    1    1    2    0    0 -0.74344995983E+00 -0.97371984337E-01 -0.91149618117E+00  0.11802645612E+01  0.00000000000E+00 0. -1.
         11    1    3    3    0    0  0.21135577535E+02 -0.77008183106E+01 -0.37111792745E+01  0.22798861644E+02  0.51100000000E-03 0. -1.
        -11    1    3    3    0    0 -0.22308590936E+02 -0.23291793274E+02  0.13280394556E+02  0.34879073143E+02  0.51100000000E-03 0.  1.
         12    1    3    3    0    0  0.19164633616E+01  0.31089983569E+02 -0.86577191005E+01  0.32329800652E+02  0.00000000000E+00 0. -1.
</event>
<event>
 7    1  0.1971192E-015  0.9000768E+02  0.7816164E-02  0.1186339E+00
        -11   -1    0    0    0    0  0.00000000000E+00  0.00000000000E+00  0.45593999997E+02  0.45594000000E+02  0.51100000000E-03 0.  1.
         11   -1    0    0    0    0 -0.00000000000E+00 -0.00000000000E+00 -0.45593999997E+02  0.45594000000E+02  0.51100000000E-03 0. -1.
    9900012    2    1    2    0    0  0.41778212545E+00 -0.12648520252E+00  0.10966345559E+01  0.90007683195E+02  0.89999943813E+02 0.  0.
         12    1    1    2    0    0 -0.41778212545E+00  0.12648520252E+00 -0.10966345559E+01  0.11803168049E+01  0.00000000000E+00 0. -1.
         11    1    3    3    0    0 -0.14623649115E+01  0.32073486926E+01  0.10440867016E+02  0.11019859394E+02  0.51100000000E-03 0. -1.
        -11    1    3    3    0    0 -0.87974438259E+01 -0.31685913111E+02  0.18593026721E+02  0.37776881164E+02  0.51100000000E-03 0.  1.
         12    1    3    3    0    0  0.10677590863E+02  0.28352079216E+02 -0.27937259181E+02  0.41210942637E+02  0.00000000000E+00 0. -1.
</event>
<event>
 7    1  0.1971192E-015  0.9000773E+02  0.7816164E-02  0.1186339E+00
        -11   -1    0    0    0    0  0.00000000000E+00  0.00000000000E+00  0.45593999997E+02  0.45594000000E+02  0.51100000000E-03 0. -1.
         11   -1    0    0    0    0 -0.00000000000E+00 -0.00000000000E+00 -0.45593999997E+02  0.45594000000E+02  0.51100000000E-03 0.  1.
    9900012    2    1    2    0    0  0.87081715635E+00  0.69511406253E+00 -0.38927270845E+00  0.90007729132E+02  0.89999990357E+02 0.  0.
         12    1    1    2    0    0 -0.87081715635E+00 -0.69511406253E+00  0.38927270845E+00  0.11802708678E+01  0.00000000000E+00 0. -1.
         11    1    3    3    0    0  0.58077278579E+01 -0.99696833381E+01  0.20146684604E+01  0.11712522273E+02  0.51100000000E-03 0. -1.
        -11    1    3    3    0    0 -0.19930798593E+02 -0.17699545302E+02 -0.26945132399E+02  0.37901857431E+02  0.51100000000E-03 0.  1.
         12    1    3    3    0    0  0.14993887891E+02  0.28364342703E+02  0.24541191230E+02  0.40393349428E+02  0.00000000000E+00 0. -1.
</event>
<event>
 7    1  0.1971192E-015  0.9000741E+02  0.7816164E-02  0.1186340E+00
        -11   -1    0    0    0    0  0.00000000000E+00  0.00000000000E+00  0.45593999997E+02  0.45594000000E+02  0.51100000000E-03 0. -1.
         11   -1    0    0    0    0 -0.00000000000E+00 -0.00000000000E+00 -0.45593999997E+02  0.45594000000E+02  0.51100000000E-03 0.  1.
    9900012    2    1    2    0    0  0.33066769339E+00 -0.10986855308E+01  0.27810205385E+00  0.90007410414E+02  0.89999667431E+02 0.  0.
         12    1    1    2    0    0 -0.33066769339E+00  0.10986855308E+01 -0.27810205385E+00  0.11805895863E+01  0.00000000000E+00 0. -1.
         11    1    3    3    0    0 -0.36962617480E+01 -0.73737735081E+01 -0.94005360209E+01  0.12506197040E+02  0.51100000000E-03 0. -1.
        -11    1    3    3    0    0 -0.81500359459E+00 -0.32829273601E+02 -0.87742906129E+01  0.33991375554E+02  0.51100000000E-03 0.  1.
         12    1    3    3    0    0  0.48419330360E+01  0.39104361578E+02  0.18452928688E+02  0.43509837820E+02  0.00000000000E+00 0. -1.
</event>
<event>
 7    1  0.1971192E-015  0.9000772E+02  0.7816164E-02  0.1186339E+00
        -11   -1    0    0    0    0  0.00000000000E+00  0.00000000000E+00  0.45593999997E+02  0.45594000000E+02  0.51100000000E-03 0. -1.
         11   -1    0    0    0    0 -0.00000000000E+00 -0.00000000000E+00 -0.45593999997E+02  0.45594000000E+02  0.51100000000E-03 0.  1.
    9900012    2    1    2    0    0 -0.56068636331E+00  0.12017192755E+00 -0.10316261026E+01  0.90007719141E+02  0.89999980234E+02 0.  0.
         12    1    1    2    0    0  0.56068636331E+00 -0.12017192755E+00  0.10316261026E+01  0.11802808588E+01  0.00000000000E+00 0. -1.
         11    1    3    3    0    0  0.57028209050E+01  0.86324077868E+01 -0.29948904870E+01  0.10770793832E+02  0.51100000000E-03 0. -1.
        -11    1    3    3    0    0  0.63238245066E+01 -0.17857935969E+02 -0.34604142414E+02  0.39450517182E+02  0.51100000000E-03 0.  1.
         12    1    3    3    0    0 -0.12587331775E+02  0.93457001102E+01  0.36567406798E+02  0.39786408128E+02  0.00000000000E+00 0. -1.
</event>
<event>
 7    1  0.1971192E-015  0.9000765E+02  0.7816164E-02  0.1186339E+00
        -11   -1    0    0    0    0  0.00000000000E+00  0.00000000000E+00  0.45593999997E+02  0.45594000000E+02  0.51100000000E-03 0.  1.
         11   -1    0    0    0    0 -0.00000000000E+00 -0.00000000000E+00 -0.45593999997E+02  0.45594000000E+02  0.51100000000E-03 0. -1.
    9900012    2    1    2    0    0  0.26153477914E+00 -0.30481930091E+00  0.11099113310E+01  0.90007653267E+02  0.89999913490E+02 0.  0.
         12    1    1    2    0    0 -0.26153477914E+00  0.30481930091E+00 -0.11099113310E+01  0.11803467327E+01  0.00000000000E+00 0. -1.
         11    1    3    3    0    0  0.61687919045E+00 -0.90428016093E+01  0.91548113409E+01  0.12882677200E+02  0.51100000000E-03 0. -1.
        -11    1    3    3    0    0  0.36363099215E+01  0.36414302283E+01  0.34099827664E+02  0.34485953821E+02  0.51100000000E-03 0.  1.
         12    1    3    3    0    0 -0.39916543328E+01  0.50965520801E+01 -0.42144727674E+02  0.42639022247E+02  0.00000000000E+00 0. -1.
</event>
<event>
 7    1  0.1971192E-015  0.9000768E+02  0.7816164E-02  0.1186339E+00
        -11   -1    0    0    0    0  0.00000000000E+00  0.00000000000E+00  0.45593999997E+02  0.45594000000E+02  0.51100000000E-03 0.  1.
         11   -1    0    0    0    0 -0.00000000000E+00 -0.00000000000E+00 -0.45593999997E+02  0.45594000000E+02  0.51100000000E-03 0. -1.
    9900012    2    1    2    0    0  0.10387825281E+01 -0.53859668033E+00 -0.15490071003E+00  0.90007682350E+02  0.89999942957E+02 0.  0.
         12    1    1    2    0    0 -0.10387825281E+01  0.53859668033E+00  0.15490071003E+00  0.11803176499E+01  0.00000000000E+00 0. -1.
         11    1    3    3    0    0 -0.46815743706E+01 -0.81025651553E+01  0.63509530375E+00  0.93793415008E+01  0.51100000000E-03 0. -1.
        -11    1    3    3    0    0  0.13624616584E+01 -0.90139269154E+01  0.37544834102E+02  0.38635757379E+02  0.51100000000E-03 0.  1.
         12    1    3    3    0    0  0.43578952402E+01  0.16577895390E+02 -0.38334830116E+02  0.41992583470E+02  0.00000000000E+00 0. -1.
</event>
<event>
 7    1  0.1971192E-015  0.9000763E+02  0.7816164E-02  0.1186339E+00
        -11   -1    0    0    0    0  0.00000000000E+00  0.00000000000E+00  0.45593999997E+02  0.45594000000E+02  0.51100000000E-03 0.  1.
         11   -1    0    0    0    0 -0.00000000000E+00 -0.00000000000E+00 -0.45593999997E+02  0.45594000000E+02  0.51100000000E-03 0. -1.
    9900012    2    1    2    0    0 -0.68264798467E+00 -0.91738582709E+00  0.29267628441E+00  0.90007633771E+02  0.89999893737E+02 0.  0.
         12    1    1    2    0    0  0.68264798467E+00  0.91738582709E+00 -0.29267628441E+00  0.11803662288E+01  0.00000000000E+00 0. -1.
         11    1    3    3    0    0  0.57623766339E+01 -0.22817533728E+02  0.53257280449E+01  0.24128991055E+02  0.51100000000E-03 0. -1.
        -11    1    3    3    0    0  0.21584860385E+02  0.19282070516E+02  0.13742567806E+02  0.32040015784E+02  0.51100000000E-03 0.  1.
         12    1    3    3    0    0 -0.28029885004E+02  0.26180773841E+01 -0.18775619567E+02  0.33838626932E+02  0.00000000000E+00 0. -1.
</event>
<event>
 7    1  0.1971192E-015  0.9000771E+02  0.7816164E-02  0.1186339E+00
        -11   -1    0    0    0    0  0.00000000000E+00  0.00000000000E+00  0.45593999997E+02  0.45594000000E+02  0.51100000000E-03 0. -1.
         11   -1    0    0    0    0 -0.00000000000E+00 -0.00000000000E+00 -0.45593999997E+02  0.45594000000E+02  0.51100000000E-03 0.  1.
    9900012    2    1    2    0    0 -0.33211137361E+00 -0.52303004387E+00 -0.10046054297E+01  0.90007707468E+02  0.89999968407E+02 0.  0.
         12    1    1    2    0    0  0.33211137361E+00  0.52303004387E+00  0.10046054297E+01  0.11802925318E+01  0.00000000000E+00 0. -1.
         11    1    3    3    0    0 -0.26846615899E+02  0.97920331728E+00 -0.28369979612E+02  0.39071157749E+02  0.51100000000E-03 0. -1.
        -11    1    3    3    0    0  0.26713143164E+00 -0.45370623996E+01 -0.65321719357E+01  0.79577361654E+01  0.51100000000E-03 0.  1.
        -12    1    3    3    0    0  0.26247373094E+02  0.30348290384E+01  0.33897546118E+02  0.42978813554E+02  0.00000000000E+00 0.  1.
</event>
<event>
 7    1  0.1971192E-015  0.9000778E+02  0.7816164E-02  0.1186339E+00
        -11   -1    0    0    0    0  0.00000000000E+00  0.00000000000E+00  0.45593999997E+02  0.45594000000E+02  0.51100000000E-03 0.  1.
         11   -1    0    0    0    0 -0.00000000000E+00 -0.00000000000E+00 -0.45593999997E+02  0.45594000000E+02  0.51100000000E-03 0. -1.
    9900012    2    1    2    0    0  0.32676144947E+00  0.11148369798E+01  0.20803743180E+00  0.90007782177E+02  0.90000044102E+02 0.  0.
         12    1    1    2    0    0 -0.32676144947E+00 -0.11148369798E+01 -0.20803743180E+00  0.11802178228E+01  0.00000000000E+00 0. -1.
         11    1    3    3    0    0 -0.20848099934E+02  0.11070901863E+02  0.29780678720E+02  0.38001275823E+02  0.51100000000E-03 0. -1.
        -11    1    3    3    0    0 -0.50980918010E+01  0.52479419854E+01  0.26087607419E+01  0.77676938638E+01  0.51100000000E-03 0.  1.
        -12    1    3    3    0    0  0.26272953185E+02 -0.15204006868E+02 -0.32181402030E+02  0.44238812490E+02  0.00000000000E+00 0.  1.
</event>
<event>
 7    1  0.1971192E-015  0.9000806E+02  0.7816164E-02  0.1186338E+00
        -11   -1    0    0    0    0  0.00000000000E+00  0.00000000000E+00  0.45593999997E+02  0.45594000000E+02  0.51100000000E-03 0. -1.
         11   -1    0    0    0    0 -0.00000000000E+00 -0.00000000000E+00 -0.45593999997E+02  0.45594000000E+02  0.51100000000E-03 0.  1.
    9900012    2    1    2    0    0 -0.79623772399E+00  0.39301747217E+00 -0.77704328317E+00  0.90008062073E+02  0.90000327692E+02 0.  0.
         12    1    1    2    0    0  0.79623772399E+00 -0.39301747217E+00  0.77704328317E+00  0.11799379265E+01  0.00000000000E+00 0. -1.
         11    1    3    3    0    0  0.21185722604E+01 -0.53713430731E+01 -0.17058712503E+02  0.18009423848E+02  0.51100000000E-03 0. -1.
        -11    1    3    3    0    0  0.25738635977E+02 -0.60175111688E+01 -0.12922691506E+02  0.29422504629E+02  0.51100000000E-03 0.  1.
         12    1    3    3    0    0 -0.28653445961E+02  0.11781871714E+02  0.29204360726E+02  0.42576133596E+02  0.00000000000E+00 0. -1.
</event>
<event>
 7    1  0.1971192E-015  0.9000769E+02  0.7816164E-02  0.1186339E+00
        -11   -1    0    0    0    0  0.00000000000E+00  0.00000000000E+00  0.45593999997E+02  0.45594000000E+02  0.51100000000E-03 0. -1.
         11   -1    0    0    0    0 -0.00000000000E+00 -0.00000000000E+00 -0.45593999997E+02  0.45594000000E+02  0.51100000000E-03 0.  1.
    9900012    2    1    2    0    0  0.86653460668E+00  0.32628806883E+00 -0.73198166054E+00  0.90007685093E+02  0.89999945736E+02 0.  0.
         12    1    1    2    0    0 -0.86653460668E+00 -0.32628806883E+00  0.73198166054E+00  0.11803149071E+01  0.00000000000E+00 0. -1.
         11    1    3    3    0    0 -0.33912987609E+02  0.21037047491E+01  0.18428206777E+02  0.38653785164E+02  0.51100000000E-03 0. -1.
        -11    1    3    3    0    0  0.50043752819E+01 -0.98254105014E+00  0.90123856439E+01  0.10355300775E+02  0.51100000000E-03 0.  1.
        -12    1    3    3    0    0  0.29775146934E+02 -0.79487563015E+00 -0.28172574082E+02  0.40998599154E+02  0.00000000000E+00 0.  1.
</event>
<event>
 7    1  0.1971192E-015  0.9000779E+02  0.7816164E-02  0.1186339E+00
        -11   -1    0    0    0    0  0.00000000000E+00  0.00000000000E+00  0.45593999997E+02  0.45594000000E+02  0.51100000000E-03 0.  1.
         11   -1    0    0    0    0 -0.00000000000E+00 -0.00000000000E+00 -0.45593999997E+02  0.45594000000E+02  0.51100000000E-03 0. -1.
    9900012    2    1    2    0    0 -0.45435441249E+00 -0.85620366998E+00  0.67333024546E+00  0.90007789732E+02  0.90000051757E+02 0.  0.
         12    1    1    2    0    0  0.45435441249E+00  0.85620366998E+00 -0.67333024546E+00  0.11802102677E+01  0.00000000000E+00 0. -1.
         11    1    3    3    0    0  0.13008423092E+02 -0.35201405332E+02  0.43245415960E+01  0.37776443307E+02  0.51100000000E-03 0. -1.
        -11    1    3    3    0    0  0.73123737959E+01 -0.40917686181E+01  0.84229991578E-01  0.83797658623E+01  0.51100000000E-03 0.  1.
        -12    1    3    3    0    0 -0.20775151300E+02  0.38436970280E+02 -0.37354413421E+01  0.43851580563E+02  0.00000000000E+00 0.  1.
</event>
<event>
 7    1  0.1971192E-015  0.9000794E+02  0.7816164E-02  0.1186339E+00
        -11   -1    0    0    0    0  0.00000000000E+00  0.00000000000E+00  0.45593999997E+02  0.45594000000E+02  0.51100000000E-03 0.  1.
         11   -1    0    0    0    0 -0.00000000000E+00 -0.00000000000E+00 -0.45593999997E+02  0.45594000000E+02  0.51100000000E-03 0. -1.
    9900012    2    1    2    0    0  0.10186993850E+01 -0.59313267351E+00  0.54558316308E-01  0.90007944317E+02  0.90000208382E+02 0.  0.
         12    1    1    2    0    0 -0.10186993850E+01  0.59313267351E+00 -0.54558316308E-01  0.11800556831E+01  0.00000000000E+00 0. -1.
         11    1    3    3    0    0  0.28044137051E+02  0.18216529834E+02  0.18765640966E+02  0.38346640834E+02  0.51100000000E-03 0. -1.
        -11    1    3    3    0    0  0.82266954316E+01 -0.22732164587E+01 -0.17582123615E+00  0.85367994097E+01  0.51100000000E-03 0.  1.
        -12    1    3    3    0    0 -0.35252133098E+02 -0.16536446049E+02 -0.18535261413E+02  0.43124504073E+02  0.00000000000E+00 0.  1.
</event>
<event>
 7    1  0.1971192E-015  0.9000772E+02  0.7816164E-02  0.1186339E+00
        -11   -1    0    0    0    0  0.00000000000E+00  0.00000000000E+00  0.45593999997E+02  0.45594000000E+02  0.51100000000E-03 0. -1.
         11   -1    0    0    0    0 -0.00000000000E+00 -0.00000000000E+00 -0.45593999997E+02  0.45594000000E+02  0.51100000000E-03 0.  1.
    9900012    2    1    2    0    0 -0.11707145087E+01  0.14956751878E+00  0.11353829284E-01  0.90007715368E+02  0.89999976411E+02 0.  0.
         12    1    1    2    0    0  0.11707145087E+01 -0.14956751878E+00 -0.11353829284E-01  0.11802846322E+01  0.00000000000E+00 0. -1.
         11    1    3    3    0    0  0.27846540945E+02 -0.23844367451E+02 -0.60358319418E+01  0.37153936120E+02  0.51100000000E-03 0. -1.
        -11    1    3    3    0    0  0.87986402705E+01  0.52630776625E+01  0.21325111477E+01  0.10472041881E+02  0.51100000000E-03 0.  1.
        -12    1    3    3    0    0 -0.37815895724E+02  0.18730857307E+02  0.39146746234E+01  0.42381737367E+02  0.00000000000E+00 0.  1.
</event>
<event>
 7    1  0.1971192E-015  0.9000769E+02  0.7816164E-02  0.1186339E+00
        -11   -1    0    0    0    0  0.00000000000E+00  0.00000000000E+00  0.45593999997E+02  0.45594000000E+02  0.51100000000E-03 0. -1.
         11   -1    0    0    0    0 -0.00000000000E+00 -0.00000000000E+00 -0.45593999997E+02  0.45594000000E+02  0.51100000000E-03 0.  1.
    9900012    2    1    2    0    0 -0.72222361735E-01 -0.26489385845E+00 -0.11479320834E+01  0.90007689493E+02  0.89999950194E+02 0.  0.
         12    1    1    2    0    0  0.72222361735E-01  0.26489385845E+00  0.11479320834E+01  0.11803105074E+01  0.00000000000E+00 0. -1.
         11    1    3    3    0    0 -0.59427302122E+01 -0.60520339287E+01  0.95861700834E+00  0.85359301707E+01  0.51100000000E-03 0. -1.
        -11    1    3    3    0    0  0.12908678719E+02 -0.36395792271E+02  0.57809352893E+00  0.38621520862E+02  0.51100000000E-03 0.  1.
         12    1    3    3    0    0 -0.70381708684E+01  0.42182932341E+02 -0.26846426207E+01  0.42850238460E+02  0.00000000000E+00 0. -1.
</event>
<event>
 8    1  0.1971192E-015  0.9000771E+02  0.7816164E-02  0.1186339E+00
        -11   -1    0    0    0    0  0.00000000000E+00  0.00000000000E+00  0.45593999997E+02  0.45594000000E+02  0.51100000000E-03 0. -1.
         11   -1    0    0    0    0 -0.00000000000E+00 -0.00000000000E+00 -0.45593999997E+02  0.45594000000E+02  0.51100000000E-03 0.  1.
    9900012    2    1    2    0    0 -0.10517737711E+01 -0.17487174419E+00 -0.50624409227E+00  0.90007707124E+02  0.89999968058E+02 0.  0.
         23    2    3    3    0    0 -0.13718634108E+02 -0.22228659910E+02  0.59573539696E+01  0.63766574847E+02  0.57865116938E+02 0.  0.
         12    1    1    2    0    0  0.10517737711E+01  0.17487174419E+00  0.50624409227E+00  0.11802928761E+01  0.00000000000E+00 0. -1.
         11    1    4    4    0    0 -0.18656431043E+02  0.10271106512E+02 -0.13834192814E+02  0.25395726792E+02  0.51100000000E-03 0.  1.
        -11    1    4    4    0    0  0.49377969354E+01 -0.32499766422E+02  0.19791546784E+02  0.38370848055E+02  0.51100000000E-03 0. -1.
         12    1    3    3    0    0  0.12666860337E+02  0.22053788166E+02 -0.64635980619E+01  0.26241132277E+02  0.00000000000E+00 0. -1.
</event>
<event>
 7    1  0.1971192E-015  0.9000796E+02  0.7816164E-02  0.1186339E+00
        -11   -1    0    0    0    0  0.00000000000E+00  0.00000000000E+00  0.45593999997E+02  0.45594000000E+02  0.51100000000E-03 0. -1.
         11   -1    0    0    0    0 -0.00000000000E+00 -0.00000000000E+00 -0.45593999997E+02  0.45594000000E+02  0.51100000000E-03 0.  1.
    9900012    2    1    2    0    0 -0.40356519896E+00 -0.82590342302E+00 -0.73994327363E+00  0.90007958737E+02  0.90000222992E+02 0.  0.
         12    1    1    2    0    0  0.40356519896E+00  0.82590342302E+00  0.73994327363E+00  0.11800412629E+01  0.00000000000E+00 0. -1.
         11    1    3    3    0    0 -0.10264408329E+02 -0.28433480226E+02  0.29273003920E+02  0.42080038437E+02  0.51100000000E-03 0. -1.
        -11    1    3    3    0    0  0.58501566462E+01 -0.25179030106E+01 -0.88108316072E+01  0.10871748812E+02  0.51100000000E-03 0.  1.
        -12    1    3    3    0    0  0.40106864835E+01  0.30125479814E+02 -0.21202115586E+02  0.37056171489E+02  0.00000000000E+00 0.  1.
</event>
<event>
 7    1  0.1971192E-015  0.9000770E+02  0.7816164E-02  0.1186339E+00
        -11   -1    0    0    0    0  0.00000000000E+00  0.00000000000E+00  0.45593999997E+02  0.45594000000E+02  0.51100000000E-03 0.  1.
         11   -1    0    0    0    0 -0.00000000000E+00 -0.00000000000E+00 -0.45593999997E+02  0.45594000000E+02  0.51100000000E-03 0. -1.
    9900012    2    1    2    0    0  0.49074880661E+00 -0.12000425178E+00  0.10667140492E+01  0.90007697380E+02  0.89999958186E+02 0.  0.
         12    1    1    2    0    0 -0.49074880661E+00  0.12000425178E+00 -0.10667140492E+01  0.11803026199E+01  0.00000000000E+00 0. -1.
         11    1    3    3    0    0 -0.81909257567E+01 -0.16192422204E+01 -0.59695617038E+01  0.10263960119E+02  0.51100000000E-03 0. -1.
        -11    1    3    3    0    0  0.15336419102E+02  0.30563817158E+02  0.27246329248E+02  0.43723164660E+02  0.51100000000E-03 0.  1.
         12    1    3    3    0    0 -0.66547445382E+01 -0.29064579189E+02 -0.20210053495E+02  0.36020572602E+02  0.00000000000E+00 0. -1.
</event>
<event>
 7    1  0.1971192E-015  0.9000778E+02  0.7816164E-02  0.1186339E+00
        -11   -1    0    0    0    0  0.00000000000E+00  0.00000000000E+00  0.45593999997E+02  0.45594000000E+02  0.51100000000E-03 0. -1.
         11   -1    0    0    0    0 -0.00000000000E+00 -0.00000000000E+00 -0.45593999997E+02  0.45594000000E+02  0.51100000000E-03 0.  1.
    9900012    2    1    2    0    0  0.10476245095E+01  0.53943982561E+00  0.66357209094E-01  0.90007781496E+02  0.90000043412E+02 0.  0.
         12    1    1    2    0    0 -0.10476245095E+01 -0.53943982561E+00 -0.66357209094E-01  0.11802185041E+01  0.00000000000E+00 0. -1.
         11    1    3    3    0    0 -0.33311139764E+02  0.77044493185E+01  0.12818074266E+02  0.36514293090E+02  0.51100000000E-03 0. -1.
        -11    1    3    3    0    0 -0.70195759272E+00  0.78920843184E+01  0.69595806471E+01  0.10545781261E+02  0.51100000000E-03 0.  1.
        -12    1    3    3    0    0  0.35060721867E+02 -0.15057093811E+02 -0.19711297704E+02  0.42947707145E+02  0.00000000000E+00 0.  1.
</event>
<event>
 7    1  0.1971192E-015  0.9000782E+02  0.7816164E-02  0.1186339E+00
        -11   -1    0    0    0    0  0.00000000000E+00  0.00000000000E+00  0.45593999997E+02  0.45594000000E+02  0.51100000000E-03 0. -1.
         11   -1    0    0    0    0 -0.00000000000E+00 -0.00000000000E+00 -0.45593999997E+02  0.45594000000E+02  0.51100000000E-03 0.  1.
    9900012    2    1    2    0    0  0.10949350921E+01  0.22779829099E+00  0.37690823968E+00  0.90007815803E+02  0.90000078172E+02 0.  0.
         12    1    1    2    0    0 -0.10949350921E+01 -0.22779829099E+00 -0.37690823968E+00  0.11801841969E+01  0.00000000000E+00 0. -1.
         11    1    3    3    0    0 -0.17843052370E+02  0.75126607137E+01  0.17369340152E+02  0.26009778285E+02  0.51100000000E-03 0. -1.
        -11    1    3    3    0    0 -0.13249007320E+02 -0.12117945500E+02 -0.24713144183E+02  0.30547017756E+02  0.51100000000E-03 0.  1.
        -12    1    3    3    0    0  0.32186994782E+02  0.48330830771E+01  0.77207122714E+01  0.33451019762E+02  0.00000000000E+00 0.  1.
</event>
<event>
 7    1  0.1971192E-015  0.9000775E+02  0.7816164E-02  0.1186339E+00
        -11   -1    0    0    0    0  0.00000000000E+00  0.00000000000E+00  0.45593999997E+02  0.45594000000E+02  0.51100000000E-03 0.  1.
         11   -1    0    0    0    0 -0.00000000000E+00 -0.00000000000E+00 -0.45593999997E+02  0.45594000000E+02  0.51100000000E-03 0. -1.
    9900012    2    1    2    0    0 -0.70806109980E+00  0.84653364906E+00 -0.41835800563E+00  0.90007748687E+02  0.90000010170E+02 0.  0.
         12    1    1    2    0    0  0.70806109980E+00 -0.84653364906E+00  0.41835800563E+00  0.11802513126E+01  0.00000000000E+00 0. -1.
         11    1    3    3    0    0 -0.20225340938E+01  0.17017638645E+01 -0.86554702539E+01  0.90500723748E+01  0.51100000000E-03 0. -1.
        -11    1    3    3    0    0 -0.10160950961E+02  0.38171247144E+02  0.78727864556E+01  0.40277410540E+02  0.51100000000E-03 0.  1.
         12    1    3    3    0    0  0.11475423955E+02 -0.39026477360E+02  0.36432579274E+00  0.40680265773E+02  0.00000000000E+00 0. -1.
</event>
<event>
 7    1  0.1971192E-015  0.9000754E+02  0.7816164E-02  0.1186339E+00
        -11   -1    0    0    0    0  0.00000000000E+00  0.00000000000E+00  0.45593999997E+02  0.45594000000E+02  0.51100000000E-03 0. -1.
         11   -1    0    0    0    0 -0.00000000000E+00 -0.00000000000E+00 -0.45593999997E+02  0.45594000000E+02  0.51100000000E-03 0.  1.
    9900012    2    1    2    0    0 -0.46828968279E+00 -0.72548809677E+00 -0.80489043516E+00  0.90007543809E+02  0.89999802587E+02 0.  0.
         12    1    1    2    0    0  0.46828968279E+00  0.72548809677E+00  0.80489043516E+00  0.11804561907E+01  0.00000000000E+00 0. -1.
         11    1    3    3    0    0 -0.26440389866E+02 -0.15640315878E+02  0.27758521726E+02  0.41403492917E+02  0.51100000000E-03 0. -1.
        -11    1    3    3    0    0  0.30496038626E+00  0.10234952524E+02 -0.44974133016E+00  0.10249366884E+02  0.51100000000E-03 0.  1.
        -12    1    3    3    0    0  0.25667139797E+02  0.46798752572E+01 -0.28113670831E+02  0.38354684008E+02  0.00000000000E+00 0.  1.
</event>
<event>
 7    1  0.1971192E-015  0.9000765E+02  0.7816164E-02  0.1186339E+00
        -11   -1    0    0    0    0  0.00000000000E+00  0.00000000000E+00  0.45593999997E+02  0.45594000000E+02  0.51100000000E-03 0. -1.
         11   -1    0    0    0    0 -0.00000000000E+00 -0.00000000000E+00 -0.45593999997E+02  0.45594000000E+02  0.51100000000E-03 0.  1.
    9900012    2    1    2    0    0  0.11796543552E+01 -0.24109561494E-01  0.32635038627E-01  0.90007648055E+02  0.89999908209E+02 0.  0.
         12    1    1    2    0    0 -0.11796543552E+01  0.24109561494E-01 -0.32635038627E-01  0.11803519451E+01  0.00000000000E+00 0. -1.
         11    1    3    3    0    0 -0.16805257517E+02 -0.19140766636E+02 -0.22014637088E+02  0.33666450273E+02  0.51100000000E-03 0. -1.
        -11    1    3    3    0    0 -0.42490345171E+01  0.12671787099E+02 -0.10081708828E+02  0.16741246542E+02  0.51100000000E-03 0.  1.
         12    1    3    3    0    0  0.22233946389E+02  0.64448699756E+01  0.32128980954E+02  0.39599951240E+02  0.00000000000E+00 0. -1.
</event>
<event>
 7    1  0.1971192E-015  0.9000780E+02  0.7816164E-02  0.1186339E+00
        -11   -1    0    0    0    0  0.00000000000E+00  0.00000000000E+00  0.45593999997E+02  0.45594000000E+02  0.51100000000E-03 0. -1.
         11   -1    0    0    0    0 -0.00000000000E+00 -0.00000000000E+00 -0.45593999997E+02  0.45594000000E+02  0.51100000000E-03 0.  1.
    9900012    2    1    2    0    0  0.91683265940E+00  0.71329365242E+00  0.20858980875E+00  0.90007796768E+02  0.90000058886E+02 0.  0.
         12    1    1    2    0    0 -0.91683265940E+00 -0.71329365242E+00 -0.20858980875E+00  0.11802032318E+01  0.00000000000E+00 0. -1.
         11    1    3    3    0    0  0.81439209887E+00  0.10323805340E+01 -0.80879520724E+01  0.81941450466E+01  0.51100000000E-03 0. -1.
        -11    1    3    3    0    0  0.10889723567E+02  0.39044990121E+02  0.54380926421E+01  0.40898290731E+02  0.51100000000E-03 0.  1.
         12    1    3    3    0    0 -0.10787283007E+02 -0.39364077002E+02  0.28584492390E+01  0.40915360990E+02  0.00000000000E+00 0. -1.
</event>
<event>
 7    1  0.1971192E-015  0.9000733E+02  0.7816164E-02  0.1186340E+00
        -11   -1    0    0    0    0  0.00000000000E+00  0.00000000000E+00  0.45593999997E+02  0.45594000000E+02  0.51100000000E-03 0.  1.
         11   -1    0    0    0    0 -0.00000000000E+00 -0.00000000000E+00 -0.45593999997E+02  0.45594000000E+02  0.51100000000E-03 0. -1.
    9900012    2    1    2    0    0 -0.16129934348E+00  0.97390233931E+00  0.64766695498E+00  0.90007332507E+02  0.89999588495E+02 0.  0.
         12    1    1    2    0    0  0.16129934348E+00 -0.97390233931E+00 -0.64766695498E+00  0.11806674931E+01  0.00000000000E+00 0. -1.
         11    1    3    3    0    0  0.66015390246E+01 -0.22702160830E+02 -0.20062574808E+02  0.31007665698E+02  0.51100000000E-03 0. -1.
        -11    1    3    3    0    0  0.33918721123E+01 -0.13332494987E+02 -0.27375153858E+01  0.14026910200E+02  0.51100000000E-03 0.  1.
        -12    1    3    3    0    0 -0.10154710480E+02  0.37008558156E+02  0.23447757148E+02  0.44972756609E+02  0.00000000000E+00 0.  1.
</event>
<event>
 7    1  0.1971192E-015  0.9000770E+02  0.7816164E-02  0.1186339E+00
        -11   -1    0    0    0    0  0.00000000000E+00  0.00000000000E+00  0.45593999997E+02  0.45594000000E+02  0.51100000000E-03 0. -1.
         11   -1    0    0    0    0 -0.00000000000E+00 -0.00000000000E+00 -0.45593999997E+02  0.45594000000E+02  0.51100000000E-03 0.  1.
    9900012    2    1    2    0    0 -0.10199979438E+01  0.52721389266E+00  0.27342060888E+00  0.90007699562E+02  0.89999960396E+02 0.  0.
         12    1    1    2    0    0  0.10199979438E+01 -0.52721389266E+00 -0.27342060888E+00  0.11803004377E+01  0.00000000000E+00 0. -1.
         11    1    3    3    0    0  0.16526272434E+02 -0.36909919856E+02  0.79228494484E+01  0.41209603346E+02  0.51100000000E-03 0. -1.
        -11    1    3    3    0    0  0.28890704368E+01 -0.68170728258E+00  0.30366963120E+01  0.42465253514E+01  0.51100000000E-03 0.  1.
        -12    1    3    3    0    0 -0.20435340815E+02  0.38118841031E+02 -0.10686125151E+02  0.44551570865E+02  0.00000000000E+00 0.  1.
</event>
<event>
 7    1  0.1971192E-015  0.9000773E+02  0.7816164E-02  0.1186339E+00
        -11   -1    0    0    0    0  0.00000000000E+00  0.00000000000E+00  0.45593999997E+02  0.45594000000E+02  0.51100000000E-03 0.  1.
         11   -1    0    0    0    0 -0.00000000000E+00 -0.00000000000E+00 -0.45593999997E+02  0.45594000000E+02  0.51100000000E-03 0. -1.
    9900012    2    1    2    0    0  0.77458240375E+00 -0.87746285067E+00  0.15203276264E+00  0.90007731846E+02  0.89999993106E+02 0.  0.
         12    1    1    2    0    0 -0.77458240375E+00  0.87746285067E+00 -0.15203276264E+00  0.11802681540E+01  0.00000000000E+00 0. -1.
         11    1    3    3    0    0 -0.10442554607E+01 -0.22870223736E+02 -0.28182050103E+02  0.36309303925E+02  0.51100000000E-03 0. -1.
        -11    1    3    3    0    0  0.52056036374E+01 -0.14191582062E+01 -0.84136345601E+01  0.99950770890E+01  0.51100000000E-03 0.  1.
        -12    1    3    3    0    0 -0.33867657729E+01  0.23411919092E+02  0.36747717426E+02  0.43703350832E+02  0.00000000000E+00 0.  1.
</event>
<event>
 7    1  0.1971192E-015  0.9000786E+02  0.7816164E-02  0.1186339E+00
        -11   -1    0    0    0    0  0.00000000000E+00  0.00000000000E+00  0.45593999997E+02  0.45594000000E+02  0.51100000000E-03 0. -1.
         11   -1    0    0    0    0 -0.00000000000E+00 -0.00000000000E+00 -0.45593999997E+02  0.45594000000E+02  0.51100000000E-03 0.  1.
    9900012    2    1    2    0    0 -0.36989487977E-01  0.38410409460E+00 -0.11152653815E+01  0.90007863970E+02  0.90000126975E+02 0.  0.
         12    1    1    2    0    0  0.36989487977E-01 -0.38410409460E+00  0.11152653815E+01  0.11801360298E+01  0.00000000000E+00 0. -1.
         11    1    3    3    0    0  0.16945001203E+01  0.36778284049E+02  0.30949394693E+01  0.36947153596E+02  0.51100000000E-03 0. -1.
        -11    1    3    3    0    0  0.85775820668E+01  0.47740960692E+01  0.24097063620E+01  0.10108095389E+02  0.51100000000E-03 0.  1.
        -12    1    3    3    0    0 -0.10309071675E+02 -0.41168276024E+02 -0.66199112128E+01  0.42952614985E+02  0.00000000000E+00 0.  1.
</event>
<event>
 7    1  0.1971192E-015  0.9000771E+02  0.7816164E-02  0.1186339E+00
        -11   -1    0    0    0    0  0.00000000000E+00  0.00000000000E+00  0.45593999997E+02  0.45594000000E+02  0.51100000000E-03 0.  1.
         11   -1    0    0    0    0 -0.00000000000E+00 -0.00000000000E+00 -0.45593999997E+02  0.45594000000E+02  0.51100000000E-03 0. -1.
    9900012    2    1    2    0    0  0.10644851976E+01  0.47978790869E+00  0.17251292808E+00  0.90007709407E+02  0.89999970371E+02 0.  0.
         12    1    1    2    0    0 -0.10644851976E+01 -0.47978790869E+00 -0.17251292808E+00  0.11802905929E+01  0.00000000000E+00 0. -1.
         11    1    3    3    0    0 -0.76554586690E+01  0.49421283926E+01  0.58862323174E+00  0.91311093549E+01  0.51100000000E-03 0. -1.
        -11    1    3    3    0    0  0.23530037690E+02 -0.23407466843E+02  0.28161686065E+02  0.43527608940E+02  0.51100000000E-03 0.  1.
         12    1    3    3    0    0 -0.14810093823E+02  0.18945126359E+02 -0.28577796369E+02  0.37348991113E+02  0.00000000000E+00 0. -1.
</event>
<event>
 7    1  0.1971192E-015  0.9000771E+02  0.7816164E-02  0.1186339E+00
        -11   -1    0    0    0    0  0.00000000000E+00  0.00000000000E+00  0.45593999997E+02  0.45594000000E+02  0.51100000000E-03 0. -1.
         11   -1    0    0    0    0 -0.00000000000E+00 -0.00000000000E+00 -0.45593999997E+02  0.45594000000E+02  0.51100000000E-03 0.  1.
    9900012    2    1    2    0    0  0.10523696992E+01 -0.52277003847E+00 -0.11093032025E+00  0.90007713580E+02  0.89999974599E+02 0.  0.
         12    1    1    2    0    0 -0.10523696992E+01  0.52277003847E+00  0.11093032025E+00  0.11802864199E+01  0.00000000000E+00 0. -1.
         11    1    3    3    0    0 -0.60045810194E+01  0.49772358409E+01 -0.61353850837E+01  0.99232464557E+01  0.51100000000E-03 0. -1.
        -11    1    3    3    0    0  0.36812401354E+02  0.16648035300E+02 -0.65256332084E+01  0.40925467154E+02  0.51100000000E-03 0.  1.
         12    1    3    3    0    0 -0.29755450635E+02 -0.22148041179E+02  0.12550087972E+02  0.39158999970E+02  0.00000000000E+00 0. -1.
</event>
<event>
 7    1  0.1971192E-015  0.9000775E+02  0.7816164E-02  0.1186339E+00
        -11   -1    0    0    0    0  0.00000000000E+00  0.00000000000E+00  0.45593999997E+02  0.45594000000E+02  0.51100000000E-03 0.  1.
         11   -1    0    0    0    0 -0.00000000000E+00 -0.00000000000E+00 -0.45593999997E+02  0.45594000000E+02  0.51100000000E-03 0. -1.
    9900012    2    1    2    0    0 -0.10657032521E+00 -0.10754915417E+01  0.47428516234E+00  0.90007751846E+02  0.90000013370E+02 0.  0.
         12    1    1    2    0    0  0.10657032521E+00  0.10754915417E+01 -0.47428516234E+00  0.11802481543E+01  0.00000000000E+00 0. -1.
         11    1    3    3    0    0 -0.66211160043E-01 -0.21204744148E+02 -0.35946072326E+02  0.41734466263E+02  0.51100000000E-03 0. -1.
        -11    1    3    3    0    0 -0.49065707970E+01 -0.34783546340E+01  0.21751287297E+01  0.63956683152E+01  0.51100000000E-03 0.  1.
        -12    1    3    3    0    0  0.48662116319E+01  0.23607607240E+02  0.34245228759E+02  0.41877617268E+02  0.00000000000E+00 0.  1.
</event>
<event>
 7    1  0.1971192E-015  0.9000778E+02  0.7816164E-02  0.1186339E+00
        -11   -1    0    0    0    0  0.00000000000E+00  0.00000000000E+00  0.45593999997E+02  0.45594000000E+02  0.51100000000E-03 0.  1.
         11   -1    0    0    0    0 -0.00000000000E+00 -0.00000000000E+00 -0.45593999997E+02  0.45594000000E+02  0.51100000000E-03 0. -1.
    9900012    2    1    2    0    0 -0.10275546094E+01  0.58594295672E-01  0.57759819697E+00  0.90007779070E+02  0.90000040954E+02 0.  0.
         12    1    1    2    0    0  0.10275546094E+01 -0.58594295672E-01 -0.57759819697E+00  0.11802209302E+01  0.00000000000E+00 0. -1.
         11    1    3    3    0    0  0.75906844475E+01  0.59364964043E+01 -0.67769935189E+01  0.11780837040E+02  0.51100000000E-03 0. -1.
        -11    1    3    3    0    0  0.13212700677E+02 -0.91629899341E+01  0.37534973130E+02  0.40833932603E+02  0.51100000000E-03 0.  1.
         12    1    3    3    0    0 -0.21830939734E+02  0.32850878254E+01 -0.30180381414E+02  0.37393009427E+02  0.00000000000E+00 0. -1.
</event>
<event>
 7    1  0.1971192E-015  0.9000798E+02  0.7816164E-02  0.1186339E+00
        -11   -1    0    0    0    0  0.00000000000E+00  0.00000000000E+00  0.45593999997E+02  0.45594000000E+02  0.51100000000E-03 0. -1.
         11   -1    0    0    0    0 -0.00000000000E+00 -0.00000000000E+00 -0.45593999997E+02  0.45594000000E+02  0.51100000000E-03 0.  1.
    9900012    2    1    2    0    0  0.74832794845E+00 -0.24658653387E+00  0.87843699173E+00  0.90007978311E+02  0.90000242825E+02 0.  0.
         12    1    1    2    0    0 -0.74832794845E+00  0.24658653387E+00 -0.87843699173E+00  0.11800216886E+01  0.00000000000E+00 0. -1.
         11    1    3    3    0    0 -0.43127981614E+01  0.65531337070E+01 -0.11703978425E+01  0.79318106844E+01  0.51100000000E-03 0. -1.
        -11    1    3    3    0    0 -0.15105193303E+02  0.25320396001E+02  0.24210190971E+02  0.38150002169E+02  0.51100000000E-03 0.  1.
         12    1    3    3    0    0  0.20166319413E+02 -0.32120116242E+02 -0.22161356136E+02  0.43926165458E+02  0.00000000000E+00 0. -1.
</event>
<event>
 7    1  0.1971192E-015  0.9000788E+02  0.7816164E-02  0.1186339E+00
        -11   -1    0    0    0    0  0.00000000000E+00  0.00000000000E+00  0.45593999997E+02  0.45594000000E+02  0.51100000000E-03 0.  1.
         11   -1    0    0    0    0 -0.00000000000E+00 -0.00000000000E+00 -0.45593999997E+02  0.45594000000E+02  0.51100000000E-03 0. -1.
    9900012    2    1    2    0    0 -0.10306247201E+01  0.52751615679E+00  0.22850971548E+00  0.90007882506E+02  0.90000145755E+02 0.  0.
         12    1    1    2    0    0  0.10306247201E+01 -0.52751615679E+00 -0.22850971548E+00  0.11801174939E+01  0.00000000000E+00 0. -1.
         11    1    3    3    0    0 -0.46518817648E+01 -0.23335266693E+02 -0.24889526638E+02  0.34433460647E+02  0.51100000000E-03 0. -1.
        -11    1    3    3    0    0  0.17021693194E+02  0.29763362178E+01 -0.35676891567E+01  0.17644404854E+02  0.51100000000E-03 0.  1.
        -12    1    3    3    0    0 -0.13400436150E+02  0.20886446632E+02  0.28685725510E+02  0.37930017005E+02  0.00000000000E+00 0.  1.
</event>
<event>
 7    1  0.1971192E-015  0.9000774E+02  0.7816164E-02  0.1186339E+00
        -11   -1    0    0    0    0  0.00000000000E+00  0.00000000000E+00  0.45593999997E+02  0.45594000000E+02  0.51100000000E-03 0.  1.
         11   -1    0    0    0    0 -0.00000000000E+00 -0.00000000000E+00 -0.45593999997E+02  0.45594000000E+02  0.51100000000E-03 0. -1.
    9900012    2    1    2    0    0 -0.56659056297E+00 -0.78505722583E+00  0.67502814363E+00  0.90007744643E+02  0.90000006072E+02 0.  0.
         12    1    1    2    0    0  0.56659056297E+00  0.78505722583E+00 -0.67502814363E+00  0.11802553574E+01  0.00000000000E+00 0. -1.
         11    1    3    3    0    0  0.32552364211E+01  0.80223859468E+01  0.39229976403E+01  0.95050066377E+01  0.51100000000E-03 0. -1.
        -11    1    3    3    0    0  0.33264185680E+02 -0.23200939545E+02 -0.36456673304E+01  0.40719535058E+02  0.51100000000E-03 0.  1.
         12    1    3    3    0    0 -0.37086012664E+02  0.14393496373E+02  0.39769783373E+00  0.39783202947E+02  0.00000000000E+00 0. -1.
</event>
<event>
 7    1  0.1971192E-015  0.9000775E+02  0.7816164E-02  0.1186339E+00
        -11   -1    0    0    0    0  0.00000000000E+00  0.00000000000E+00  0.45593999997E+02  0.45594000000E+02  0.51100000000E-03 0. -1.
         11   -1    0    0    0    0 -0.00000000000E+00 -0.00000000000E+00 -0.45593999997E+02  0.45594000000E+02  0.51100000000E-03 0.  1.
    9900012    2    1    2    0    0 -0.67039051370E+00 -0.77653788273E+00  0.58357551319E+00  0.90007747949E+02  0.90000009422E+02 0.  0.
         12    1    1    2    0    0  0.67039051370E+00  0.77653788273E+00 -0.58357551319E+00  0.11802520509E+01  0.00000000000E+00 0. -1.
         11    1    3    3    0    0  0.72800376177E+01  0.80050648353E+01  0.27463566467E-01  0.10820386557E+02  0.51100000000E-03 0. -1.
        -11    1    3    3    0    0  0.12802269993E+02 -0.62822531367E+01 -0.35083053678E+02  0.37870641360E+02  0.51100000000E-03 0.  1.
         12    1    3    3    0    0 -0.20752698125E+02 -0.24993495813E+01  0.35639165624E+02  0.41316720032E+02  0.00000000000E+00 0. -1.
</event>
<event>
 7    1  0.1971192E-015  0.9000779E+02  0.7816164E-02  0.1186339E+00
        -11   -1    0    0    0    0  0.00000000000E+00  0.00000000000E+00  0.45593999997E+02  0.45594000000E+02  0.51100000000E-03 0.  1.
         11   -1    0    0    0    0 -0.00000000000E+00 -0.00000000000E+00 -0.45593999997E+02  0.45594000000E+02  0.51100000000E-03 0. -1.
    9900012    2    1    2    0    0 -0.10142158620E+01 -0.48386807924E+00  0.36073076707E+00  0.90007792891E+02  0.90000054958E+02 0.  0.
         12    1    1    2    0    0  0.10142158620E+01  0.48386807924E+00 -0.36073076707E+00  0.11802071086E+01  0.00000000000E+00 0. -1.
         11    1    3    3    0    0 -0.20509814598E+02  0.89661767357E+01 -0.29555535374E+02  0.37075254437E+02  0.51100000000E-03 0. -1.
        -11    1    3    3    0    0 -0.55059212354E+01 -0.26307307416E+01 -0.60563227366E+01  0.85973808940E+01  0.51100000000E-03 0.  1.
        -12    1    3    3    0    0  0.25001519971E+02 -0.68193140734E+01  0.35972588878E+02  0.44335157560E+02  0.00000000000E+00 0.  1.
</event>
<event>
 7    1  0.1971192E-015  0.9000771E+02  0.7816164E-02  0.1186339E+00
        -11   -1    0    0    0    0  0.00000000000E+00  0.00000000000E+00  0.45593999997E+02  0.45594000000E+02  0.51100000000E-03 0.  1.
         11   -1    0    0    0    0 -0.00000000000E+00 -0.00000000000E+00 -0.45593999997E+02  0.45594000000E+02  0.51100000000E-03 0. -1.
    9900012    2    1    2    0    0  0.31164020531E+00  0.11223768830E+01  0.19037151834E+00  0.90007707324E+02  0.89999968261E+02 0.  0.
         12    1    1    2    0    0 -0.31164020531E+00 -0.11223768830E+01 -0.19037151834E+00  0.11802926756E+01  0.00000000000E+00 0. -1.
         11    1    3    3    0    0  0.27754151433E+01 -0.82455997760E+01  0.19606044935E+01  0.89183415008E+01  0.51100000000E-03 0. -1.
        -11    1    3    3    0    0  0.16181153281E+02 -0.24971018872E+02  0.20481832069E+02  0.36123218990E+02  0.51100000000E-03 0.  1.
         12    1    3    3    0    0 -0.18644928219E+02  0.34338995531E+02 -0.22252065044E+02  0.44966146834E+02  0.00000000000E+00 0. -1.
</event>
<event>
 7    1  0.1971192E-015  0.9000770E+02  0.7816164E-02  0.1186339E+00
        -11   -1    0    0    0    0  0.00000000000E+00  0.00000000000E+00  0.45593999997E+02  0.45594000000E+02  0.51100000000E-03 0. -1.
         11   -1    0    0    0    0 -0.00000000000E+00 -0.00000000000E+00 -0.45593999997E+02  0.45594000000E+02  0.51100000000E-03 0.  1.
    9900012    2    1    2    0    0  0.10160333452E-01 -0.10764333270E+01  0.48403866951E+00  0.90007701151E+02  0.89999962006E+02 0.  0.
         12    1    1    2    0    0 -0.10160333452E-01  0.10764333270E+01 -0.48403866951E+00  0.11802988492E+01  0.00000000000E+00 0. -1.
         11    1    3    3    0    0  0.69369697273E+01 -0.66911606955E+01 -0.64138652897E+01  0.11577169286E+02  0.51100000000E-03 0. -1.
        -11    1    3    3    0    0 -0.10482854156E+01  0.97327315833E+01 -0.34784001296E+02  0.36135186630E+02  0.51100000000E-03 0.  1.
         12    1    3    3    0    0 -0.58785239782E+01 -0.41180042148E+01  0.41681905255E+02  0.42295345235E+02  0.00000000000E+00 0. -1.
</event>
<event>
 7    1  0.1971192E-015  0.9000775E+02  0.7816164E-02  0.1186339E+00
        -11   -1    0    0    0    0  0.00000000000E+00  0.00000000000E+00  0.45593999997E+02  0.45594000000E+02  0.51100000000E-03 0. -1.
         11   -1    0    0    0    0 -0.00000000000E+00 -0.00000000000E+00 -0.45593999997E+02  0.45594000000E+02  0.51100000000E-03 0.  1.
    9900012    2    1    2    0    0  0.97220343998E-01 -0.68732055920E+00  0.95453427454E+00  0.90007747049E+02  0.90000008510E+02 0.  0.
         12    1    1    2    0    0 -0.97220343998E-01  0.68732055920E+00 -0.95453427454E+00  0.11802529507E+01  0.00000000000E+00 0. -1.
         11    1    3    3    0    0 -0.11964961707E+02  0.32120245773E+02 -0.36683737680E+01  0.34472125893E+02  0.51100000000E-03 0. -1.
        -11    1    3    3    0    0 -0.49559048559E+01  0.50409996614E+01 -0.93734950389E+01  0.11740318566E+02  0.51100000000E-03 0.  1.
        -12    1    3    3    0    0  0.17018086907E+02 -0.37848565994E+02  0.13996403081E+02  0.43795302591E+02  0.00000000000E+00 0.  1.
</event>
<event>
 7    1  0.1971192E-015  0.9000775E+02  0.7816164E-02  0.1186339E+00
        -11   -1    0    0    0    0  0.00000000000E+00  0.00000000000E+00  0.45593999997E+02  0.45594000000E+02  0.51100000000E-03 0.  1.
         11   -1    0    0    0    0 -0.00000000000E+00 -0.00000000000E+00 -0.45593999997E+02  0.45594000000E+02  0.51100000000E-03 0. -1.
    9900012    2    1    2    0    0 -0.24479531240E+00 -0.11436150076E+01  0.15880477768E+00  0.90007746219E+02  0.90000007669E+02 0.  0.
         12    1    1    2    0    0  0.24479531240E+00  0.11436150076E+01 -0.15880477768E+00  0.11802537812E+01  0.00000000000E+00 0. -1.
         11    1    3    3    0    0  0.46066557404E+01  0.72138402520E+01 -0.89135014690E+01  0.12357640430E+02  0.51100000000E-03 0. -1.
        -11    1    3    3    0    0  0.27728418330E+02 -0.55438594635E+01 -0.19398733677E+02  0.34291550408E+02  0.51100000000E-03 0.  1.
         12    1    3    3    0    0 -0.32579869383E+02 -0.28135957961E+01  0.28471039924E+02  0.43358555381E+02  0.00000000000E+00 0. -1.
</event>
<event>
 7    1  0.1971192E-015  0.9000773E+02  0.7816164E-02  0.1186339E+00
        -11   -1    0    0    0    0  0.00000000000E+00  0.00000000000E+00  0.45593999997E+02  0.45594000000E+02  0.51100000000E-03 0.  1.
         11   -1    0    0    0    0 -0.00000000000E+00 -0.00000000000E+00 -0.45593999997E+02  0.45594000000E+02  0.51100000000E-03 0. -1.
    9900012    2    1    2    0    0 -0.59273300949E+00  0.91183232670E+00  0.45855643166E+00  0.90007726890E+02  0.89999988085E+02 0.  0.
         12    1    1    2    0    0  0.59273300949E+00 -0.91183232670E+00 -0.45855643166E+00  0.11802731097E+01  0.00000000000E+00 0. -1.
         11    1    3    3    0    0 -0.31528003945E+02 -0.25648281355E+02 -0.14082912906E+01  0.40667341367E+02  0.51100000000E-03 0. -1.
        -11    1    3    3    0    0  0.87306448547E+01 -0.15593176567E+01 -0.82471833183E+01  0.12110807739E+02  0.51100000000E-03 0.  1.
        -12    1    3    3    0    0  0.22204626081E+02  0.28119431338E+02  0.10114031041E+02  0.37229577785E+02  0.00000000000E+00 0.  1.
</event>
<event>
 7    1  0.1971192E-015  0.9000781E+02  0.7816164E-02  0.1186339E+00
        -11   -1    0    0    0    0  0.00000000000E+00  0.00000000000E+00  0.45593999997E+02  0.45594000000E+02  0.51100000000E-03 0.  1.
         11   -1    0    0    0    0 -0.00000000000E+00 -0.00000000000E+00 -0.45593999997E+02  0.45594000000E+02  0.51100000000E-03 0. -1.
    9900012    2    1    2    0    0 -0.12492983801E+00 -0.11431006523E+01  0.26564957842E+00  0.90007806683E+02  0.90000068932E+02 0.  0.
         12    1    1    2    0    0  0.12492983801E+00  0.11431006523E+01 -0.26564957842E+00  0.11801933165E+01  0.00000000000E+00 0. -1.
         11    1    3    3    0    0  0.37270814961E+02 -0.76370740336E+01 -0.17999416053E+02  0.42088211250E+02  0.51100000000E-03 0. -1.
        -11    1    3    3    0    0  0.41351849343E+00  0.36861992390E+01  0.77234073277E+01  0.85679684514E+01  0.51100000000E-03 0.  1.
        -12    1    3    3    0    0 -0.37809263293E+02  0.28077741423E+01  0.10541658304E+02  0.39351626983E+02  0.00000000000E+00 0.  1.
</event>
<event>
 7    1  0.1971192E-015  0.9000774E+02  0.7816164E-02  0.1186339E+00
        -11   -1    0    0    0    0  0.00000000000E+00  0.00000000000E+00  0.45593999997E+02  0.45594000000E+02  0.51100000000E-03 0. -1.
         11   -1    0    0    0    0 -0.00000000000E+00 -0.00000000000E+00 -0.45593999997E+02  0.45594000000E+02  0.51100000000E-03 0.  1.
    9900012    2    1    2    0    0  0.96114911344E+00 -0.45786722409E+00 -0.50947119804E+00  0.90007741166E+02  0.90000002550E+02 0.  0.
         12    1    1    2    0    0 -0.96114911344E+00  0.45786722409E+00  0.50947119804E+00  0.11802588338E+01  0.00000000000E+00 0. -1.
         11    1    3    3    0    0  0.24836714188E+02  0.22149707691E+02  0.12591125425E+02  0.35581011259E+02  0.51100000000E-03 0. -1.
        -11    1    3    3    0    0  0.70838041021E+01 -0.10169067771E+00 -0.14486841221E+02  0.16126350808E+02  0.51100000000E-03 0.  1.
        -12    1    3    3    0    0 -0.30959369176E+02 -0.22505884237E+02  0.13862445977E+01  0.38300379100E+02  0.00000000000E+00 0.  1.
</event>
<event>
 7    1  0.1971192E-015  0.9000793E+02  0.7816164E-02  0.1186339E+00
        -11   -1    0    0    0    0  0.00000000000E+00  0.00000000000E+00  0.45593999997E+02  0.45594000000E+02  0.51100000000E-03 0.  1.
         11   -1    0    0    0    0 -0.00000000000E+00 -0.00000000000E+00 -0.45593999997E+02  0.45594000000E+02  0.51100000000E-03 0. -1.
    9900012    2    1    2    0    0 -0.11706897607E+00 -0.11731947743E+01 -0.49815008025E-01  0.90007926842E+02  0.90000190676E+02 0.  0.
         12    1    1    2    0    0  0.11706897607E+00  0.11731947743E+01  0.49815008025E-01  0.11800731581E+01  0.00000000000E+00 0. -1.
         11    1    3    3    0    0  0.50676268183E+01  0.13264076860E+02 -0.28175809661E+01  0.14476026364E+02  0.51100000000E-03 0. -1.
        -11    1    3    3    0    0 -0.50485789697E+01 -0.40982195487E+02 -0.14614395380E+02  0.43801929742E+02  0.51100000000E-03 0.  1.
         12    1    3    3    0    0 -0.13611682471E+00  0.26544923853E+02  0.17382161338E+02  0.31729970736E+02  0.00000000000E+00 0. -1.
</event>
<event>
 7    1  0.1971192E-015  0.9000767E+02  0.7816164E-02  0.1186339E+00
        -11   -1    0    0    0    0  0.00000000000E+00  0.00000000000E+00  0.45593999997E+02  0.45594000000E+02  0.51100000000E-03 0. -1.
         11   -1    0    0    0    0 -0.00000000000E+00 -0.00000000000E+00 -0.45593999997E+02  0.45594000000E+02  0.51100000000E-03 0.  1.
    9900012    2    1    2    0    0 -0.11749558105E+01  0.11101660560E+00  0.18134424956E-01  0.90007671783E+02  0.89999932250E+02 0.  0.
         12    1    1    2    0    0  0.11749558105E+01 -0.11101660560E+00 -0.18134424956E-01  0.11803282174E+01  0.00000000000E+00 0. -1.
         11    1    3    3    0    0 -0.18762900553E+02  0.28040486097E+02 -0.13091804070E+01  0.33764319204E+02  0.51100000000E-03 0. -1.
        -11    1    3    3    0    0 -0.25387729437E+01  0.77119888169E+00 -0.16641598630E+02  0.16851792812E+02  0.51100000000E-03 0.  1.
         12    1    3    3    0    0  0.20126717686E+02 -0.28700668373E+02  0.17968913462E+02  0.39391559767E+02  0.00000000000E+00 0. -1.
</event>
<event>
 7    1  0.1971192E-015  0.9000776E+02  0.7816164E-02  0.1186339E+00
        -11   -1    0    0    0    0  0.00000000000E+00  0.00000000000E+00  0.45593999997E+02  0.45594000000E+02  0.51100000000E-03 0.  1.
         11   -1    0    0    0    0 -0.00000000000E+00 -0.00000000000E+00 -0.45593999997E+02  0.45594000000E+02  0.51100000000E-03 0. -1.
    9900012    2    1    2    0    0 -0.45493770194E+00 -0.94626836167E+00  0.53904905447E+00  0.90007760190E+02  0.90000021825E+02 0.  0.
         12    1    1    2    0    0  0.45493770194E+00  0.94626836167E+00 -0.53904905447E+00  0.11802398096E+01  0.00000000000E+00 0. -1.
         11    1    3    3    0    0  0.32654447562E+02  0.42704459242E+00 -0.18434711856E+02  0.37501118838E+02  0.51100000000E-03 0. -1.
        -11    1    3    3    0    0  0.25767181031E+01 -0.76405126582E+01 -0.45974666519E+01  0.92818968826E+01  0.51100000000E-03 0.  1.
        -12    1    3    3    0    0 -0.35686103367E+02  0.62671997041E+01  0.23571227562E+02  0.43224744469E+02  0.00000000000E+00 0.  1.
</event>
<event>
 7    1  0.1971192E-015  0.9000780E+02  0.7816164E-02  0.1186339E+00
        -11   -1    0    0    0    0  0.00000000000E+00  0.00000000000E+00  0.45593999997E+02  0.45594000000E+02  0.51100000000E-03 0. -1.
         11   -1    0    0    0    0 -0.00000000000E+00 -0.00000000000E+00 -0.45593999997E+02  0.45594000000E+02  0.51100000000E-03 0.  1.
    9900012    2    1    2    0    0  0.10071837571E+01 -0.47840878220E+00  0.38673823248E+00  0.90007804870E+02  0.90000067095E+02 0.  0.
         12    1    1    2    0    0 -0.10071837571E+01  0.47840878220E+00 -0.38673823248E+00  0.11801951296E+01  0.00000000000E+00 0. -1.
         11    1    3    3    0    0 -0.19258044803E+01 -0.79380888097E+01 -0.90512209835E+01  0.12192070308E+02  0.51100000000E-03 0. -1.
        -11    1    3    3    0    0 -0.76521025044E+01 -0.29135169062E+02 -0.13862516866E+02  0.33159947574E+02  0.51100000000E-03 0.  1.
         12    1    3    3    0    0  0.10585090742E+02  0.36594849090E+02  0.23300476081E+02  0.44655786988E+02  0.00000000000E+00 0. -1.
</event>
<event>
 7    1  0.1971192E-015  0.9000776E+02  0.7816164E-02  0.1186339E+00
        -11   -1    0    0    0    0  0.00000000000E+00  0.00000000000E+00  0.45593999997E+02  0.45594000000E+02  0.51100000000E-03 0.  1.
         11   -1    0    0    0    0 -0.00000000000E+00 -0.00000000000E+00 -0.45593999997E+02  0.45594000000E+02  0.51100000000E-03 0. -1.
    9900012    2    1    2    0    0  0.10015700766E+01  0.43725744030E+00 -0.44567276871E+00  0.90007762353E+02  0.90000024016E+02 0.  0.
         12    1    1    2    0    0 -0.10015700766E+01 -0.43725744030E+00  0.44567276871E+00  0.11802376474E+01  0.00000000000E+00 0. -1.
         11    1    3    3    0    0  0.89408813347E+01  0.42828922314E+00  0.39040642635E+01  0.97654753461E+01  0.51100000000E-03 0. -1.
        -11    1    3    3    0    0 -0.18619602444E+02 -0.26647659052E+02  0.23598425434E+02  0.40170549055E+02  0.51100000000E-03 0.  1.
         12    1    3    3    0    0  0.10680291186E+02  0.26656627270E+02 -0.27948162466E+02  0.40071737951E+02  0.00000000000E+00 0. -1.
</event>
<event>
 7    1  0.1971192E-015  0.9000779E+02  0.7816164E-02  0.1186339E+00
        -11   -1    0    0    0    0  0.00000000000E+00  0.00000000000E+00  0.45593999997E+02  0.45594000000E+02  0.51100000000E-03 0.  1.
         11   -1    0    0    0    0 -0.00000000000E+00 -0.00000000000E+00 -0.45593999997E+02  0.45594000000E+02  0.51100000000E-03 0. -1.
    9900012    2    1    2    0    0 -0.84965382226E+00 -0.70120446730E+00  0.42344565369E+00  0.90007785806E+02  0.90000047778E+02 0.  0.
         12    1    1    2    0    0  0.84965382226E+00  0.70120446730E+00 -0.42344565369E+00  0.11802141942E+01  0.00000000000E+00 0. -1.
         11    1    3    3    0    0  0.54479657065E+01  0.64525694111E+01  0.40630162828E+01  0.93714504704E+01  0.51100000000E-03 0. -1.
        -11    1    3    3    0    0  0.31420764900E+02  0.12835050693E+02  0.10727152067E+02  0.35595993944E+02  0.51100000000E-03 0.  1.
         12    1    3    3    0    0 -0.37718384428E+02 -0.19988824571E+02 -0.14366722696E+02  0.45040341391E+02  0.00000000000E+00 0. -1.
</event>
<event>
 7    1  0.1971192E-015  0.9000776E+02  0.7816164E-02  0.1186339E+00
        -11   -1    0    0    0    0  0.00000000000E+00  0.00000000000E+00  0.45593999997E+02  0.45594000000E+02  0.51100000000E-03 0.  1.
         11   -1    0    0    0    0 -0.00000000000E+00 -0.00000000000E+00 -0.45593999997E+02  0.45594000000E+02  0.51100000000E-03 0. -1.
    9900012    2    1    2    0    0  0.37380814728E+00  0.22023703179E+00  0.10976063480E+01  0.90007755713E+02  0.90000017289E+02 0.  0.
         12    1    1    2    0    0 -0.37380814728E+00 -0.22023703179E+00 -0.10976063480E+01  0.11802442867E+01  0.00000000000E+00 0. -1.
         11    1    3    3    0    0  0.52253499057E+01 -0.32868870151E+02 -0.16856440420E+02  0.37306922823E+02  0.51100000000E-03 0. -1.
        -11    1    3    3    0    0  0.15685458638E+01 -0.72417896579E+01  0.75051425257E+01  0.10546611691E+02  0.51100000000E-03 0.  1.
        -12    1    3    3    0    0 -0.64200876223E+01  0.40330896841E+02  0.10448904242E+02  0.42154221199E+02  0.00000000000E+00 0.  1.
</event>
<event>
 7    1  0.1971192E-015  0.9000783E+02  0.7816164E-02  0.1186339E+00
        -11   -1    0    0    0    0  0.00000000000E+00  0.00000000000E+00  0.45593999997E+02  0.45594000000E+02  0.51100000000E-03 0. -1.
         11   -1    0    0    0    0 -0.00000000000E+00 -0.00000000000E+00 -0.45593999997E+02  0.45594000000E+02  0.51100000000E-03 0.  1.
    9900012    2    1    2    0    0 -0.89920363761E+00  0.76293855597E+00  0.46438460215E-01  0.90007830964E+02  0.90000093533E+02 0.  0.
         12    1    1    2    0    0  0.89920363761E+00 -0.76293855597E+00 -0.46438460215E-01  0.11801690356E+01  0.00000000000E+00 0. -1.
         11    1    3    3    0    0  0.15059877044E+02  0.13392113601E+02 -0.15419808490E+01  0.20212033754E+02  0.51100000000E-03 0. -1.
        -11    1    3    3    0    0  0.77687691150E-01  0.93411140866E+01 -0.28051789120E+02  0.29566286897E+02  0.51100000000E-03 0.  1.
        -12    1    3    3    0    0 -0.16036768373E+02 -0.21970289131E+02  0.29640208429E+02  0.40229510314E+02  0.00000000000E+00 0.  1.
</event>
<event>
 7    1  0.1971192E-015  0.9000781E+02  0.7816164E-02  0.1186339E+00
        -11   -1    0    0    0    0  0.00000000000E+00  0.00000000000E+00  0.45593999997E+02  0.45594000000E+02  0.51100000000E-03 0.  1.
         11   -1    0    0    0    0 -0.00000000000E+00 -0.00000000000E+00 -0.45593999997E+02  0.45594000000E+02  0.51100000000E-03 0. -1.
    9900012    2    1    2    0    0 -0.12933267438E+00 -0.33790156354E+00  0.11233597013E+01  0.90007812970E+02  0.90000075301E+02 0.  0.
         12    1    1    2    0    0  0.12933267438E+00  0.33790156354E+00 -0.11233597013E+01  0.11801870300E+01  0.00000000000E+00 0. -1.
         11    1    3    3    0    0 -0.34757184305E+01 -0.22173733121E+02 -0.78866989205E+01  0.23789810408E+02  0.51100000000E-03 0. -1.
        -11    1    3    3    0    0  0.31916412185E+02  0.12530595423E+02  0.11252411044E+02  0.36087254578E+02  0.51100000000E-03 0.  1.
         12    1    3    3    0    0 -0.28570026429E+02  0.93052361344E+01 -0.22423524222E+01  0.30130747984E+02  0.00000000000E+00 0. -1.
</event>
<event>
 7    1  0.1971192E-015  0.9000740E+02  0.7816164E-02  0.1186340E+00
        -11   -1    0    0    0    0  0.00000000000E+00  0.00000000000E+00  0.45593999997E+02  0.45594000000E+02  0.51100000000E-03 0. -1.
         11   -1    0    0    0    0 -0.00000000000E+00 -0.00000000000E+00 -0.45593999997E+02  0.45594000000E+02  0.51100000000E-03 0.  1.
    9900012    2    1    2    0    0 -0.42328337589E+00  0.77117235759E+00  0.78736497942E+00  0.90007398784E+02  0.89999655647E+02 0.  0.
         12    1    1    2    0    0  0.42328337589E+00 -0.77117235759E+00 -0.78736497942E+00  0.11806012164E+01  0.00000000000E+00 0. -1.
         11    1    3    3    0    0  0.18440579019E+01  0.84023349291E+00  0.11874644698E+02  0.12046315986E+02  0.51100000000E-03 0. -1.
        -11    1    3    3    0    0 -0.33832847654E+02 -0.13310185602E+00  0.15001487640E+02  0.37009781520E+02  0.51100000000E-03 0.  1.
         12    1    3    3    0    0  0.31565506376E+02  0.64040720697E-01 -0.26088767359E+02  0.40951301277E+02  0.00000000000E+00 0. -1.
</event>
<event>
 7    1  0.1971192E-015  0.9000778E+02  0.7816164E-02  0.1186339E+00
        -11   -1    0    0    0    0  0.00000000000E+00  0.00000000000E+00  0.45593999997E+02  0.45594000000E+02  0.51100000000E-03 0.  1.
         11   -1    0    0    0    0 -0.00000000000E+00 -0.00000000000E+00 -0.45593999997E+02  0.45594000000E+02  0.51100000000E-03 0. -1.
    9900012    2    1    2    0    0 -0.17291949806E+00 -0.50475220697E+00  0.10527350594E+01  0.90007776695E+02  0.90000038548E+02 0.  0.
         12    1    1    2    0    0  0.17291949806E+00  0.50475220697E+00 -0.10527350594E+01  0.11802233045E+01  0.00000000000E+00 0. -1.
         11    1    3    3    0    0  0.14488223563E+02  0.95549491634E+01 -0.29317397048E+02  0.34069274214E+02  0.51100000000E-03 0. -1.
        -11    1    3    3    0    0  0.26604825822E+01  0.28318815400E+01 -0.96843306137E+01  0.10434748695E+02  0.51100000000E-03 0.  1.
        -12    1    3    3    0    0 -0.17321625643E+02 -0.12891582910E+02  0.40054462721E+02  0.45503753787E+02  0.00000000000E+00 0.  1.
</event>
<event>
 7    1  0.1971192E-015  0.9000776E+02  0.7816164E-02  0.1186339E+00
        -11   -1    0    0    0    0  0.00000000000E+00  0.00000000000E+00  0.45593999997E+02  0.45594000000E+02  0.51100000000E-03 0.  1.
         11   -1    0    0    0    0 -0.00000000000E+00 -0.00000000000E+00 -0.45593999997E+02  0.45594000000E+02  0.51100000000E-03 0. -1.
    9900012    2    1    2    0    0 -0.93712290261E+00 -0.49989255249E+00  0.51465359965E+00  0.90007762640E+02  0.90000024307E+02 0.  0.
         12    1    1    2    0    0  0.93712290261E+00  0.49989255249E+00 -0.51465359965E+00  0.11802373601E+01  0.00000000000E+00 0. -1.
         11    1    3    3    0    0  0.35754194069E+01  0.69843733287E+00 -0.10264484865E+02  0.10891789956E+02  0.51100000000E-03 0. -1.
        -11    1    3    3    0    0 -0.19900790413E+02 -0.34266699975E+02 -0.38608705420E+01  0.39813998893E+02  0.51100000000E-03 0.  1.
         12    1    3    3    0    0  0.15388248104E+02  0.33068370090E+02  0.14640009007E+02  0.39301973790E+02  0.00000000000E+00 0. -1.
</event>
<event>
 7    1  0.1971192E-015  0.9000774E+02  0.7816164E-02  0.1186339E+00
        -11   -1    0    0    0    0  0.00000000000E+00  0.00000000000E+00  0.45593999997E+02  0.45594000000E+02  0.51100000000E-03 0. -1.
         11   -1    0    0    0    0 -0.00000000000E+00 -0.00000000000E+00 -0.45593999997E+02  0.45594000000E+02  0.51100000000E-03 0.  1.
    9900012    2    1    2    0    0 -0.11759637825E+01  0.17312835738E-01 -0.99126045261E-01  0.90007738790E+02  0.90000000142E+02 0.  0.
         12    1    1    2    0    0  0.11759637825E+01 -0.17312835738E-01  0.99126045261E-01  0.11802612105E+01  0.00000000000E+00 0. -1.
         11    1    3    3    0    0  0.99901224001E+01  0.35365991984E+02 -0.15699951959E+02  0.39963038253E+02  0.51100000000E-03 0. -1.
        -11    1    3    3    0    0 -0.80812343699E+01  0.23305880653E+01 -0.15140097289E+01  0.85457717844E+01  0.51100000000E-03 0.  1.
        -12    1    3    3    0    0 -0.30848518127E+01 -0.37679267214E+02  0.17114835643E+02  0.41498928752E+02  0.00000000000E+00 0.  1.
</event>
<event>
 7    1  0.1971192E-015  0.9000781E+02  0.7816164E-02  0.1186339E+00
        -11   -1    0    0    0    0  0.00000000000E+00  0.00000000000E+00  0.45593999997E+02  0.45594000000E+02  0.51100000000E-03 0. -1.
         11   -1    0    0    0    0 -0.00000000000E+00 -0.00000000000E+00 -0.45593999997E+02  0.45594000000E+02  0.51100000000E-03 0.  1.
    9900012    2    1    2    0    0  0.11023256178E+01 -0.16493408743E+00  0.38797253138E+00  0.90007810309E+02  0.90000072605E+02 0.  0.
         12    1    1    2    0    0 -0.11023256178E+01  0.16493408743E+00 -0.38797253138E+00  0.11801896907E+01  0.00000000000E+00 0. -1.
         11    1    3    3    0    0 -0.31949233013E+02 -0.50132599902E+01 -0.25158316793E+02  0.40973493504E+02  0.51100000000E-03 0. -1.
        -11    1    3    3    0    0 -0.25503245850E+01 -0.25491844757E+01  0.77561420582E+01  0.85533757586E+01  0.51100000000E-03 0.  1.
        -12    1    3    3    0    0  0.35601883215E+02  0.73975103784E+01  0.17790147266E+02  0.40480941047E+02  0.00000000000E+00 0.  1.
</event>
<event>
 7    1  0.1971192E-015  0.9000782E+02  0.7816164E-02  0.1186339E+00
        -11   -1    0    0    0    0  0.00000000000E+00  0.00000000000E+00  0.45593999997E+02  0.45594000000E+02  0.51100000000E-03 0.  1.
         11   -1    0    0    0    0 -0.00000000000E+00 -0.00000000000E+00 -0.45593999997E+02  0.45594000000E+02  0.51100000000E-03 0. -1.
    9900012    2    1    2    0    0 -0.13550347245E+00 -0.38968619444E+00  0.11057205270E+01  0.90007815944E+02  0.90000078315E+02 0.  0.
         12    1    1    2    0    0  0.13550347245E+00  0.38968619444E+00 -0.11057205270E+01  0.11801840555E+01  0.00000000000E+00 0. -1.
         11    1    3    3    0    0 -0.10373394777E+02  0.23582261397E+02 -0.23236735654E+02  0.34694037757E+02  0.51100000000E-03 0. -1.
        -11    1    3    3    0    0 -0.12554450457E+02 -0.82865428163E+01 -0.41432901039E+01  0.15602816132E+02  0.51100000000E-03 0.  1.
        -12    1    3    3    0    0  0.22792341761E+02 -0.15685404775E+02  0.28485746285E+02  0.39710962055E+02  0.00000000000E+00 0.  1.
</event>
<event>
 7    1  0.1971192E-015  0.9000775E+02  0.7816164E-02  0.1186339E+00
        -11   -1    0    0    0    0  0.00000000000E+00  0.00000000000E+00  0.45593999997E+02  0.45594000000E+02  0.51100000000E-03 0.  1.
         11   -1    0    0    0    0 -0.00000000000E+00 -0.00000000000E+00 -0.45593999997E+02  0.45594000000E+02  0.51100000000E-03 0. -1.
    9900012    2    1    2    0    0 -0.26065330982E+00 -0.11384390741E+01  0.17027837136E+00  0.90007754942E+02  0.90000016507E+02 0.  0.
         12    1    1    2    0    0  0.26065330982E+00  0.11384390741E+01 -0.17027837136E+00  0.11802450581E+01  0.00000000000E+00 0. -1.
         11    1    3    3    0    0  0.20234230228E+02 -0.30620524533E+02 -0.11235560007E+02  0.38383308931E+02  0.51100000000E-03 0. -1.
        -11    1    3    3    0    0  0.87817053133E+01 -0.20095654471E-01  0.22303381422E+01  0.90605276079E+01  0.51100000000E-03 0.  1.
        -12    1    3    3    0    0 -0.29276588851E+02  0.29502181113E+02  0.91755002358E+01  0.42563918403E+02  0.00000000000E+00 0.  1.
</event>
<event>
 7    1  0.1971192E-015  0.9000771E+02  0.7816164E-02  0.1186339E+00
        -11   -1    0    0    0    0  0.00000000000E+00  0.00000000000E+00  0.45593999997E+02  0.45594000000E+02  0.51100000000E-03 0. -1.
         11   -1    0    0    0    0 -0.00000000000E+00 -0.00000000000E+00 -0.45593999997E+02  0.45594000000E+02  0.51100000000E-03 0.  1.
    9900012    2    1    2    0    0  0.11232301142E+01  0.35735110387E+00  0.61112972352E-01  0.90007711689E+02  0.89999972684E+02 0.  0.
         12    1    1    2    0    0 -0.11232301142E+01 -0.35735110387E+00 -0.61112972352E-01  0.11802883106E+01  0.00000000000E+00 0. -1.
         11    1    3    3    0    0 -0.88390274357E+01 -0.38701836908E+01  0.10365262278E+02  0.14161404950E+02  0.51100000000E-03 0. -1.
        -11    1    3    3    0    0  0.27518657741E+02 -0.24896193894E+02  0.68852179544E+01  0.37742591602E+02  0.51100000000E-03 0.  1.
         12    1    3    3    0    0 -0.17556400191E+02  0.29123728689E+02 -0.17189367260E+02  0.38103715137E+02  0.00000000000E+00 0. -1.
</event>
<event>
 7    1  0.1971192E-015  0.9000772E+02  0.7816164E-02  0.1186339E+00
        -11   -1    0    0    0    0  0.00000000000E+00  0.00000000000E+00  0.45593999997E+02  0.45594000000E+02  0.51100000000E-03 0. -1.
         11   -1    0    0    0    0 -0.00000000000E+00 -0.00000000000E+00 -0.45593999997E+02  0.45594000000E+02  0.51100000000E-03 0.  1.
    9900012    2    1    2    0    0  0.10776683032E+01 -0.27805771141E+00 -0.39289760635E+00  0.90007723087E+02  0.89999984232E+02 0.  0.
         12    1    1    2    0    0 -0.10776683032E+01  0.27805771141E+00  0.39289760635E+00  0.11802769131E+01  0.00000000000E+00 0. -1.
         11    1    3    3    0    0  0.18622098903E+02  0.28526038876E+02  0.12508263214E+02  0.36290137923E+02  0.51100000000E-03 0. -1.
        -11    1    3    3    0    0  0.31647891082E+01  0.79666621871E+01  0.22772285481E+01  0.88695753351E+01  0.51100000000E-03 0.  1.
        -12    1    3    3    0    0 -0.20709219708E+02 -0.36770758775E+02 -0.15178389369E+02  0.44848009829E+02  0.00000000000E+00 0.  1.
</event>
<event>
 7    1  0.1971192E-015  0.9000764E+02  0.7816164E-02  0.1186339E+00
        -11   -1    0    0    0    0  0.00000000000E+00  0.00000000000E+00  0.45593999997E+02  0.45594000000E+02  0.51100000000E-03 0. -1.
         11   -1    0    0    0    0 -0.00000000000E+00 -0.00000000000E+00 -0.45593999997E+02  0.45594000000E+02  0.51100000000E-03 0.  1.
    9900012    2    1    2    0    0 -0.76595584776E+00  0.78335061209E+00 -0.43923579215E+00  0.90007637927E+02  0.89999897948E+02 0.  0.
         12    1    1    2    0    0  0.76595584776E+00 -0.78335061209E+00  0.43923579215E+00  0.11803620730E+01  0.00000000000E+00 0. -1.
         11    1    3    3    0    0 -0.56825227640E+01 -0.89190768473E+01  0.24492645174E+01  0.10855408500E+02  0.51100000000E-03 0. -1.
        -11    1    3    3    0    0  0.21759788847E+02 -0.38976773126E+01 -0.34418220799E+02  0.40905919160E+02  0.51100000000E-03 0.  1.
         12    1    3    3    0    0 -0.16843221931E+02  0.13600104772E+02  0.31529720490E+02  0.38246310266E+02  0.00000000000E+00 0. -1.
</event>
<event>
 7    1  0.1971192E-015  0.9000773E+02  0.7816164E-02  0.1186339E+00
        -11   -1    0    0    0    0  0.00000000000E+00  0.00000000000E+00  0.45593999997E+02  0.45594000000E+02  0.51100000000E-03 0. -1.
         11   -1    0    0    0    0 -0.00000000000E+00 -0.00000000000E+00 -0.45593999997E+02  0.45594000000E+02  0.51100000000E-03 0.  1.
    9900012    2    1    2    0    0  0.11193828711E+01  0.27425232833E+00  0.25458750870E+00  0.90007725815E+02  0.89999986996E+02 0.  0.
         12    1    1    2    0    0 -0.11193828711E+01 -0.27425232833E+00 -0.25458750870E+00  0.11802741848E+01  0.00000000000E+00 0. -1.
         11    1    3    3    0    0  0.12512138821E+01  0.82911279649E+01  0.27074181584E+01  0.88112684930E+01  0.51100000000E-03 0. -1.
        -11    1    3    3    0    0  0.19975062524E+02 -0.33895975864E+02 -0.19877350773E+02  0.44080033764E+02  0.51100000000E-03 0.  1.
         12    1    3    3    0    0 -0.20106893535E+02  0.25879100228E+02  0.17424520124E+02  0.37116423558E+02  0.00000000000E+00 0. -1.
</event>
<event>
 7    1  0.1971192E-015  0.9000766E+02  0.7816164E-02  0.1186339E+00
        -11   -1    0    0    0    0  0.00000000000E+00  0.00000000000E+00  0.45593999997E+02  0.45594000000E+02  0.51100000000E-03 0.  1.
         11   -1    0    0    0    0 -0.00000000000E+00 -0.00000000000E+00 -0.45593999997E+02  0.45594000000E+02  0.51100000000E-03 0. -1.
    9900012    2    1    2    0    0 -0.64105369302E+00  0.97552068002E+00  0.17493215412E+00  0.90007664585E+02  0.89999924957E+02 0.  0.
         12    1    1    2    0    0  0.64105369302E+00 -0.97552068002E+00 -0.17493215412E+00  0.11803354155E+01  0.00000000000E+00 0. -1.
         11    1    3    3    0    0 -0.23165297141E+02 -0.25877713071E+02  0.39280598775E+01  0.34953063958E+02  0.51100000000E-03 0. -1.
        -11    1    3    3    0    0 -0.10315128586E+02  0.62561512525E+01  0.80854407905E+01  0.14522935629E+02  0.51100000000E-03 0.  1.
        -12    1    3    3    0    0  0.32839372034E+02  0.20597082499E+02 -0.11838568514E+02  0.40531664998E+02  0.00000000000E+00 0.  1.
</event>
<event>
 7    1  0.1971192E-015  0.9000805E+02  0.7816164E-02  0.1186338E+00
        -11   -1    0    0    0    0  0.00000000000E+00  0.00000000000E+00  0.45593999997E+02  0.45594000000E+02  0.51100000000E-03 0.  1.
         11   -1    0    0    0    0 -0.00000000000E+00 -0.00000000000E+00 -0.45593999997E+02  0.45594000000E+02  0.51100000000E-03 0. -1.
    9900012    2    1    2    0    0 -0.55705645930E+00  0.36589855299E+00  0.97370287309E+00  0.90008046215E+02  0.90000311624E+02 0.  0.
         12    1    1    2    0    0  0.55705645930E+00 -0.36589855299E+00 -0.97370287309E+00  0.11799537851E+01  0.00000000000E+00 0. -1.
         11    1    3    3    0    0 -0.26560115385E+02 -0.12393572572E+02 -0.25764420595E+02  0.39023656149E+02  0.51100000000E-03 0. -1.
        -11    1    3    3    0    0 -0.17120684413E+01 -0.47279979465E+01 -0.37120387218E+01  0.62501499713E+01  0.51100000000E-03 0.  1.
        -12    1    3    3    0    0  0.27715127366E+02  0.17487469071E+02  0.30450162190E+02  0.44734240095E+02  0.00000000000E+00 0.  1.
</event>
<event>
 7    1  0.1971192E-015  0.9000776E+02  0.7816164E-02  0.1186339E+00
        -11   -1    0    0    0    0  0.00000000000E+00  0.00000000000E+00  0.45593999997E+02  0.45594000000E+02  0.51100000000E-03 0. -1.
         11   -1    0    0    0    0 -0.00000000000E+00 -0.00000000000E+00 -0.45593999997E+02  0.45594000000E+02  0.51100000000E-03 0.  1.
    9900012    2    1    2    0    0 -0.42083515183E+00 -0.53042123620E+00 -0.96670376294E+00  0.90007760584E+02  0.90000022224E+02 0.  0.
         12    1    1    2    0    0  0.42083515183E+00  0.53042123620E+00  0.96670376294E+00  0.11802394156E+01  0.00000000000E+00 0. -1.
         11    1    3    3    0    0 -0.65534014537E+01 -0.59446080579E+01  0.45115576373E+01  0.99317464804E+01  0.51100000000E-03 0. -1.
        -11    1    3    3    0    0  0.29671628182E+02 -0.15329268141E+02  0.20633157014E+02  0.39257090434E+02  0.51100000000E-03 0.  1.
         12    1    3    3    0    0 -0.23539061880E+02  0.20743454963E+02 -0.26111418414E+02  0.40818923670E+02  0.00000000000E+00 0. -1.
</event>
<event>
 7    1  0.1971192E-015  0.9000775E+02  0.7816164E-02  0.1186339E+00
        -11   -1    0    0    0    0  0.00000000000E+00  0.00000000000E+00  0.45593999997E+02  0.45594000000E+02  0.51100000000E-03 0. -1.
         11   -1    0    0    0    0 -0.00000000000E+00 -0.00000000000E+00 -0.45593999997E+02  0.45594000000E+02  0.51100000000E-03 0.  1.
    9900012    2    1    2    0    0 -0.62671772400E+00  0.90786672245E-01 -0.99597639555E+00  0.90007751591E+02  0.90000013112E+02 0.  0.
         12    1    1    2    0    0  0.62671772400E+00 -0.90786672245E-01  0.99597639555E+00  0.11802484086E+01  0.00000000000E+00 0. -1.
         11    1    3    3    0    0  0.70568084837E+01  0.42745659575E+01 -0.36624130299E+01  0.90268338615E+01  0.51100000000E-03 0. -1.
        -11    1    3    3    0    0  0.61774047575E+01  0.19065595780E+02 -0.31534900474E+02  0.37364518198E+02  0.51100000000E-03 0.  1.
         12    1    3    3    0    0 -0.13860930965E+02 -0.23249375066E+02  0.34201337108E+02  0.43616399532E+02  0.00000000000E+00 0. -1.
</event>
<event>
 7    1  0.1971192E-015  0.9000780E+02  0.7816164E-02  0.1186339E+00
        -11   -1    0    0    0    0  0.00000000000E+00  0.00000000000E+00  0.45593999997E+02  0.45594000000E+02  0.51100000000E-03 0. -1.
         11   -1    0    0    0    0 -0.00000000000E+00 -0.00000000000E+00 -0.45593999997E+02  0.45594000000E+02  0.51100000000E-03 0.  1.
    9900012    2    1    2    0    0  0.80596354615E-01  0.10832781542E+01  0.46138854894E+00  0.90007802252E+02  0.90000064442E+02 0.  0.
         12    1    1    2    0    0 -0.80596354615E-01 -0.10832781542E+01 -0.46138854894E+00  0.11801977482E+01  0.00000000000E+00 0. -1.
         11    1    3    3    0    0 -0.23985755644E+02 -0.71844170745E+01 -0.17549337942E+02  0.30576323928E+02  0.51100000000E-03 0. -1.
        -11    1    3    3    0    0  0.15980177640E+02  0.43400426156E+01 -0.16734342963E+02  0.23542308340E+02  0.51100000000E-03 0.  1.
        -12    1    3    3    0    0  0.80861743585E+01  0.39276526131E+01  0.34745069453E+02  0.35889169984E+02  0.00000000000E+00 0.  1.
</event>
<event>
 7    1  0.1971192E-015  0.9000774E+02  0.7816164E-02  0.1186339E+00
        -11   -1    0    0    0    0  0.00000000000E+00  0.00000000000E+00  0.45593999997E+02  0.45594000000E+02  0.51100000000E-03 0.  1.
         11   -1    0    0    0    0 -0.00000000000E+00 -0.00000000000E+00 -0.45593999997E+02  0.45594000000E+02  0.51100000000E-03 0. -1.
    9900012    2    1    2    0    0 -0.92597214738E+00 -0.67034024568E+00  0.29363807640E+00  0.90007744188E+02  0.90000005611E+02 0.  0.
         12    1    1    2    0    0  0.92597214738E+00  0.67034024568E+00 -0.29363807640E+00  0.11802558124E+01  0.00000000000E+00 0. -1.
         11    1    3    3    0    0 -0.17758118669E+01 -0.93238698792E+01 -0.14683657863E+01  0.96043821069E+01  0.51100000000E-03 0. -1.
        -11    1    3    3    0    0  0.21780330523E+02 -0.65012316246E+01  0.32869365825E+02  0.39963033172E+02  0.51100000000E-03 0.  1.
         12    1    3    3    0    0 -0.20930490803E+02  0.15154761258E+02 -0.31107361962E+02  0.40440328909E+02  0.00000000000E+00 0. -1.
</event>
<event>
 7    1  0.1971192E-015  0.9000771E+02  0.7816164E-02  0.1186339E+00
        -11   -1    0    0    0    0  0.00000000000E+00  0.00000000000E+00  0.45593999997E+02  0.45594000000E+02  0.51100000000E-03 0. -1.
         11   -1    0    0    0    0 -0.00000000000E+00 -0.00000000000E+00 -0.45593999997E+02  0.45594000000E+02  0.51100000000E-03 0.  1.
    9900012    2    1    2    0    0 -0.94971452760E+00  0.67334160010E+00 -0.19423437595E+00  0.90007714616E+02  0.89999975649E+02 0.  0.
         12    1    1    2    0    0  0.94971452760E+00 -0.67334160010E+00  0.19423437595E+00  0.11802853838E+01  0.00000000000E+00 0. -1.
         11    1    3    3    0    0  0.15560177435E+02  0.27854564225E+02  0.21862108478E+02  0.38677482562E+02  0.51100000000E-03 0. -1.
        -11    1    3    3    0    0  0.50231104937E+01 -0.24007457749E+01  0.59715403266E+01  0.81642215453E+01  0.51100000000E-03 0.  1.
        -12    1    3    3    0    0 -0.21533002456E+02 -0.24780476850E+02 -0.28027883180E+02  0.43166010509E+02  0.00000000000E+00 0.  1.
</event>
<event>
 7    1  0.1971192E-015  0.9000773E+02  0.7816164E-02  0.1186339E+00
        -11   -1    0    0    0    0  0.00000000000E+00  0.00000000000E+00  0.45593999997E+02  0.45594000000E+02  0.51100000000E-03 0. -1.
         11   -1    0    0    0    0 -0.00000000000E+00 -0.00000000000E+00 -0.45593999997E+02  0.45594000000E+02  0.51100000000E-03 0.  1.
    9900012    2    1    2    0    0 -0.84464494428E+00 -0.67776938398E-01 -0.82158925826E+00  0.90007734053E+02  0.89999995343E+02 0.  0.
         12    1    1    2    0    0  0.84464494428E+00  0.67776938398E-01  0.82158925826E+00  0.11802659465E+01  0.00000000000E+00 0. -1.
         11    1    3    3    0    0  0.30336505572E+02 -0.10956655779E+02 -0.16939531802E+02  0.36432123382E+02  0.51100000000E-03 0. -1.
        -11    1    3    3    0    0  0.31889230158E+01  0.24028762897E+01 -0.92152083444E+01  0.10043062758E+02  0.51100000000E-03 0.  1.
        -12    1    3    3    0    0 -0.34370073532E+02  0.84860025512E+01  0.25333150889E+02  0.43532547914E+02  0.00000000000E+00 0.  1.
</event>
<event>
 7    1  0.1971192E-015  0.9000773E+02  0.7816164E-02  0.1186339E+00
        -11   -1    0    0    0    0  0.00000000000E+00  0.00000000000E+00  0.45593999997E+02  0.45594000000E+02  0.51100000000E-03 0.  1.
         11   -1    0    0    0    0 -0.00000000000E+00 -0.00000000000E+00 -0.45593999997E+02  0.45594000000E+02  0.51100000000E-03 0. -1.
    9900012    2    1    2    0    0 -0.15966128910E+00 -0.29058953573E+00  0.11327379889E+01  0.90007733353E+02  0.89999994634E+02 0.  0.
         12    1    1    2    0    0  0.15966128910E+00  0.29058953573E+00 -0.11327379889E+01  0.11802666466E+01  0.00000000000E+00 0. -1.
         11    1    3    3    0    0  0.38130934628E+01 -0.61664019704E+01 -0.60785778915E+01  0.94611471007E+01  0.51100000000E-03 0. -1.
        -11    1    3    3    0    0  0.13973605360E+02 -0.32195303365E+02  0.14238076389E+02  0.37875084489E+02  0.51100000000E-03 0.  1.
         12    1    3    3    0    0 -0.17946360112E+02  0.38071115800E+02 -0.70267605081E+01  0.42671501764E+02  0.00000000000E+00 0. -1.
</event>
<event>
 7    1  0.1971192E-015  0.9000772E+02  0.7816164E-02  0.1186339E+00
        -11   -1    0    0    0    0  0.00000000000E+00  0.00000000000E+00  0.45593999997E+02  0.45594000000E+02  0.51100000000E-03 0.  1.
         11   -1    0    0    0    0 -0.00000000000E+00 -0.00000000000E+00 -0.45593999997E+02  0.45594000000E+02  0.51100000000E-03 0. -1.
    9900012    2    1    2    0    0 -0.16234537871E+00  0.45356674445E+00  0.10774901480E+01  0.90007718748E+02  0.89999979836E+02 0.  0.
         12    1    1    2    0    0  0.16234537871E+00 -0.45356674445E+00 -0.10774901480E+01  0.11802812515E+01  0.00000000000E+00 0. -1.
         11    1    3    3    0    0  0.16369322778E+02 -0.11547238634E+02 -0.32645065768E+02  0.38301354643E+02  0.51100000000E-03 0. -1.
        -11    1    3    3    0    0  0.74639400048E+01  0.62337824966E+01 -0.23579435795E+00  0.97275918835E+01  0.51100000000E-03 0.  1.
        -12    1    3    3    0    0 -0.23995608161E+02  0.57670228815E+01  0.33958350274E+02  0.41978772222E+02  0.00000000000E+00 0.  1.
</event>
<event>
 7    1  0.1971192E-015  0.9000766E+02  0.7816164E-02  0.1186339E+00
        -11   -1    0    0    0    0  0.00000000000E+00  0.00000000000E+00  0.45593999997E+02  0.45594000000E+02  0.51100000000E-03 0.  1.
         11   -1    0    0    0    0 -0.00000000000E+00 -0.00000000000E+00 -0.45593999997E+02  0.45594000000E+02  0.51100000000E-03 0. -1.
    9900012    2    1    2    0    0  0.24014733557E+00  0.71670898436E+00  0.90656233615E+00  0.90007662006E+02  0.89999922344E+02 0.  0.
         12    1    1    2    0    0 -0.24014733557E+00 -0.71670898436E+00 -0.90656233615E+00  0.11803379941E+01  0.00000000000E+00 0. -1.
         11    1    3    3    0    0 -0.29543557245E+02 -0.14647253766E+02  0.21882292080E+02  0.39575226146E+02  0.51100000000E-03 0. -1.
        -11    1    3    3    0    0  0.43480239113E+01  0.49791774507E+01  0.80831573358E+01  0.10441980310E+02  0.51100000000E-03 0.  1.
        -12    1    3    3    0    0  0.25435680669E+02  0.10384785299E+02 -0.29058887079E+02  0.39990455550E+02  0.00000000000E+00 0.  1.
</event>
<event>
 7    1  0.1971192E-015  0.9000772E+02  0.7816164E-02  0.1186339E+00
        -11   -1    0    0    0    0  0.00000000000E+00  0.00000000000E+00  0.45593999997E+02  0.45594000000E+02  0.51100000000E-03 0.  1.
         11   -1    0    0    0    0 -0.00000000000E+00 -0.00000000000E+00 -0.45593999997E+02  0.45594000000E+02  0.51100000000E-03 0. -1.
    9900012    2    1    2    0    0 -0.11667439382E+01  0.17771307140E+00 -0.13669269050E-01  0.90007720287E+02  0.89999981394E+02 0.  0.
         12    1    1    2    0    0  0.11667439382E+01 -0.17771307140E+00  0.13669269050E-01  0.11802797135E+01  0.00000000000E+00 0. -1.
         11    1    3    3    0    0  0.62208277402E+00  0.31601660115E+01  0.32365184785E+01  0.45660363907E+01  0.51100000000E-03 0. -1.
        -11    1    3    3    0    0  0.16632251319E+02  0.10383735144E+02  0.35469571067E+02  0.40528313700E+02  0.51100000000E-03 0.  1.
         12    1    3    3    0    0 -0.18421078031E+02 -0.13366188084E+02 -0.38719758814E+02  0.44913370196E+02  0.00000000000E+00 0. -1.
</event>
<event>
 7    1  0.1971192E-015  0.9000753E+02  0.7816164E-02  0.1186339E+00
        -11   -1    0    0    0    0  0.00000000000E+00  0.00000000000E+00  0.45593999997E+02  0.45594000000E+02  0.51100000000E-03 0.  1.
         11   -1    0    0    0    0 -0.00000000000E+00 -0.00000000000E+00 -0.45593999997E+02  0.45594000000E+02  0.51100000000E-03 0. -1.
    9900012    2    1    2    0    0 -0.11473380886E+01 -0.25898270370E-01  0.27650899444E+00  0.90007528639E+02  0.89999787217E+02 0.  0.
         12    1    1    2    0    0  0.11473380886E+01  0.25898270370E-01 -0.27650899444E+00  0.11804713609E+01  0.00000000000E+00 0. -1.
         11    1    3    3    0    0 -0.39547490770E+02  0.93249244044E+01  0.17623308273E+02  0.44289267730E+02  0.51100000000E-03 0. -1.
        -11    1    3    3    0    0  0.10792617682E+02 -0.26720736362E+01  0.20732458801E+01  0.11310124787E+02  0.51100000000E-03 0.  1.
        -12    1    3    3    0    0  0.27607534999E+02 -0.66787490385E+01 -0.19420045158E+02  0.34408136122E+02  0.00000000000E+00 0.  1.
</event>
<event>
 7    1  0.1971192E-015  0.9000773E+02  0.7816164E-02  0.1186339E+00
        -11   -1    0    0    0    0  0.00000000000E+00  0.00000000000E+00  0.45593999997E+02  0.45594000000E+02  0.51100000000E-03 0.  1.
         11   -1    0    0    0    0 -0.00000000000E+00 -0.00000000000E+00 -0.45593999997E+02  0.45594000000E+02  0.51100000000E-03 0. -1.
    9900012    2    1    2    0    0  0.30360245124E+00  0.10360027548E+01  0.47702744142E+00  0.90007732515E+02  0.89999993784E+02 0.  0.
         12    1    1    2    0    0 -0.30360245124E+00 -0.10360027548E+01 -0.47702744142E+00  0.11802674850E+01  0.00000000000E+00 0. -1.
         11    1    3    3    0    0 -0.70112637577E+01  0.54889924132E+01  0.34118258961E+01  0.95355866835E+01  0.51100000000E-03 0. -1.
        -11    1    3    3    0    0 -0.18296509624E+02  0.29969295689E+02  0.83824476857E+01  0.36099672824E+02  0.51100000000E-03 0.  1.
         12    1    3    3    0    0  0.25611375833E+02 -0.34422285348E+02 -0.11317246140E+02  0.44372473008E+02  0.00000000000E+00 0. -1.
</event>
<event>
 7    1  0.1971192E-015  0.9000780E+02  0.7816164E-02  0.1186339E+00
        -11   -1    0    0    0    0  0.00000000000E+00  0.00000000000E+00  0.45593999997E+02  0.45594000000E+02  0.51100000000E-03 0.  1.
         11   -1    0    0    0    0 -0.00000000000E+00 -0.00000000000E+00 -0.45593999997E+02  0.45594000000E+02  0.51100000000E-03 0. -1.
    9900012    2    1    2    0    0  0.42916893662E+00 -0.10619662564E+01  0.28443290931E+00  0.90007804937E+02  0.90000067163E+02 0.  0.
         12    1    1    2    0    0 -0.42916893662E+00  0.10619662564E+01 -0.28443290931E+00  0.11801950626E+01  0.00000000000E+00 0. -1.
         11    1    3    3    0    0  0.59144986043E+00  0.51754116989E+01  0.95530093608E+01  0.10880932281E+02  0.51100000000E-03 0. -1.
        -11    1    3    3    0    0  0.20124145545E+02  0.29854943884E+02  0.24798240101E+01  0.36089450475E+02  0.51100000000E-03 0.  1.
         12    1    3    3    0    0 -0.20286426469E+02 -0.36092321839E+02 -0.11748400462E+02  0.43037422181E+02  0.00000000000E+00 0. -1.
</event>
<event>
 7    1  0.1971192E-015  0.9000773E+02  0.7816164E-02  0.1186339E+00
        -11   -1    0    0    0    0  0.00000000000E+00  0.00000000000E+00  0.45593999997E+02  0.45594000000E+02  0.51100000000E-03 0. -1.
         11   -1    0    0    0    0 -0.00000000000E+00 -0.00000000000E+00 -0.45593999997E+02  0.45594000000E+02  0.51100000000E-03 0.  1.
    9900012    2    1    2    0    0 -0.89937482622E+00 -0.72883940830E+00  0.23010379506E+00  0.90007733201E+02  0.89999994479E+02 0.  0.
         12    1    1    2    0    0  0.89937482622E+00  0.72883940830E+00 -0.23010379506E+00  0.11802667993E+01  0.00000000000E+00 0. -1.
         11    1    3    3    0    0  0.28531005164E+01  0.72855171111E+01 -0.57479182873E+01  0.97086305436E+01  0.51100000000E-03 0. -1.
        -11    1    3    3    0    0  0.25621432832E+02  0.15137719881E+02 -0.19015363589E+02  0.35315611792E+02  0.51100000000E-03 0.  1.
         12    1    3    3    0    0 -0.29373908175E+02 -0.23152076400E+02  0.24993385671E+02  0.44983490865E+02  0.00000000000E+00 0. -1.
</event>
<event>
 7    1  0.1971192E-015  0.9000769E+02  0.7816164E-02  0.1186339E+00
        -11   -1    0    0    0    0  0.00000000000E+00  0.00000000000E+00  0.45593999997E+02  0.45594000000E+02  0.51100000000E-03 0.  1.
         11   -1    0    0    0    0 -0.00000000000E+00 -0.00000000000E+00 -0.45593999997E+02  0.45594000000E+02  0.51100000000E-03 0. -1.
    9900012    2    1    2    0    0 -0.68360471079E+00 -0.65634319380E+00  0.70359184701E+00  0.90007685095E+02  0.89999945738E+02 0.  0.
         12    1    1    2    0    0  0.68360471079E+00  0.65634319380E+00 -0.70359184701E+00  0.11803149054E+01  0.00000000000E+00 0. -1.
         11    1    3    3    0    0 -0.36305949346E+01  0.58617478970E+01  0.45696910235E+01  0.82718428599E+01  0.51100000000E-03 0. -1.
        -11    1    3    3    0    0 -0.30489079475E+02 -0.23226734012E+02  0.13345134504E+02  0.40585191329E+02  0.51100000000E-03 0.  1.
         12    1    3    3    0    0  0.33436069698E+02  0.16708642921E+02 -0.17211233681E+02  0.41150650905E+02  0.00000000000E+00 0. -1.
</event>
<event>
 7    1  0.1971192E-015  0.9000775E+02  0.7816164E-02  0.1186339E+00
        -11   -1    0    0    0    0  0.00000000000E+00  0.00000000000E+00  0.45593999997E+02  0.45594000000E+02  0.51100000000E-03 0.  1.
         11   -1    0    0    0    0 -0.00000000000E+00 -0.00000000000E+00 -0.45593999997E+02  0.45594000000E+02  0.51100000000E-03 0. -1.
    9900012    2    1    2    0    0  0.89499633535E+00 -0.37924520267E+00 -0.66944186383E+00  0.90007746734E+02  0.90000008190E+02 0.  0.
         12    1    1    2    0    0 -0.89499633535E+00  0.37924520267E+00  0.66944186383E+00  0.11802532665E+01  0.00000000000E+00 0. -1.
         11    1    3    3    0    0 -0.14178618794E+01  0.97456152493E+01 -0.16324248089E+01  0.99825928453E+01  0.51100000000E-03 0. -1.
        -11    1    3    3    0    0  0.11693820900E+02  0.31367833293E+02 -0.11986563299E+02  0.35557898036E+02  0.51100000000E-03 0.  1.
         12    1    3    3    0    0 -0.93809626850E+01 -0.41492693745E+02  0.12949546244E+02  0.44467255852E+02  0.00000000000E+00 0. -1.
</event>
<event>
 7    1  0.1971192E-015  0.9000773E+02  0.7816164E-02  0.1186339E+00
        -11   -1    0    0    0    0  0.00000000000E+00  0.00000000000E+00  0.45593999997E+02  0.45594000000E+02  0.51100000000E-03 0.  1.
         11   -1    0    0    0    0 -0.00000000000E+00 -0.00000000000E+00 -0.45593999997E+02  0.45594000000E+02  0.51100000000E-03 0. -1.
    9900012    2    1    2    0    0 -0.62161690363E+00 -0.84239559878E-02  0.10032702715E+01  0.90007733176E+02  0.89999994454E+02 0.  0.
         12    1    1    2    0    0  0.62161690363E+00  0.84239559878E-02 -0.10032702715E+01  0.11802668239E+01  0.00000000000E+00 0. -1.
         11    1    3    3    0    0  0.18928720797E+02  0.25199570944E+02 -0.26874011101E+02  0.41418924656E+02  0.51100000000E-03 0. -1.
        -11    1    3    3    0    0 -0.97913546874E+01  0.39028321039E+00  0.42912940592E+00  0.98085218003E+01  0.51100000000E-03 0.  1.
        -12    1    3    3    0    0 -0.97589830131E+01 -0.25598278110E+02  0.27448151966E+02  0.38780286719E+02  0.00000000000E+00 0.  1.
</event>
<event>
 7    1  0.1971192E-015  0.9000781E+02  0.7816164E-02  0.1186339E+00
        -11   -1    0    0    0    0  0.00000000000E+00  0.00000000000E+00  0.45593999997E+02  0.45594000000E+02  0.51100000000E-03 0. -1.
         11   -1    0    0    0    0 -0.00000000000E+00 -0.00000000000E+00 -0.45593999997E+02  0.45594000000E+02  0.51100000000E-03 0.  1.
    9900012    2    1    2    0    0 -0.95315888769E+00 -0.20690618995E+00 -0.66447821477E+00  0.90007807925E+02  0.90000070189E+02 0.  0.
         12    1    1    2    0    0  0.95315888769E+00  0.20690618995E+00  0.66447821477E+00  0.11801920753E+01  0.00000000000E+00 0. -1.
         11    1    3    3    0    0  0.17655756147E+02 -0.37834702618E+02  0.10380303090E+02  0.43022565472E+02  0.51100000000E-03 0. -1.
        -11    1    3    3    0    0  0.20206569459E+01  0.58004182526E+01 -0.62363600259E+01  0.87532904117E+01  0.51100000000E-03 0.  1.
        -12    1    3    3    0    0 -0.20629571980E+02  0.31827378176E+02 -0.48084212786E+01  0.38231952041E+02  0.00000000000E+00 0.  1.
</event>
<event>
 7    1  0.1971192E-015  0.9000753E+02  0.7816164E-02  0.1186339E+00
        -11   -1    0    0    0    0  0.00000000000E+00  0.00000000000E+00  0.45593999997E+02  0.45594000000E+02  0.51100000000E-03 0. -1.
         11   -1    0    0    0    0 -0.00000000000E+00 -0.00000000000E+00 -0.45593999997E+02  0.45594000000E+02  0.51100000000E-03 0.  1.
    9900012    2    1    2    0    0 -0.48922503162E+00 -0.37984536125E+00 -0.10049293137E+01  0.90007531214E+02  0.89999789825E+02 0.  0.
         12    1    1    2    0    0  0.48922503162E+00  0.37984536125E+00  0.10049293137E+01  0.11804687863E+01  0.00000000000E+00 0. -1.
         11    1    3    3    0    0 -0.23297250958E+01  0.26651636347E+02  0.39382659141E+01  0.27041584230E+02  0.51100000000E-03 0. -1.
        -11    1    3    3    0    0  0.15923382592E+02  0.21146190346E+01 -0.21315960788E+02  0.26690745801E+02  0.51100000000E-03 0.  1.
         12    1    3    3    0    0 -0.14082882528E+02 -0.29146100743E+02  0.16372765560E+02  0.36275201183E+02  0.00000000000E+00 0. -1.
</event>
<event>
 7    1  0.1971192E-015  0.9000774E+02  0.7816164E-02  0.1186339E+00
        -11   -1    0    0    0    0  0.00000000000E+00  0.00000000000E+00  0.45593999997E+02  0.45594000000E+02  0.51100000000E-03 0.  1.
         11   -1    0    0    0    0 -0.00000000000E+00 -0.00000000000E+00 -0.45593999997E+02  0.45594000000E+02  0.51100000000E-03 0. -1.
    9900012    2    1    2    0    0 -0.58819550934E+00 -0.50294670327E+00  0.89112068010E+00  0.90007735025E+02  0.89999996328E+02 0.  0.
         12    1    1    2    0    0  0.58819550934E+00  0.50294670327E+00 -0.89112068010E+00  0.11802649745E+01  0.00000000000E+00 0. -1.
         11    1    3    3    0    0  0.18396354581E+02  0.33080000724E+02 -0.10816836751E+02  0.39366435797E+02  0.51100000000E-03 0. -1.
        -11    1    3    3    0    0  0.81376804134E+01 -0.40829176978E+01  0.98137900230E+00  0.91572465537E+01  0.51100000000E-03 0.  1.
        -12    1    3    3    0    0 -0.27122230504E+02 -0.29500029730E+02  0.10726578429E+02  0.41484052675E+02  0.00000000000E+00 0.  1.
</event>
<event>
 7    1  0.1971192E-015  0.9000768E+02  0.7816164E-02  0.1186339E+00
        -11   -1    0    0    0    0  0.00000000000E+00  0.00000000000E+00  0.45593999997E+02  0.45594000000E+02  0.51100000000E-03 0. -1.
         11   -1    0    0    0    0 -0.00000000000E+00 -0.00000000000E+00 -0.45593999997E+02  0.45594000000E+02  0.51100000000E-03 0.  1.
    9900012    2    1    2    0    0 -0.35533086786E+00 -0.65046463883E+00 -0.91857832434E+00  0.90007682073E+02  0.89999942676E+02 0.  0.
         12    1    1    2    0    0  0.35533086786E+00  0.65046463883E+00  0.91857832434E+00  0.11803179275E+01  0.00000000000E+00 0. -1.
         11    1    3    3    0    0  0.23587674287E+02 -0.22859664545E+02  0.98788111809E+01  0.34300634862E+02  0.51100000000E-03 0. -1.
        -11    1    3    3    0    0  0.55128053951E+01 -0.97224134099E+01 -0.14525765180E+01  0.11270595576E+02  0.51100000000E-03 0.  1.
        -12    1    3    3    0    0 -0.29455810550E+02  0.31931613316E+02 -0.93448129873E+01  0.44436451634E+02  0.00000000000E+00 0.  1.
</event>
<event>
 7    1  0.1971192E-015  0.9000770E+02  0.7816164E-02  0.1186339E+00
        -11   -1    0    0    0    0  0.00000000000E+00  0.00000000000E+00  0.45593999997E+02  0.45594000000E+02  0.51100000000E-03 0. -1.
         11   -1    0    0    0    0 -0.00000000000E+00 -0.00000000000E+00 -0.45593999997E+02  0.45594000000E+02  0.51100000000E-03 0.  1.
    9900012    2    1    2    0    0 -0.67579460200E+00 -0.85055823068E+00  0.46148204630E+00  0.90007697782E+02  0.89999958592E+02 0.  0.
         12    1    1    2    0    0  0.67579460200E+00  0.85055823068E+00 -0.46148204630E+00  0.11803022185E+01  0.00000000000E+00 0. -1.
         11    1    3    3    0    0 -0.71626811851E+01 -0.64234505861E+01 -0.31772265471E+01  0.10132101854E+02  0.51100000000E-03 0. -1.
        -11    1    3    3    0    0  0.82646846603E+01 -0.35951549091E+01 -0.37049206005E+02  0.38129697314E+02  0.51100000000E-03 0.  1.
         12    1    3    3    0    0 -0.17777980772E+01  0.91680472645E+01  0.40687914599E+02  0.41745898613E+02  0.00000000000E+00 0. -1.
</event>
<event>
 7    1  0.1971192E-015  0.9000773E+02  0.7816164E-02  0.1186339E+00
        -11   -1    0    0    0    0  0.00000000000E+00  0.00000000000E+00  0.45593999997E+02  0.45594000000E+02  0.51100000000E-03 0.  1.
         11   -1    0    0    0    0 -0.00000000000E+00 -0.00000000000E+00 -0.45593999997E+02  0.45594000000E+02  0.51100000000E-03 0. -1.
    9900012    2    1    2    0    0  0.15096745208E+00  0.11669060021E+01  0.92561834241E-01  0.90007733724E+02  0.89999995009E+02 0.  0.
         12    1    1    2    0    0 -0.15096745208E+00 -0.11669060021E+01 -0.92561834241E-01  0.11802662761E+01  0.00000000000E+00 0. -1.
         11    1    3    3    0    0  0.91225947765E+01 -0.23005140992E+01  0.45786974926E+00  0.94193282959E+01  0.51100000000E-03 0. -1.
        -11    1    3    3    0    0  0.34630503191E+02  0.73013105621E+01 -0.76681664776E+01  0.36213004081E+02  0.51100000000E-03 0.  1.
         12    1    3    3    0    0 -0.43602130515E+02 -0.38338904608E+01  0.73028585626E+01  0.44375401347E+02  0.00000000000E+00 0. -1.
</event>
<event>
 7    1  0.1971192E-015  0.9000770E+02  0.7816164E-02  0.1186339E+00
        -11   -1    0    0    0    0  0.00000000000E+00  0.00000000000E+00  0.45593999997E+02  0.45594000000E+02  0.51100000000E-03 0. -1.
         11   -1    0    0    0    0 -0.00000000000E+00 -0.00000000000E+00 -0.45593999997E+02  0.45594000000E+02  0.51100000000E-03 0.  1.
    9900012    2    1    2    0    0  0.86117274825E+00 -0.20473583857E+00 -0.78074694664E+00  0.90007702978E+02  0.89999963857E+02 0.  0.
         12    1    1    2    0    0 -0.86117274825E+00  0.20473583857E+00  0.78074694664E+00  0.11802970222E+01  0.00000000000E+00 0. -1.
         11    1    3    3    0    0 -0.34815073870E+02 -0.37683626852E+01 -0.15065380074E+02  0.38121589722E+02  0.51100000000E-03 0. -1.
        -11    1    3    3    0    0 -0.36317940565E+00 -0.77946589149E+01 -0.51944332157E+01  0.93739395973E+01  0.51100000000E-03 0.  1.
        -12    1    3    3    0    0  0.36039426024E+02  0.11358285762E+02  0.19479066344E+02  0.42512173658E+02  0.00000000000E+00 0.  1.
</event>
<event>
 7    1  0.1971192E-015  0.9000772E+02  0.7816164E-02  0.1186339E+00
        -11   -1    0    0    0    0  0.00000000000E+00  0.00000000000E+00  0.45593999997E+02  0.45594000000E+02  0.51100000000E-03 0. -1.
         11   -1    0    0    0    0 -0.00000000000E+00 -0.00000000000E+00 -0.45593999997E+02  0.45594000000E+02  0.51100000000E-03 0.  1.
    9900012    2    1    2    0    0 -0.10117125063E+01 -0.59723587170E+00  0.11316124540E+00  0.90007721071E+02  0.89999982190E+02 0.  0.
         12    1    1    2    0    0  0.10117125063E+01  0.59723587170E+00 -0.11316124540E+00  0.11802789286E+01  0.00000000000E+00 0. -1.
         11    1    3    3    0    0 -0.19919344747E+02 -0.11786070581E+02  0.28825968532E+02  0.36967934984E+02  0.51100000000E-03 0. -1.
        -11    1    3    3    0    0 -0.42942822598E+01  0.72697254368E+01  0.65228898956E+01  0.10669482692E+02  0.51100000000E-03 0.  1.
        -12    1    3    3    0    0  0.23201914500E+02  0.39191092721E+01 -0.35235697182E+02  0.42370303396E+02  0.00000000000E+00 0.  1.
</event>
<event>
 7    1  0.1971192E-015  0.9000801E+02  0.7816164E-02  0.1186339E+00
        -11   -1    0    0    0    0  0.00000000000E+00  0.00000000000E+00  0.45593999997E+02  0.45594000000E+02  0.51100000000E-03 0.  1.
         11   -1    0    0    0    0 -0.00000000000E+00 -0.00000000000E+00 -0.45593999997E+02  0.45594000000E+02  0.51100000000E-03 0. -1.
    9900012    2    1    2    0    0 -0.69321425741E+00 -0.82012960148E+00  0.48910201916E+00  0.90008008748E+02  0.90000273663E+02 0.  0.
         12    1    1    2    0    0  0.69321425741E+00  0.82012960148E+00 -0.48910201916E+00  0.11799912521E+01  0.00000000000E+00 0. -1.
         11    1    3    3    0    0 -0.12542823040E+02 -0.32048256758E+02  0.15571142197E+02  0.37773981001E+02  0.51100000000E-03 0. -1.
        -11    1    3    3    0    0  0.29188923706E+01 -0.52559600407E+01  0.65484872196E+01  0.88897544256E+01  0.51100000000E-03 0.  1.
        -12    1    3    3    0    0  0.89307164115E+01  0.36484087198E+02 -0.21630527398E+02  0.43344273322E+02  0.00000000000E+00 0.  1.
</event>
<event>
 7    1  0.1971192E-015  0.9000774E+02  0.7816164E-02  0.1186339E+00
        -11   -1    0    0    0    0  0.00000000000E+00  0.00000000000E+00  0.45593999997E+02  0.45594000000E+02  0.51100000000E-03 0. -1.
         11   -1    0    0    0    0 -0.00000000000E+00 -0.00000000000E+00 -0.45593999997E+02  0.45594000000E+02  0.51100000000E-03 0.  1.
    9900012    2    1    2    0    0 -0.58959514485E+00 -0.29737701877E+00 -0.97824326615E+00  0.90007739260E+02  0.90000000618E+02 0.  0.
         12    1    1    2    0    0  0.58959514485E+00  0.29737701877E+00  0.97824326615E+00  0.11802607398E+01  0.00000000000E+00 0. -1.
         11    1    3    3    0    0 -0.28676242993E+02 -0.30710891219E+02 -0.52691216347E+01  0.42346775494E+02  0.51100000000E-03 0. -1.
        -11    1    3    3    0    0  0.61578103733E+01 -0.24983691206E+01  0.46506673811E+01  0.81110532120E+01  0.51100000000E-03 0.  1.
        -12    1    3    3    0    0  0.21928837475E+02  0.32911883321E+02 -0.35978901261E+00  0.39549910554E+02  0.00000000000E+00 0.  1.
</event>
<event>
 7    1  0.1971192E-015  0.9000784E+02  0.7816164E-02  0.1186339E+00
        -11   -1    0    0    0    0  0.00000000000E+00  0.00000000000E+00  0.45593999997E+02  0.45594000000E+02  0.51100000000E-03 0.  1.
         11   -1    0    0    0    0 -0.00000000000E+00 -0.00000000000E+00 -0.45593999997E+02  0.45594000000E+02  0.51100000000E-03 0. -1.
    9900012    2    1    2    0    0 -0.53632481763E-01  0.71928795573E+00  0.93408668296E+00  0.90007843427E+02  0.90000106160E+02 0.  0.
         12    1    1    2    0    0  0.53632481763E-01 -0.71928795573E+00 -0.93408668296E+00  0.11801565734E+01  0.00000000000E+00 0. -1.
         11    1    3    3    0    0  0.98859165644E+01  0.48666165590E-01  0.36209237626E+01  0.10528285894E+02  0.51100000000E-03 0. -1.
        -11    1    3    3    0    0 -0.90137253031E+01 -0.13276232190E+02  0.35422495351E+02  0.38887771370E+02  0.51100000000E-03 0.  1.
         12    1    3    3    0    0 -0.92582374307E+00  0.13946853980E+02 -0.38109332431E+02  0.40591786162E+02  0.00000000000E+00 0. -1.
</event>
<event>
 7    1  0.1971192E-015  0.9000777E+02  0.7816164E-02  0.1186339E+00
        -11   -1    0    0    0    0  0.00000000000E+00  0.00000000000E+00  0.45593999997E+02  0.45594000000E+02  0.51100000000E-03 0.  1.
         11   -1    0    0    0    0 -0.00000000000E+00 -0.00000000000E+00 -0.45593999997E+02  0.45594000000E+02  0.51100000000E-03 0. -1.
    9900012    2    1    2    0    0  0.97148909353E+00 -0.28365012364E+00  0.60720257875E+00  0.90007769758E+02  0.90000031519E+02 0.  0.
         12    1    1    2    0    0 -0.97148909353E+00  0.28365012364E+00 -0.60720257875E+00  0.11802302416E+01  0.00000000000E+00 0. -1.
         11    1    3    3    0    0  0.24932506022E+02 -0.42114123521E+01 -0.29279244924E+02  0.38686432171E+02  0.51100000000E-03 0. -1.
        -11    1    3    3    0    0  0.69844300813E+01 -0.37877894199E+01  0.12995088993E+02  0.15231610238E+02  0.51100000000E-03 0.  1.
        -12    1    3    3    0    0 -0.30945447009E+02  0.77155516484E+01  0.16891358510E+02  0.36089727350E+02  0.00000000000E+00 0.  1.
</event>
<event>
 7    1  0.1971192E-015  0.9000778E+02  0.7816164E-02  0.1186339E+00
        -11   -1    0    0    0    0  0.00000000000E+00  0.00000000000E+00  0.45593999997E+02  0.45594000000E+02  0.51100000000E-03 0.  1.
         11   -1    0    0    0    0 -0.00000000000E+00 -0.00000000000E+00 -0.45593999997E+02  0.45594000000E+02  0.51100000000E-03 0. -1.
    9900012    2    1    2    0    0 -0.15529795563E+00  0.35654326132E+00  0.11143039713E+01  0.90007782269E+02  0.90000044195E+02 0.  0.
         12    1    1    2    0    0  0.15529795563E+00 -0.35654326132E+00 -0.11143039713E+01  0.11802177311E+01  0.00000000000E+00 0. -1.
         11    1    3    3    0    0 -0.65307918931E+01 -0.70364884057E+01  0.38270428775E+01  0.10334876355E+02  0.51100000000E-03 0. -1.
        -11    1    3    3    0    0 -0.50161186175E+01  0.42451658608E+02 -0.22723052016E+01  0.42807337405E+02  0.51100000000E-03 0.  1.
         12    1    3    3    0    0  0.11391612555E+02 -0.35058626941E+02 -0.44043370460E+00  0.36865568508E+02  0.00000000000E+00 0. -1.
</event>
<event>
 7    1  0.1971192E-015  0.9000724E+02  0.7816164E-02  0.1186340E+00
        -11   -1    0    0    0    0  0.00000000000E+00  0.00000000000E+00  0.45593999997E+02  0.45594000000E+02  0.51100000000E-03 0. -1.
         11   -1    0    0    0    0 -0.00000000000E+00 -0.00000000000E+00 -0.45593999997E+02  0.45594000000E+02  0.51100000000E-03 0.  1.
    9900012    2    1    2    0    0 -0.87545738992E+00 -0.70381060944E+00 -0.36389206135E+00  0.90007240732E+02  0.89999495509E+02 0.  0.
         12    1    1    2    0    0  0.87545738992E+00  0.70381060944E+00  0.36389206135E+00  0.11807592675E+01  0.00000000000E+00 0. -1.
         11    1    3    3    0    0  0.21171841049E+02  0.15306671085E+02  0.24270142490E+02  0.35659232323E+02  0.51100000000E-03 0. -1.
        -11    1    3    3    0    0  0.98392268095E+01 -0.59071038759E+01  0.19258246870E+01  0.11636711795E+02  0.51100000000E-03 0.  1.
        -12    1    3    3    0    0 -0.31886525248E+02 -0.10103377819E+02 -0.26559859239E+02  0.42711296615E+02  0.00000000000E+00 0.  1.
</event>
<event>
 7    1  0.1971192E-015  0.9000763E+02  0.7816164E-02  0.1186339E+00
        -11   -1    0    0    0    0  0.00000000000E+00  0.00000000000E+00  0.45593999997E+02  0.45594000000E+02  0.51100000000E-03 0.  1.
         11   -1    0    0    0    0 -0.00000000000E+00 -0.00000000000E+00 -0.45593999997E+02  0.45594000000E+02  0.51100000000E-03 0. -1.
    9900012    2    1    2    0    0  0.85475109108E-01 -0.64192428766E+00  0.98686917310E+00  0.90007625674E+02  0.89999885533E+02 0.  0.
         12    1    1    2    0    0 -0.85475109108E-01  0.64192428766E+00 -0.98686917310E+00  0.11803743263E+01  0.00000000000E+00 0. -1.
         11    1    3    3    0    0  0.85790928707E+01  0.20935996545E+01 -0.10063077655E+02  0.13388410142E+02  0.51100000000E-03 0. -1.
        -11    1    3    3    0    0  0.32158692820E+01  0.33408073469E+02  0.17863047157E+02  0.38020121543E+02  0.51100000000E-03 0.  1.
         12    1    3    3    0    0 -0.11709487044E+02 -0.36143597411E+02 -0.68131003294E+01  0.38599093988E+02  0.00000000000E+00 0. -1.
</event>
<event>
 7    1  0.1971192E-015  0.9000774E+02  0.7816164E-02  0.1186339E+00
        -11   -1    0    0    0    0  0.00000000000E+00  0.00000000000E+00  0.45593999997E+02  0.45594000000E+02  0.51100000000E-03 0. -1.
         11   -1    0    0    0    0 -0.00000000000E+00 -0.00000000000E+00 -0.45593999997E+02  0.45594000000E+02  0.51100000000E-03 0.  1.
    9900012    2    1    2    0    0 -0.11447586360E+01  0.20033663201E+00 -0.20594204859E+00  0.90007737644E+02  0.89999998981E+02 0.  0.
         12    1    1    2    0    0  0.11447586360E+01 -0.20033663201E+00  0.20594204859E+00  0.11802623557E+01  0.00000000000E+00 0. -1.
         11    1    3    3    0    0 -0.16179754573E+01 -0.85133736925E+01  0.16533973188E+01  0.88220802062E+01  0.51100000000E-03 0. -1.
        -11    1    3    3    0    0  0.31863849134E+01  0.26615941940E+00 -0.40963222320E+02  0.41087826333E+02  0.51100000000E-03 0.  1.
         12    1    3    3    0    0 -0.27131680922E+01  0.84475509051E+01  0.39103882953E+02  0.40097831105E+02  0.00000000000E+00 0. -1.
</event>
<event>
 7    1  0.1971192E-015  0.9000749E+02  0.7816164E-02  0.1186340E+00
        -11   -1    0    0    0    0  0.00000000000E+00  0.00000000000E+00  0.45593999997E+02  0.45594000000E+02  0.51100000000E-03 0.  1.
         11   -1    0    0    0    0 -0.00000000000E+00 -0.00000000000E+00 -0.45593999997E+02  0.45594000000E+02  0.51100000000E-03 0. -1.
    9900012    2    1    2    0    0  0.14216326524E+00  0.32718713396E+00  0.11253168498E+01  0.90007491708E+02  0.89999749798E+02 0.  0.
         12    1    1    2    0    0 -0.14216326524E+00 -0.32718713396E+00 -0.11253168498E+01  0.11805082919E+01  0.00000000000E+00 0. -1.
         11    1    3    3    0    0 -0.64094145557E+01  0.60994541849E+01 -0.26384520922E+01  0.92328417079E+01  0.51100000000E-03 0. -1.
        -11    1    3    3    0    0  0.26162823162E+02  0.18294395807E+02  0.27148730310E+02  0.41907419289E+02  0.51100000000E-03 0.  1.
         12    1    3    3    0    0 -0.19611245341E+02 -0.24066662858E+02 -0.23384961368E+02  0.38867230711E+02  0.00000000000E+00 0. -1.
</event>
<event>
 7    1  0.1971192E-015  0.9000770E+02  0.7816164E-02  0.1186339E+00
        -11   -1    0    0    0    0  0.00000000000E+00  0.00000000000E+00  0.45593999997E+02  0.45594000000E+02  0.51100000000E-03 0.  1.
         11   -1    0    0    0    0 -0.00000000000E+00 -0.00000000000E+00 -0.45593999997E+02  0.45594000000E+02  0.51100000000E-03 0. -1.
    9900012    2    1    2    0    0 -0.92796970519E+00  0.69075706565E+00 -0.23419345400E+00  0.90007695094E+02  0.89999955869E+02 0.  0.
         12    1    1    2    0    0  0.92796970519E+00 -0.69075706565E+00  0.23419345400E+00  0.11803049061E+01  0.00000000000E+00 0. -1.
         11    1    3    3    0    0 -0.85909758166E+01 -0.50680020732E+01  0.54125301993E+00  0.99891173578E+01  0.51100000000E-03 0. -1.
        -11    1    3    3    0    0  0.96008356024E+01 -0.26076797202E+02 -0.26986565759E+02  0.38735644158E+02  0.51100000000E-03 0.  1.
         12    1    3    3    0    0 -0.19378294910E+01  0.31835556341E+02  0.26211119285E+02  0.41282933578E+02  0.00000000000E+00 0. -1.
</event>
<event>
 7    1  0.1971192E-015  0.9000783E+02  0.7816164E-02  0.1186339E+00
        -11   -1    0    0    0    0  0.00000000000E+00  0.00000000000E+00  0.45593999997E+02  0.45594000000E+02  0.51100000000E-03 0.  1.
         11   -1    0    0    0    0 -0.00000000000E+00 -0.00000000000E+00 -0.45593999997E+02  0.45594000000E+02  0.51100000000E-03 0. -1.
    9900012    2    1    2    0    0 -0.10462202504E+01  0.36740762551E+00 -0.40401444265E+00  0.90007833552E+02  0.90000096155E+02 0.  0.
         12    1    1    2    0    0  0.10462202504E+01 -0.36740762551E+00  0.40401444265E+00  0.11801664482E+01  0.00000000000E+00 0. -1.
         11    1    3    3    0    0 -0.22472926374E+02  0.22577093481E+02 -0.19847996338E+02  0.37532659495E+02  0.51100000000E-03 0. -1.
        -11    1    3    3    0    0  0.19857271281E+01  0.37589042967E+01 -0.86004969805E+01  0.95938012441E+01  0.51100000000E-03 0.  1.
        -12    1    3    3    0    0  0.19440978996E+02 -0.25968590153E+02  0.28044478876E+02  0.42881372812E+02  0.00000000000E+00 0.  1.
</event>
<event>
 7    1  0.1971192E-015  0.9000689E+02  0.7816164E-02  0.1186341E+00
        -11   -1    0    0    0    0  0.00000000000E+00  0.00000000000E+00  0.45593999997E+02  0.45594000000E+02  0.51100000000E-03 0.  1.
         11   -1    0    0    0    0 -0.00000000000E+00 -0.00000000000E+00 -0.45593999997E+02  0.45594000000E+02  0.51100000000E-03 0. -1.
    9900012    2    1    2    0    0 -0.11673448798E+01  0.86829144027E-01  0.15740586911E+00  0.90006894596E+02  0.89999144800E+02 0.  0.
         12    1    1    2    0    0  0.11673448798E+01 -0.86829144027E-01 -0.15740586911E+00  0.11811054044E+01  0.00000000000E+00 0. -1.
         11    1    3    3    0    0  0.41342317450E+01 -0.13439428276E+02  0.15014884831E+02  0.20570777119E+02  0.51100000000E-03 0. -1.
        -11    1    3    3    0    0 -0.15442559827E+01 -0.20227835721E+02  0.14181001001E+02  0.24751784868E+02  0.51100000000E-03 0.  1.
         12    1    3    3    0    0 -0.37573206422E+01  0.33754093141E+02 -0.29038479963E+02  0.44684332609E+02  0.00000000000E+00 0. -1.
</event>
<event>
 7    1  0.1971192E-015  0.9000766E+02  0.7816164E-02  0.1186339E+00
        -11   -1    0    0    0    0  0.00000000000E+00  0.00000000000E+00  0.45593999997E+02  0.45594000000E+02  0.51100000000E-03 0. -1.
         11   -1    0    0    0    0 -0.00000000000E+00 -0.00000000000E+00 -0.45593999997E+02  0.45594000000E+02  0.51100000000E-03 0.  1.
    9900012    2    1    2    0    0 -0.28989888069E-01 -0.11213666476E+01  0.36728310679E+00  0.90007660874E+02  0.89999921197E+02 0.  0.
         12    1    1    2    0    0  0.28989888069E-01  0.11213666476E+01 -0.36728310679E+00  0.11803391261E+01  0.00000000000E+00 0. -1.
         11    1    3    3    0    0  0.22998518197E+02  0.87428327349E+01  0.25580966425E+02  0.35493024765E+02  0.51100000000E-03 0. -1.
        -11    1    3    3    0    0  0.64060295844E+01 -0.29202156845E+01  0.72787532052E+01  0.10126456595E+02  0.51100000000E-03 0.  1.
        -12    1    3    3    0    0 -0.29433537669E+02 -0.69439836980E+01 -0.32492436524E+02  0.44388179514E+02  0.00000000000E+00 0.  1.
</event>
<event>
 7    1  0.1971192E-015  0.9000776E+02  0.7816164E-02  0.1186339E+00
        -11   -1    0    0    0    0  0.00000000000E+00  0.00000000000E+00  0.45593999997E+02  0.45594000000E+02  0.51100000000E-03 0. -1.
         11   -1    0    0    0    0 -0.00000000000E+00 -0.00000000000E+00 -0.45593999997E+02  0.45594000000E+02  0.51100000000E-03 0.  1.
    9900012    2    1    2    0    0  0.50509631460E+00 -0.97322280060E+00 -0.43668054562E+00  0.90007756463E+02  0.90000018049E+02 0.  0.
         12    1    1    2    0    0 -0.50509631460E+00  0.97322280060E+00  0.43668054562E+00  0.11802435365E+01  0.00000000000E+00 0. -1.
         11    1    3    3    0    0 -0.29776861749E+01 -0.82245531753E+01 -0.13469788034E+01  0.88500984202E+01  0.51100000000E-03 0. -1.
        -11    1    3    3    0    0 -0.75353710801E+01 -0.55145616111E+01 -0.37798693230E+02  0.38934989626E+02  0.51100000000E-03 0.  1.
         12    1    3    3    0    0  0.11018153570E+02  0.12765891986E+02  0.38708991487E+02  0.42222668417E+02  0.00000000000E+00 0. -1.
</event>
<event>
 7    1  0.1971192E-015  0.9000772E+02  0.7816164E-02  0.1186339E+00
        -11   -1    0    0    0    0  0.00000000000E+00  0.00000000000E+00  0.45593999997E+02  0.45594000000E+02  0.51100000000E-03 0. -1.
         11   -1    0    0    0    0 -0.00000000000E+00 -0.00000000000E+00 -0.45593999997E+02  0.45594000000E+02  0.51100000000E-03 0.  1.
    9900012    2    1    2    0    0 -0.88598772890E+00  0.77825908603E+00 -0.48954910158E-01  0.90007721201E+02  0.89999982321E+02 0.  0.
         12    1    1    2    0    0  0.88598772890E+00 -0.77825908603E+00  0.48954910158E-01  0.11802787993E+01  0.00000000000E+00 0. -1.
         11    1    3    3    0    0  0.58291933979E+01  0.49114295918E+01 -0.63320190512E+01  0.99093946249E+01  0.51100000000E-03 0. -1.
        -11    1    3    3    0    0  0.19026342273E+01 -0.41022234694E+02  0.92660941436E+01  0.42098744129E+02  0.51100000000E-03 0.  1.
         12    1    3    3    0    0 -0.86178153541E+01  0.36889064188E+02 -0.29830300025E+01  0.37999582447E+02  0.00000000000E+00 0. -1.
</event>
<event>
 7    1  0.1971192E-015  0.9000786E+02  0.7816164E-02  0.1186339E+00
        -11   -1    0    0    0    0  0.00000000000E+00  0.00000000000E+00  0.45593999997E+02  0.45594000000E+02  0.51100000000E-03 0.  1.
         11   -1    0    0    0    0 -0.00000000000E+00 -0.00000000000E+00 -0.45593999997E+02  0.45594000000E+02  0.51100000000E-03 0. -1.
    9900012    2    1    2    0    0 -0.10902332611E+01  0.16506572800E+00  0.42057035712E+00  0.90007858193E+02  0.90000121122E+02 0.  0.
         12    1    1    2    0    0  0.10902332611E+01 -0.16506572800E+00 -0.42057035712E+00  0.11801418065E+01  0.00000000000E+00 0. -1.
         11    1    3    3    0    0 -0.85633832471E+01 -0.53227688212E+01  0.11537134955E+01  0.10148618411E+02  0.51100000000E-03 0. -1.
        -11    1    3    3    0    0 -0.32536473643E+02 -0.12371625253E+02  0.66162963730E+01  0.35432394874E+02  0.51100000000E-03 0.  1.
         12    1    3    3    0    0  0.40009623629E+02  0.17859459802E+02 -0.73494395113E+01  0.44426844909E+02  0.00000000000E+00 0. -1.
</event>
<event>
 7    1  0.1971192E-015  0.9000771E+02  0.7816164E-02  0.1186339E+00
        -11   -1    0    0    0    0  0.00000000000E+00  0.00000000000E+00  0.45593999997E+02  0.45594000000E+02  0.51100000000E-03 0. -1.
         11   -1    0    0    0    0 -0.00000000000E+00 -0.00000000000E+00 -0.45593999997E+02  0.45594000000E+02  0.51100000000E-03 0.  1.
    9900012    2    1    2    0    0 -0.55034763376E+00 -0.29254196380E+00 -0.10023028373E+01  0.90007714316E+02  0.89999975345E+02 0.  0.
         12    1    1    2    0    0  0.55034763376E+00  0.29254196380E+00  0.10023028373E+01  0.11802856841E+01  0.00000000000E+00 0. -1.
         11    1    3    3    0    0  0.12939443948E+01 -0.57779622467E+01  0.68669278492E+01  0.90671846881E+01  0.51100000000E-03 0. -1.
        -11    1    3    3    0    0 -0.36948248664E+02  0.93713578236E+01  0.12566322099E+02  0.40136116880E+02  0.51100000000E-03 0.  1.
         12    1    3    3    0    0  0.35103956636E+02 -0.38859375407E+01 -0.20435552785E+02  0.40804412748E+02  0.00000000000E+00 0. -1.
</event>
<event>
 7    1  0.1971192E-015  0.9000760E+02  0.7816164E-02  0.1186339E+00
        -11   -1    0    0    0    0  0.00000000000E+00  0.00000000000E+00  0.45593999997E+02  0.45594000000E+02  0.51100000000E-03 0. -1.
         11   -1    0    0    0    0 -0.00000000000E+00 -0.00000000000E+00 -0.45593999997E+02  0.45594000000E+02  0.51100000000E-03 0.  1.
    9900012    2    1    2    0    0 -0.35323605716E+00  0.22166311753E+00 -0.11042790617E+01  0.90007600705E+02  0.89999860234E+02 0.  0.
         12    1    1    2    0    0  0.35323605716E+00 -0.22166311753E+00  0.11042790617E+01  0.11803992951E+01  0.00000000000E+00 0. -1.
         11    1    3    3    0    0  0.73111207277E+01  0.73653763868E+00 -0.57728417846E+01  0.93445533077E+01  0.51100000000E-03 0. -1.
        -11    1    3    3    0    0  0.15883613770E+02 -0.33658620360E+02 -0.80186978313E+01  0.38072187041E+02  0.51100000000E-03 0.  1.
         12    1    3    3    0    0 -0.23547970555E+02  0.33143745839E+02  0.12687260554E+02  0.42590860356E+02  0.00000000000E+00 0. -1.
</event>
<event>
 7    1  0.1971192E-015  0.9000775E+02  0.7816164E-02  0.1186339E+00
        -11   -1    0    0    0    0  0.00000000000E+00  0.00000000000E+00  0.45593999997E+02  0.45594000000E+02  0.51100000000E-03 0.  1.
         11   -1    0    0    0    0 -0.00000000000E+00 -0.00000000000E+00 -0.45593999997E+02  0.45594000000E+02  0.51100000000E-03 0. -1.
    9900012    2    1    2    0    0  0.24756458419E+00 -0.94301142886E-01  0.11501367380E+01  0.90007747720E+02  0.90000009190E+02 0.  0.
         12    1    1    2    0    0 -0.24756458419E+00  0.94301142886E-01 -0.11501367380E+01  0.11802522803E+01  0.00000000000E+00 0. -1.
         11    1    3    3    0    0  0.12163381408E+02 -0.30524326189E+02 -0.11016752181E+02  0.34656185097E+02  0.51100000000E-03 0. -1.
        -11    1    3    3    0    0 -0.63513976388E+01 -0.10256392834E+02 -0.13024656309E+01  0.12133847820E+02  0.51100000000E-03 0.  1.
        -12    1    3    3    0    0 -0.55644191845E+01  0.40686417881E+02  0.13469354550E+02  0.43217714803E+02  0.00000000000E+00 0.  1.
</event>
<event>
 7    1  0.1971192E-015  0.9000772E+02  0.7816164E-02  0.1186339E+00
        -11   -1    0    0    0    0  0.00000000000E+00  0.00000000000E+00  0.45593999997E+02  0.45594000000E+02  0.51100000000E-03 0.  1.
         11   -1    0    0    0    0 -0.00000000000E+00 -0.00000000000E+00 -0.45593999997E+02  0.45594000000E+02  0.51100000000E-03 0. -1.
    9900012    2    1    2    0    0  0.10907971567E+01  0.52088539010E-01 -0.44776944947E+00  0.90007724976E+02  0.89999986145E+02 0.  0.
         12    1    1    2    0    0 -0.10907971567E+01 -0.52088539010E-01  0.44776944947E+00  0.11802750243E+01  0.00000000000E+00 0. -1.
         11    1    3    3    0    0  0.66578838167E+01 -0.13341190023E+02 -0.13777579358E+02  0.20301144337E+02  0.51100000000E-03 0. -1.
        -11    1    3    3    0    0 -0.72259439753E+01 -0.26532379127E+02  0.11192737398E+02  0.29689371485E+02  0.51100000000E-03 0.  1.
        -12    1    3    3    0    0  0.16588573154E+01  0.39925657689E+02  0.21370725111E+01  0.40017209154E+02  0.00000000000E+00 0.  1.
</event>
<event>
 7    1  0.1971192E-015  0.9000750E+02  0.7816164E-02  0.1186340E+00
        -11   -1    0    0    0    0  0.00000000000E+00  0.00000000000E+00  0.45593999997E+02  0.45594000000E+02  0.51100000000E-03 0.  1.
         11   -1    0    0    0    0 -0.00000000000E+00 -0.00000000000E+00 -0.45593999997E+02  0.45594000000E+02  0.51100000000E-03 0. -1.
    9900012    2    1    2    0    0  0.13936741536E+00  0.10860368133E+01  0.44123331076E+00  0.90007497535E+02  0.89999755702E+02 0.  0.
         12    1    1    2    0    0 -0.13936741536E+00 -0.10860368133E+01 -0.44123331076E+00  0.11805024654E+01  0.00000000000E+00 0. -1.
         11    1    3    3    0    0 -0.12253714987E+02  0.25097585015E+02 -0.21991183820E+02  0.35547917951E+02  0.51100000000E-03 0. -1.
        -11    1    3    3    0    0 -0.12041464819E+02  0.28539763799E+01  0.13000734486E+01  0.12443160668E+02  0.51100000000E-03 0.  1.
        -12    1    3    3    0    0  0.24434547222E+02 -0.26865524582E+02  0.21132343682E+02  0.42016418916E+02  0.00000000000E+00 0.  1.
</event>
<event>
 7    1  0.1971192E-015  0.9000775E+02  0.7816164E-02  0.1186339E+00
        -11   -1    0    0    0    0  0.00000000000E+00  0.00000000000E+00  0.45593999997E+02  0.45594000000E+02  0.51100000000E-03 0.  1.
         11   -1    0    0    0    0 -0.00000000000E+00 -0.00000000000E+00 -0.45593999997E+02  0.45594000000E+02  0.51100000000E-03 0. -1.
    9900012    2    1    2    0    0  0.40379214494E+00  0.10728510325E+01  0.28095003616E+00  0.90007749875E+02  0.90000011374E+02 0.  0.
         12    1    1    2    0    0 -0.40379214494E+00 -0.10728510325E+01 -0.28095003616E+00  0.11802501248E+01  0.00000000000E+00 0. -1.
         11    1    3    3    0    0  0.40901584655E+01 -0.20164394808E+01  0.56992925863E+01  0.72991342430E+01  0.51100000000E-03 0. -1.
        -11    1    3    3    0    0 -0.30901930015E+02 -0.23510898897E+02  0.12299297310E+02  0.40730386202E+02  0.51100000000E-03 0.  1.
         12    1    3    3    0    0  0.27215563695E+02  0.26600189410E+02 -0.17717639860E+02  0.41978229430E+02  0.00000000000E+00 0. -1.
</event>
<event>
 7    1  0.1971192E-015  0.9000779E+02  0.7816164E-02  0.1186339E+00
        -11   -1    0    0    0    0  0.00000000000E+00  0.00000000000E+00  0.45593999997E+02  0.45594000000E+02  0.51100000000E-03 0. -1.
         11   -1    0    0    0    0 -0.00000000000E+00 -0.00000000000E+00 -0.45593999997E+02  0.45594000000E+02  0.51100000000E-03 0.  1.
    9900012    2    1    2    0    0  0.10370983417E+00  0.67691834105E+00 -0.96121094260E+00  0.90007787881E+02  0.90000049881E+02 0.  0.
         12    1    1    2    0    0 -0.10370983417E+00 -0.67691834105E+00  0.96121094260E+00  0.11802121192E+01  0.00000000000E+00 0. -1.
         11    1    3    3    0    0  0.19792717949E+02  0.10193516194E+02 -0.26736775454E+02  0.34792450591E+02  0.51100000000E-03 0. -1.
        -11    1    3    3    0    0  0.85774579791E+01  0.14678857099E+01 -0.65498921464E+01  0.10891673941E+02  0.51100000000E-03 0.  1.
        -12    1    3    3    0    0 -0.28266466094E+02 -0.10984483562E+02  0.32325456658E+02  0.44323663349E+02  0.00000000000E+00 0.  1.
</event>
<event>
 7    1  0.1971192E-015  0.9000772E+02  0.7816164E-02  0.1186339E+00
        -11   -1    0    0    0    0  0.00000000000E+00  0.00000000000E+00  0.45593999997E+02  0.45594000000E+02  0.51100000000E-03 0.  1.
         11   -1    0    0    0    0 -0.00000000000E+00 -0.00000000000E+00 -0.45593999997E+02  0.45594000000E+02  0.51100000000E-03 0. -1.
    9900012    2    1    2    0    0 -0.20480733753E+00 -0.32877142748E+00  0.11149062105E+01  0.90007723526E+02  0.89999984676E+02 0.  0.
         12    1    1    2    0    0  0.20480733753E+00  0.32877142748E+00 -0.11149062105E+01  0.11802764741E+01  0.00000000000E+00 0. -1.
         11    1    3    3    0    0 -0.79981037077E+01 -0.83686051037E+00 -0.56542905127E+01  0.98306154383E+01  0.51100000000E-03 0. -1.
        -11    1    3    3    0    0 -0.18247014837E+02  0.99977539585E+00 -0.29994275765E+02  0.35122780076E+02  0.51100000000E-03 0.  1.
         12    1    3    3    0    0  0.26040311207E+02 -0.49168631296E+00  0.36763472489E+02  0.45054328012E+02  0.00000000000E+00 0. -1.
</event>
<event>
 7    1  0.1971192E-015  0.9000770E+02  0.7816164E-02  0.1186339E+00
        -11   -1    0    0    0    0  0.00000000000E+00  0.00000000000E+00  0.45593999997E+02  0.45594000000E+02  0.51100000000E-03 0. -1.
         11   -1    0    0    0    0 -0.00000000000E+00 -0.00000000000E+00 -0.45593999997E+02  0.45594000000E+02  0.51100000000E-03 0.  1.
    9900012    2    1    2    0    0 -0.83216032591E+00  0.81589497140E+00 -0.18692144278E+00  0.90007697057E+02  0.89999957858E+02 0.  0.
         12    1    1    2    0    0  0.83216032591E+00 -0.81589497140E+00  0.18692144278E+00  0.11803029434E+01  0.00000000000E+00 0. -1.
         11    1    3    3    0    0 -0.21167894476E+02 -0.33091588446E+02  0.59308271322E+01  0.39727920826E+02  0.51100000000E-03 0. -1.
        -11    1    3    3    0    0 -0.10904251969E+01  0.39343534350E+01  0.94406472804E+01  0.10285620321E+02  0.51100000000E-03 0.  1.
        -12    1    3    3    0    0  0.21426159347E+02  0.29973129983E+02 -0.15558395855E+02  0.39994155909E+02  0.00000000000E+00 0.  1.
</event>
<event>
 7    1  0.1971192E-015  0.9000778E+02  0.7816164E-02  0.1186339E+00
        -11   -1    0    0    0    0  0.00000000000E+00  0.00000000000E+00  0.45593999997E+02  0.45594000000E+02  0.51100000000E-03 0.  1.
         11   -1    0    0    0    0 -0.00000000000E+00 -0.00000000000E+00 -0.45593999997E+02  0.45594000000E+02  0.51100000000E-03 0. -1.
    9900012    2    1    2    0    0  0.51494489825E+00  0.27773708134E+00  0.10249962160E+01  0.90007778251E+02  0.90000040124E+02 0.  0.
         12    1    1    2    0    0 -0.51494489825E+00 -0.27773708134E+00 -0.10249962160E+01  0.11802217493E+01  0.00000000000E+00 0. -1.
         11    1    3    3    0    0  0.10060755614E+02  0.31115191811E+02 -0.23867039301E+02  0.40484682662E+02  0.51100000000E-03 0. -1.
        -11    1    3    3    0    0 -0.82901688894E+01 -0.99265057434E+00 -0.27841551372E+01  0.88013507751E+01  0.51100000000E-03 0.  1.
        -12    1    3    3    0    0 -0.12556418262E+01 -0.29844804156E+02  0.27676190655E+02  0.40721744813E+02  0.00000000000E+00 0.  1.
</event>
<event>
 7    1  0.1971192E-015  0.9000793E+02  0.7816164E-02  0.1186339E+00
        -11   -1    0    0    0    0  0.00000000000E+00  0.00000000000E+00  0.45593999997E+02  0.45594000000E+02  0.51100000000E-03 0.  1.
         11   -1    0    0    0    0 -0.00000000000E+00 -0.00000000000E+00 -0.45593999997E+02  0.45594000000E+02  0.51100000000E-03 0. -1.
    9900012    2    1    2    0    0  0.11178845254E+01 -0.34489460343E-01  0.37644544194E+00  0.90007929449E+02  0.90000193317E+02 0.  0.
         12    1    1    2    0    0 -0.11178845254E+01  0.34489460343E-01 -0.37644544194E+00  0.11800705512E+01  0.00000000000E+00 0. -1.
         11    1    3    3    0    0  0.10790703413E+02 -0.29186209331E+01  0.36894153413E+01  0.11771551049E+02  0.51100000000E-03 0. -1.
        -11    1    3    3    0    0 -0.83673187325E+01 -0.34763994550E+02 -0.15027440477E+02  0.38786225743E+02  0.51100000000E-03 0.  1.
         12    1    3    3    0    0 -0.13055001546E+01  0.37648126023E+02  0.11714470578E+02  0.39450152656E+02  0.00000000000E+00 0. -1.
</event>
<event>
 7    1  0.1971192E-015  0.9000772E+02  0.7816164E-02  0.1186339E+00
        -11   -1    0    0    0    0  0.00000000000E+00  0.00000000000E+00  0.45593999997E+02  0.45594000000E+02  0.51100000000E-03 0. -1.
         11   -1    0    0    0    0 -0.00000000000E+00 -0.00000000000E+00 -0.45593999997E+02  0.45594000000E+02  0.51100000000E-03 0.  1.
    9900012    2    1    2    0    0  0.43514794335E+00  0.15998542993E+00 -0.10854036088E+01  0.90007724581E+02  0.89999985746E+02 0.  0.
         12    1    1    2    0    0 -0.43514794335E+00 -0.15998542993E+00  0.10854036088E+01  0.11802754188E+01  0.00000000000E+00 0. -1.
         11    1    3    3    0    0  0.10390750014E+02  0.42896294409E+01 -0.19052725095E+01  0.11401695935E+02  0.51100000000E-03 0. -1.
        -11    1    3    3    0    0 -0.87057402369E+01 -0.37325151811E+02  0.16674918255E+02  0.41797245961E+02  0.51100000000E-03 0.  1.
         12    1    3    3    0    0 -0.12498618340E+01  0.33195507801E+02 -0.15855049355E+02  0.36808782685E+02  0.00000000000E+00 0. -1.
</event>
<event>
 7    1  0.1971192E-015  0.9000788E+02  0.7816164E-02  0.1186339E+00
        -11   -1    0    0    0    0  0.00000000000E+00  0.00000000000E+00  0.45593999997E+02  0.45594000000E+02  0.51100000000E-03 0. -1.
         11   -1    0    0    0    0 -0.00000000000E+00 -0.00000000000E+00 -0.45593999997E+02  0.45594000000E+02  0.51100000000E-03 0.  1.
    9900012    2    1    2    0    0 -0.11499375090E+01  0.23498680627E+00  0.12290091722E+00  0.90007881485E+02  0.90000144721E+02 0.  0.
         12    1    1    2    0    0  0.11499375090E+01 -0.23498680627E+00 -0.12290091722E+00  0.11801185149E+01  0.00000000000E+00 0. -1.
         11    1    3    3    0    0 -0.91373488486E+00  0.36799764290E+01  0.10075390480E+02  0.10765251114E+02  0.51100000000E-03 0. -1.
        -11    1    3    3    0    0 -0.28644191935E+02  0.16206488050E+02 -0.25233094535E+02  0.41471062761E+02  0.51100000000E-03 0.  1.
         12    1    3    3    0    0  0.28407989311E+02 -0.19651477673E+02  0.15280604972E+02  0.37771567610E+02  0.00000000000E+00 0. -1.
</event>
<event>
 7    1  0.1971192E-015  0.9000771E+02  0.7816164E-02  0.1186339E+00
        -11   -1    0    0    0    0  0.00000000000E+00  0.00000000000E+00  0.45593999997E+02  0.45594000000E+02  0.51100000000E-03 0. -1.
         11   -1    0    0    0    0 -0.00000000000E+00 -0.00000000000E+00 -0.45593999997E+02  0.45594000000E+02  0.51100000000E-03 0.  1.
    9900012    2    1    2    0    0  0.84597858124E+00  0.20074735371E+00 -0.79819411913E+00  0.90007706345E+02  0.89999967269E+02 0.  0.
         12    1    1    2    0    0 -0.84597858124E+00 -0.20074735371E+00  0.79819411913E+00  0.11802936549E+01  0.00000000000E+00 0. -1.
         11    1    3    3    0    0 -0.39067083487E+01  0.16518744064E+02  0.29425114772E+02  0.33970114147E+02  0.51100000000E-03 0. -1.
        -11    1    3    3    0    0 -0.97147301848E+01  0.11299682661E+02 -0.43529179975E+01  0.15524390685E+02  0.51100000000E-03 0.  1.
        -12    1    3    3    0    0  0.14467417115E+02 -0.27617679371E+02 -0.25870390893E+02  0.40513201513E+02  0.00000000000E+00 0.  1.
</event>
<event>
 7    1  0.1971192E-015  0.9000780E+02  0.7816164E-02  0.1186339E+00
        -11   -1    0    0    0    0  0.00000000000E+00  0.00000000000E+00  0.45593999997E+02  0.45594000000E+02  0.51100000000E-03 0.  1.
         11   -1    0    0    0    0 -0.00000000000E+00 -0.00000000000E+00 -0.45593999997E+02  0.45594000000E+02  0.51100000000E-03 0. -1.
    9900012    2    1    2    0    0 -0.45712677426E+00  0.26508685522E+00  0.10552939625E+01  0.90007796087E+02  0.90000058195E+02 0.  0.
         12    1    1    2    0    0  0.45712677426E+00 -0.26508685522E+00 -0.10552939625E+01  0.11802039129E+01  0.00000000000E+00 0. -1.
         11    1    3    3    0    0  0.34161462184E+02 -0.13509025464E+02  0.85687267080E+01  0.37721642928E+02  0.51100000000E-03 0. -1.
        -11    1    3    3    0    0  0.72514588506E+01  0.52534688712E+01 -0.22673393192E+01  0.92370676349E+01  0.51100000000E-03 0.  1.
        -12    1    3    3    0    0 -0.41870047809E+02  0.85206434478E+01 -0.52460934263E+01  0.43049085524E+02  0.00000000000E+00 0.  1.
</event>
<event>
 7    1  0.1971192E-015  0.9000775E+02  0.7816164E-02  0.1186339E+00
        -11   -1    0    0    0    0  0.00000000000E+00  0.00000000000E+00  0.45593999997E+02  0.45594000000E+02  0.51100000000E-03 0. -1.
         11   -1    0    0    0    0 -0.00000000000E+00 -0.00000000000E+00 -0.45593999997E+02  0.45594000000E+02  0.51100000000E-03 0.  1.
    9900012    2    1    2    0    0  0.68728344216E+00 -0.28751869248E+00 -0.91540671473E+00  0.90007747916E+02  0.90000009389E+02 0.  0.
         12    1    1    2    0    0 -0.68728344216E+00  0.28751869248E+00  0.91540671473E+00  0.11802520840E+01  0.00000000000E+00 0. -1.
         11    1    3    3    0    0  0.30656475719E+00 -0.90857850341E+01  0.20423171474E+01  0.93175389040E+01  0.51100000000E-03 0. -1.
        -11    1    3    3    0    0  0.16293812499E+02 -0.32221115798E+02  0.32670828079E+01  0.36254137134E+02  0.51100000000E-03 0.  1.
         12    1    3    3    0    0 -0.15913093814E+02  0.41019382139E+02 -0.62248066700E+01  0.44436071878E+02  0.00000000000E+00 0. -1.
</event>
<event>
 7    1  0.1971192E-015  0.9000777E+02  0.7816164E-02  0.1186339E+00
        -11   -1    0    0    0    0  0.00000000000E+00  0.00000000000E+00  0.45593999997E+02  0.45594000000E+02  0.51100000000E-03 0. -1.
         11   -1    0    0    0    0 -0.00000000000E+00 -0.00000000000E+00 -0.45593999997E+02  0.45594000000E+02  0.51100000000E-03 0.  1.
    9900012    2    1    2    0    0 -0.10789328668E+01  0.41181292664E+00 -0.24340628707E+00  0.90007774327E+02  0.90000036149E+02 0.  0.
         12    1    1    2    0    0  0.10789328668E+01 -0.41181292664E+00  0.24340628707E+00  0.11802256726E+01  0.00000000000E+00 0. -1.
         11    1    3    3    0    0 -0.87013881930E+01 -0.11899402947E+02 -0.31277830189E+01  0.15069604303E+02  0.51100000000E-03 0. -1.
        -11    1    3    3    0    0  0.10870508927E+02 -0.11551906856E+02 -0.30143441020E+02  0.34062318669E+02  0.51100000000E-03 0.  1.
         12    1    3    3    0    0 -0.32480536004E+01  0.23863122730E+02  0.33027817751E+02  0.40875851355E+02  0.00000000000E+00 0. -1.
</event>
<event>
 7    1  0.1971192E-015  0.9000769E+02  0.7816164E-02  0.1186339E+00
        -11   -1    0    0    0    0  0.00000000000E+00  0.00000000000E+00  0.45593999997E+02  0.45594000000E+02  0.51100000000E-03 0.  1.
         11   -1    0    0    0    0 -0.00000000000E+00 -0.00000000000E+00 -0.45593999997E+02  0.45594000000E+02  0.51100000000E-03 0. -1.
    9900012    2    1    2    0    0  0.35912297656E-01 -0.24206438979E+00  0.11546607049E+01  0.90007692326E+02  0.89999953065E+02 0.  0.
         12    1    1    2    0    0 -0.35912297656E-01  0.24206438979E+00 -0.11546607049E+01  0.11803076741E+01  0.00000000000E+00 0. -1.
         11    1    3    3    0    0  0.52021212364E+01 -0.29724309568E+02  0.18458196383E+02  0.35373742502E+02  0.51100000000E-03 0. -1.
        -11    1    3    3    0    0  0.44527357378E+01 -0.77485941698E+01  0.49392589246E+01  0.10210966954E+02  0.51100000000E-03 0.  1.
        -12    1    3    3    0    0 -0.96189446765E+01  0.37230839348E+02 -0.22242794603E+02  0.44422982869E+02  0.00000000000E+00 0.  1.
</event>
<event>
 7    1  0.1971192E-015  0.9000774E+02  0.7816164E-02  0.1186339E+00
        -11   -1    0    0    0    0  0.00000000000E+00  0.00000000000E+00  0.45593999997E+02  0.45594000000E+02  0.51100000000E-03 0.  1.
         11   -1    0    0    0    0 -0.00000000000E+00 -0.00000000000E+00 -0.45593999997E+02  0.45594000000E+02  0.51100000000E-03 0. -1.
    9900012    2    1    2    0    0 -0.10940552692E+01  0.12547881259E+00  0.42462402347E+00  0.90007742644E+02  0.90000004047E+02 0.  0.
         12    1    1    2    0    0  0.10940552692E+01 -0.12547881259E+00 -0.42462402347E+00  0.11802573558E+01  0.00000000000E+00 0. -1.
         11    1    3    3    0    0 -0.33450085919E+02 -0.71323609401E+01 -0.13197066776E+02  0.36659806223E+02  0.51100000000E-03 0. -1.
        -11    1    3    3    0    0 -0.84195421170E+01  0.18288750816E+01 -0.27946486265E+01  0.90577886225E+01  0.51100000000E-03 0.  1.
        -12    1    3    3    0    0  0.40775572767E+02  0.54289646712E+01  0.16416339426E+02  0.44290147798E+02  0.00000000000E+00 0.  1.
</event>
<event>
 7    1  0.1971192E-015  0.9000780E+02  0.7816164E-02  0.1186339E+00
        -11   -1    0    0    0    0  0.00000000000E+00  0.00000000000E+00  0.45593999997E+02  0.45594000000E+02  0.51100000000E-03 0. -1.
         11   -1    0    0    0    0 -0.00000000000E+00 -0.00000000000E+00 -0.45593999997E+02  0.45594000000E+02  0.51100000000E-03 0.  1.
    9900012    2    1    2    0    0  0.90382947118E+00 -0.75367783723E+00  0.89131599208E-01  0.90007795595E+02  0.90000057697E+02 0.  0.
         12    1    1    2    0    0 -0.90382947118E+00  0.75367783723E+00 -0.89131599208E-01  0.11802044049E+01  0.00000000000E+00 0. -1.
         11    1    3    3    0    0  0.12298006865E+01 -0.25023315235E+02  0.27574764929E+02  0.37256494417E+02  0.51100000000E-03 0. -1.
        -11    1    3    3    0    0  0.66707559866E+01 -0.70846277405E+01  0.10434987551E+01  0.97867167921E+01  0.51100000000E-03 0.  1.
        -12    1    3    3    0    0 -0.69967272019E+01  0.31354265139E+02 -0.28529132085E+02  0.42964584386E+02  0.00000000000E+00 0.  1.
</event>
<event>
 7    1  0.1971192E-015  0.9000784E+02  0.7816164E-02  0.1186339E+00
        -11   -1    0    0    0    0  0.00000000000E+00  0.00000000000E+00  0.45593999997E+02  0.45594000000E+02  0.51100000000E-03 0.  1.
         11   -1    0    0    0    0 -0.00000000000E+00 -0.00000000000E+00 -0.45593999997E+02  0.45594000000E+02  0.51100000000E-03 0. -1.
    9900012    2    1    2    0    0  0.67578494608E+00  0.36245414151E+00  0.89706031317E+00  0.90007840899E+02  0.90000103599E+02 0.  0.
         12    1    1    2    0    0 -0.67578494608E+00 -0.36245414151E+00 -0.89706031317E+00  0.11801591009E+01  0.00000000000E+00 0. -1.
         11    1    3    3    0    0 -0.28313646499E+02  0.21392172839E+02 -0.15703445030E+02  0.38805744716E+02  0.51100000000E-03 0. -1.
        -11    1    3    3    0    0 -0.23483510218E+01  0.49971083332E+01  0.77494568115E+01  0.95152469936E+01  0.51100000000E-03 0.  1.
        -12    1    3    3    0    0  0.31337782467E+02 -0.26026827031E+02  0.88510485315E+01  0.41686849190E+02  0.00000000000E+00 0.  1.
</event>
<event>
 7    1  0.1971192E-015  0.9000764E+02  0.7816164E-02  0.1186339E+00
        -11   -1    0    0    0    0  0.00000000000E+00  0.00000000000E+00  0.45593999997E+02  0.45594000000E+02  0.51100000000E-03 0.  1.
         11   -1    0    0    0    0 -0.00000000000E+00 -0.00000000000E+00 -0.45593999997E+02  0.45594000000E+02  0.51100000000E-03 0. -1.
    9900012    2    1    2    0    0  0.11318621852E+01 -0.33279137246E+00 -0.37209517711E-01  0.90007641304E+02  0.89999901369E+02 0.  0.
         12    1    1    2    0    0 -0.11318621852E+01  0.33279137246E+00  0.37209517711E-01  0.11803586964E+01  0.00000000000E+00 0. -1.
         11    1    3    3    0    0  0.83505223321E+01 -0.14791012873E+02  0.12683954098E+02  0.21198773003E+02  0.51100000000E-03 0. -1.
        -11    1    3    3    0    0 -0.30151138136E+02 -0.10031665195E+02  0.26861666670E+01  0.31889511271E+02  0.51100000000E-03 0.  1.
         12    1    3    3    0    0  0.22932477989E+02  0.24489886695E+02 -0.15407330283E+02  0.36919357030E+02  0.00000000000E+00 0. -1.
</event>
<event>
 7    1  0.1971192E-015  0.9000767E+02  0.7816164E-02  0.1186339E+00
        -11   -1    0    0    0    0  0.00000000000E+00  0.00000000000E+00  0.45593999997E+02  0.45594000000E+02  0.51100000000E-03 0.  1.
         11   -1    0    0    0    0 -0.00000000000E+00 -0.00000000000E+00 -0.45593999997E+02  0.45594000000E+02  0.51100000000E-03 0. -1.
    9900012    2    1    2    0    0  0.43663397382E+00  0.65598586975E-01  0.10946360180E+01  0.90007669363E+02  0.89999929798E+02 0.  0.
         12    1    1    2    0    0 -0.43663397382E+00 -0.65598586975E-01 -0.10946360180E+01  0.11803306374E+01  0.00000000000E+00 0. -1.
         11    1    3    3    0    0 -0.30632744174E+02 -0.25945825235E+02  0.75877363915E+01  0.40854921448E+02  0.51100000000E-03 0. -1.
        -11    1    3    3    0    0  0.12502216791E+02 -0.42083531204E+01 -0.28713154804E+01  0.13500374570E+02  0.51100000000E-03 0.  1.
        -12    1    3    3    0    0  0.18567161356E+02  0.30219776942E+02 -0.36217848931E+01  0.35652373344E+02  0.00000000000E+00 0.  1.
</event>
<event>
 7    1  0.1971192E-015  0.9000778E+02  0.7816164E-02  0.1186339E+00
        -11   -1    0    0    0    0  0.00000000000E+00  0.00000000000E+00  0.45593999997E+02  0.45594000000E+02  0.51100000000E-03 0. -1.
         11   -1    0    0    0    0 -0.00000000000E+00 -0.00000000000E+00 -0.45593999997E+02  0.45594000000E+02  0.51100000000E-03 0.  1.
    9900012    2    1    2    0    0  0.10990904213E+01  0.79407046605E-01 -0.42261798322E+00  0.90007783413E+02  0.90000045354E+02 0.  0.
         12    1    1    2    0    0 -0.10990904213E+01 -0.79407046605E-01  0.42261798322E+00  0.11802165873E+01  0.00000000000E+00 0. -1.
         11    1    3    3    0    0  0.56291423012E+01 -0.32369235868E+02  0.21087034290E+02  0.39039949912E+02  0.51100000000E-03 0. -1.
        -11    1    3    3    0    0 -0.21302116397E+01 -0.66498672415E+01 -0.41367241636E+01  0.81160965387E+01  0.51100000000E-03 0.  1.
        -12    1    3    3    0    0 -0.23998402402E+01  0.39098510156E+02 -0.17372928109E+02  0.42851736962E+02  0.00000000000E+00 0.  1.
</event>
<event>
 7    1  0.1971192E-015  0.9000759E+02  0.7816164E-02  0.1186339E+00
        -11   -1    0    0    0    0  0.00000000000E+00  0.00000000000E+00  0.45593999997E+02  0.45594000000E+02  0.51100000000E-03 0.  1.
         11   -1    0    0    0    0 -0.00000000000E+00 -0.00000000000E+00 -0.45593999997E+02  0.45594000000E+02  0.51100000000E-03 0. -1.
    9900012    2    1    2    0    0 -0.85189527927E+00  0.80086175310E+00  0.16208047732E+00  0.90007586854E+02  0.89999846200E+02 0.  0.
         12    1    1    2    0    0  0.85189527927E+00 -0.80086175310E+00 -0.16208047732E+00  0.11804131461E+01  0.00000000000E+00 0. -1.
         11    1    3    3    0    0 -0.91618456803E+01  0.51440525358E+01 -0.44984156486E+00  0.10516798489E+02  0.51100000000E-03 0. -1.
        -11    1    3    3    0    0  0.13768669028E+01  0.80008276890E+01  0.38341908441E+02  0.39191975573E+02  0.51100000000E-03 0.  1.
         12    1    3    3    0    0  0.69330834983E+01 -0.12344018472E+02 -0.37729986398E+02  0.40298812792E+02  0.00000000000E+00 0. -1.
</event>
<event>
 7    1  0.1971192E-015  0.9000786E+02  0.7816164E-02  0.1186339E+00
        -11   -1    0    0    0    0  0.00000000000E+00  0.00000000000E+00  0.45593999997E+02  0.45594000000E+02  0.51100000000E-03 0.  1.
         11   -1    0    0    0    0 -0.00000000000E+00 -0.00000000000E+00 -0.45593999997E+02  0.45594000000E+02  0.51100000000E-03 0. -1.
    9900012    2    1    2    0    0  0.72633114892E+00 -0.90062374370E+00  0.23250050972E+00  0.90007857402E+02  0.90000120319E+02 0.  0.
         12    1    1    2    0    0 -0.72633114892E+00  0.90062374370E+00 -0.23250050972E+00  0.11801425984E+01  0.00000000000E+00 0. -1.
         11    1    3    3    0    0  0.56212426699E+01 -0.14040312643E+02 -0.37154589727E+02  0.40114739016E+02  0.51100000000E-03 0. -1.
        -11    1    3    3    0    0  0.24274975793E+01 -0.83386343120E+01  0.40921795202E+01  0.96005989487E+01  0.51100000000E-03 0.  1.
        -12    1    3    3    0    0 -0.73224091003E+01  0.21478323211E+02  0.33294910716E+02  0.40292519437E+02  0.00000000000E+00 0.  1.
</event>
<event>
 7    1  0.1971192E-015  0.9000758E+02  0.7816164E-02  0.1186339E+00
        -11   -1    0    0    0    0  0.00000000000E+00  0.00000000000E+00  0.45593999997E+02  0.45594000000E+02  0.51100000000E-03 0.  1.
         11   -1    0    0    0    0 -0.00000000000E+00 -0.00000000000E+00 -0.45593999997E+02  0.45594000000E+02  0.51100000000E-03 0. -1.
    9900012    2    1    2    0    0 -0.10516289854E+01  0.23622597943E-01 -0.53563953894E+00  0.90007580047E+02  0.89999839303E+02 0.  0.
         12    1    1    2    0    0  0.10516289854E+01 -0.23622597943E-01  0.53563953894E+00  0.11804199531E+01  0.00000000000E+00 0. -1.
         11    1    3    3    0    0 -0.42110586230E+01  0.19719349488E+02  0.52897039253E+01  0.20846264097E+02  0.51100000000E-03 0. -1.
        -11    1    3    3    0    0 -0.70007028225E+01  0.18944284046E+02  0.13985401084E+02  0.24565976100E+02  0.51100000000E-03 0.  1.
        -12    1    3    3    0    0  0.10160132460E+02 -0.38640010936E+02 -0.19810744548E+02  0.44595339849E+02  0.00000000000E+00 0.  1.
</event>
<event>
 7    1  0.1971192E-015  0.9000774E+02  0.7816164E-02  0.1186339E+00
        -11   -1    0    0    0    0  0.00000000000E+00  0.00000000000E+00  0.45593999997E+02  0.45594000000E+02  0.51100000000E-03 0.  1.
         11   -1    0    0    0    0 -0.00000000000E+00 -0.00000000000E+00 -0.45593999997E+02  0.45594000000E+02  0.51100000000E-03 0. -1.
    9900012    2    1    2    0    0 -0.43190154902E+00  0.29879102518E+00  0.10569770183E+01  0.90007739248E+02  0.90000000606E+02 0.  0.
         12    1    1    2    0    0  0.43190154902E+00 -0.29879102518E+00 -0.10569770183E+01  0.11802607517E+01  0.00000000000E+00 0. -1.
         11    1    3    3    0    0 -0.28611022622E+02  0.49571452785E+01  0.30746461527E+02  0.42290764966E+02  0.51100000000E-03 0. -1.
        -11    1    3    3    0    0 -0.78482099896E+00  0.52902641494E+01 -0.99068481333E+01  0.11258262698E+02  0.51100000000E-03 0.  1.
        -12    1    3    3    0    0  0.28963942072E+02 -0.99486184027E+01 -0.19782636375E+02  0.36458711584E+02  0.00000000000E+00 0.  1.
</event>
<event>
 7    1  0.1971192E-015  0.9000771E+02  0.7816164E-02  0.1186339E+00
        -11   -1    0    0    0    0  0.00000000000E+00  0.00000000000E+00  0.45593999997E+02  0.45594000000E+02  0.51100000000E-03 0.  1.
         11   -1    0    0    0    0 -0.00000000000E+00 -0.00000000000E+00 -0.45593999997E+02  0.45594000000E+02  0.51100000000E-03 0. -1.
    9900012    2    1    2    0    0 -0.76711932219E+00  0.84660706647E+00  0.29643294105E+00  0.90007708482E+02  0.89999969434E+02 0.  0.
         12    1    1    2    0    0  0.76711932219E+00 -0.84660706647E+00 -0.29643294105E+00  0.11802915182E+01  0.00000000000E+00 0. -1.
         11    1    3    3    0    0 -0.33201880184E+00  0.58970064968E+01 -0.63880069679E+01  0.87000893898E+01  0.51100000000E-03 0. -1.
        -11    1    3    3    0    0  0.22752635622E+02  0.88013953841E+01 -0.28135937072E+02  0.37239467553E+02  0.51100000000E-03 0.  1.
         12    1    3    3    0    0 -0.23187736142E+02 -0.13851794814E+02  0.34820376981E+02  0.44068151539E+02  0.00000000000E+00 0. -1.
</event>
<event>
 7    1  0.1971192E-015  0.9000784E+02  0.7816164E-02  0.1186339E+00
        -11   -1    0    0    0    0  0.00000000000E+00  0.00000000000E+00  0.45593999997E+02  0.45594000000E+02  0.51100000000E-03 0.  1.
         11   -1    0    0    0    0 -0.00000000000E+00 -0.00000000000E+00 -0.45593999997E+02  0.45594000000E+02  0.51100000000E-03 0. -1.
    9900012    2    1    2    0    0 -0.24730328957E+00 -0.59605271385E+00  0.98810132462E+00  0.90007838154E+02  0.90000100818E+02 0.  0.
         12    1    1    2    0    0  0.24730328957E+00  0.59605271385E+00 -0.98810132462E+00  0.11801618459E+01  0.00000000000E+00 0. -1.
         11    1    3    3    0    0  0.29721562018E+02 -0.15445874894E+02  0.14975440907E+02  0.36690736306E+02  0.51100000000E-03 0. -1.
        -11    1    3    3    0    0  0.87377999516E+01 -0.21055257056E+01 -0.67868560364E+00  0.90134899401E+01  0.51100000000E-03 0.  1.
        -12    1    3    3    0    0 -0.38706665259E+02  0.16955347886E+02 -0.13308653979E+02  0.44303611908E+02  0.00000000000E+00 0.  1.
</event>
<event>
 7    1  0.1971192E-015  0.9000775E+02  0.7816164E-02  0.1186339E+00
        -11   -1    0    0    0    0  0.00000000000E+00  0.00000000000E+00  0.45593999997E+02  0.45594000000E+02  0.51100000000E-03 0.  1.
         11   -1    0    0    0    0 -0.00000000000E+00 -0.00000000000E+00 -0.45593999997E+02  0.45594000000E+02  0.51100000000E-03 0. -1.
    9900012    2    1    2    0    0  0.11606417733E+01 -0.14743212214E+00  0.15547932416E+00  0.90007746054E+02  0.90000007502E+02 0.  0.
         12    1    1    2    0    0 -0.11606417733E+01  0.14743212214E+00 -0.15547932416E+00  0.11802539459E+01  0.00000000000E+00 0. -1.
         11    1    3    3    0    0  0.10510258094E+02  0.19274254523E+01  0.31135557452E+01  0.11129902233E+02  0.51100000000E-03 0. -1.
        -11    1    3    3    0    0  0.17166199416E+02 -0.18403421061E+02 -0.28918431620E+02  0.38335883931E+02  0.51100000000E-03 0.  1.
         12    1    3    3    0    0 -0.26515815736E+02  0.16328563486E+02  0.25960355199E+02  0.40541959890E+02  0.00000000000E+00 0. -1.
</event>
<event>
 7    1  0.1971192E-015  0.9000781E+02  0.7816164E-02  0.1186339E+00
        -11   -1    0    0    0    0  0.00000000000E+00  0.00000000000E+00  0.45593999997E+02  0.45594000000E+02  0.51100000000E-03 0.  1.
         11   -1    0    0    0    0 -0.00000000000E+00 -0.00000000000E+00 -0.45593999997E+02  0.45594000000E+02  0.51100000000E-03 0. -1.
    9900012    2    1    2    0    0  0.27085638852E+00 -0.11108337949E+01 -0.29245975114E+00  0.90007810350E+02  0.90000072647E+02 0.  0.
         12    1    1    2    0    0 -0.27085638852E+00  0.11108337949E+01  0.29245975114E+00  0.11801896496E+01  0.00000000000E+00 0. -1.
         11    1    3    3    0    0 -0.12448221098E+02 -0.15214650297E+02  0.33558536595E+02  0.38892405053E+02  0.51100000000E-03 0. -1.
        -11    1    3    3    0    0 -0.44695566460E+01 -0.66319634521E+01 -0.18272092549E+00  0.79995789289E+01  0.51100000000E-03 0.  1.
        -12    1    3    3    0    0  0.17188634133E+02  0.20735779955E+02 -0.33668275420E+02  0.43115826369E+02  0.00000000000E+00 0.  1.
</event>
<event>
 7    1  0.1971192E-015  0.9000777E+02  0.7816164E-02  0.1186339E+00
        -11   -1    0    0    0    0  0.00000000000E+00  0.00000000000E+00  0.45593999997E+02  0.45594000000E+02  0.51100000000E-03 0. -1.
         11   -1    0    0    0    0 -0.00000000000E+00 -0.00000000000E+00 -0.45593999997E+02  0.45594000000E+02  0.51100000000E-03 0.  1.
    9900012    2    1    2    0    0 -0.93660331474E+00  0.62210592389E+00 -0.35874041788E+00  0.90007772803E+02  0.90000034604E+02 0.  0.
         12    1    1    2    0    0  0.93660331474E+00 -0.62210592389E+00  0.35874041788E+00  0.11802271973E+01  0.00000000000E+00 0. -1.
         11    1    3    3    0    0 -0.64852385353E+00 -0.66003605819E+01 -0.66154273761E+01  0.93674555045E+01  0.51100000000E-03 0. -1.
        -11    1    3    3    0    0  0.92362211500E+01 -0.33400149700E+02  0.15407370542E+02  0.37924462401E+02  0.51100000000E-03 0.  1.
         12    1    3    3    0    0 -0.95243006112E+01  0.40622616206E+02 -0.91506835836E+01  0.42715854897E+02  0.00000000000E+00 0. -1.
</event>
<event>
 7    1  0.2510383E-015  0.9000802E+02  0.7816164E-02  0.1186338E+00
        -11   -1    0    0    0    0  0.00000000000E+00  0.00000000000E+00  0.45593999997E+02  0.45594000000E+02  0.51100000000E-03 0.  1.
         11   -1    0    0    0    0 -0.00000000000E+00 -0.00000000000E+00 -0.45593999997E+02  0.45594000000E+02  0.51100000000E-03 0. -1.
    9900012    2    1    2    0    0  0.68747285795E+00  0.81967485679E+00  0.49786983865E+00  0.90008016874E+02  0.90000281896E+02 0.  0.
         12    1    1    2    0    0 -0.68747285795E+00 -0.81967485679E+00 -0.49786983865E+00  0.11799831259E+01  0.00000000000E+00 0. -1.
         11    1    3    3    0    0  0.51865432712E+01  0.16777082049E+02 -0.31293534246E+02  0.35883923964E+02  0.51100000000E-03 0. -1.
        -11    1    3    3    0    0  0.37517245174E+01  0.54451076873E+01 -0.66380749843E+01  0.93695610537E+01  0.51100000000E-03 0.  1.
        -12    1    3    3    0    0 -0.82507949306E+01 -0.21402514880E+02  0.38429479069E+02  0.44754531856E+02  0.00000000000E+00 0.  1.
</event>
<event>
 7    1  0.1971192E-015  0.9000775E+02  0.7816164E-02  0.1186339E+00
        -11   -1    0    0    0    0  0.00000000000E+00  0.00000000000E+00  0.45593999997E+02  0.45594000000E+02  0.51100000000E-03 0. -1.
         11   -1    0    0    0    0 -0.00000000000E+00 -0.00000000000E+00 -0.45593999997E+02  0.45594000000E+02  0.51100000000E-03 0.  1.
    9900012    2    1    2    0    0 -0.68411109877E+00 -0.59370102516E+00 -0.75663525489E+00  0.90007751801E+02  0.90000013325E+02 0.  0.
         12    1    1    2    0    0  0.68411109877E+00  0.59370102516E+00  0.75663525489E+00  0.11802481992E+01  0.00000000000E+00 0. -1.
         11    1    3    3    0    0  0.38858146484E+02  0.33401474316E+01  0.17180935371E+02  0.42618032258E+02  0.51100000000E-03 0. -1.
        -11    1    3    3    0    0 -0.54352219563E+01  0.61496143223E+01 -0.21995907498E+01  0.84969167205E+01  0.51100000000E-03 0.  1.
        -12    1    3    3    0    0 -0.34107035626E+02 -0.10083462779E+02 -0.15737979876E+02  0.38892802823E+02  0.00000000000E+00 0.  1.
</event>
<event>
 7    1  0.1971192E-015  0.9000779E+02  0.7816164E-02  0.1186339E+00
        -11   -1    0    0    0    0  0.00000000000E+00  0.00000000000E+00  0.45593999997E+02  0.45594000000E+02  0.51100000000E-03 0. -1.
         11   -1    0    0    0    0 -0.00000000000E+00 -0.00000000000E+00 -0.45593999997E+02  0.45594000000E+02  0.51100000000E-03 0.  1.
    9900012    2    1    2    0    0  0.46157885976E+00  0.10481693117E+01  0.28493678165E+00  0.90007786918E+02  0.90000048905E+02 0.  0.
         12    1    1    2    0    0 -0.46157885976E+00 -0.10481693117E+01 -0.28493678165E+00  0.11802130822E+01  0.00000000000E+00 0. -1.
         11    1    3    3    0    0  0.16697614181E+02  0.14772184028E+01  0.71762181555E+01  0.18234324797E+02  0.51100000000E-03 0. -1.
        -11    1    3    3    0    0 -0.39998562616E+02 -0.13791930023E+02  0.38219312008E+01  0.42481872646E+02  0.51100000000E-03 0.  1.
         12    1    3    3    0    0  0.23762527295E+02  0.13362880932E+02 -0.10713212575E+02  0.29291589474E+02  0.00000000000E+00 0. -1.
</event>
<event>
 7    1  0.1971192E-015  0.9000769E+02  0.7816164E-02  0.1186339E+00
        -11   -1    0    0    0    0  0.00000000000E+00  0.00000000000E+00  0.45593999997E+02  0.45594000000E+02  0.51100000000E-03 0. -1.
         11   -1    0    0    0    0 -0.00000000000E+00 -0.00000000000E+00 -0.45593999997E+02  0.45594000000E+02  0.51100000000E-03 0.  1.
    9900012    2    1    2    0    0  0.11583056144E+01  0.49800074680E-01  0.22129360660E+00  0.90007693767E+02  0.89999954525E+02 0.  0.
         12    1    1    2    0    0 -0.11583056144E+01 -0.49800074680E-01 -0.22129360660E+00  0.11803062332E+01  0.00000000000E+00 0. -1.
         11    1    3    3    0    0 -0.66315763566E+01  0.42830598671E+00 -0.59809963235E+01  0.89405574923E+01  0.51100000000E-03 0. -1.
        -11    1    3    3    0    0 -0.18823779472E+02  0.29627423724E+02 -0.11899280048E+02  0.37063617957E+02  0.51100000000E-03 0.  1.
         12    1    3    3    0    0  0.26613661443E+02 -0.30005929636E+02  0.18101569978E+02  0.44003518318E+02  0.00000000000E+00 0. -1.
</event>
<event>
 7    1  0.2508260E-015  0.9000777E+02  0.7816164E-02  0.1186339E+00
        -11   -1    0    0    0    0  0.00000000000E+00  0.00000000000E+00  0.45593999997E+02  0.45594000000E+02  0.51100000000E-03 0.  1.
         11   -1    0    0    0    0 -0.00000000000E+00 -0.00000000000E+00 -0.45593999997E+02  0.45594000000E+02  0.51100000000E-03 0. -1.
    9900012    2    1    2    0    0 -0.48282440340E+00  0.53481419000E+00  0.93477104805E+00  0.90007770135E+02  0.90000031901E+02 0.  0.
         12    1    1    2    0    0  0.48282440340E+00 -0.53481419000E+00 -0.93477104805E+00  0.11802298652E+01  0.00000000000E+00 0. -1.
         11    1    3    3    0    0 -0.11886784153E+02  0.95102632011E+01 -0.32002973405E+02  0.35439117521E+02  0.51100000000E-03 0. -1.
        -11    1    3    3    0    0 -0.24089261827E+01 -0.15571012554E+00 -0.91182119862E+01  0.94323359294E+01  0.51100000000E-03 0.  1.
        -12    1    3    3    0    0  0.13812885932E+02 -0.88197388855E+01  0.42055956439E+02  0.45136316684E+02  0.00000000000E+00 0.  1.
</event>
<event>
 7    1  0.1971192E-015  0.9000779E+02  0.7816164E-02  0.1186339E+00
        -11   -1    0    0    0    0  0.00000000000E+00  0.00000000000E+00  0.45593999997E+02  0.45594000000E+02  0.51100000000E-03 0. -1.
         11   -1    0    0    0    0 -0.00000000000E+00 -0.00000000000E+00 -0.45593999997E+02  0.45594000000E+02  0.51100000000E-03 0.  1.
    9900012    2    1    2    0    0 -0.34417633541E+00  0.10765290478E+01 -0.33988264277E+00  0.90007791395E+02  0.90000053441E+02 0.  0.
         12    1    1    2    0    0  0.34417633541E+00 -0.10765290478E+01  0.33988264277E+00  0.11802086051E+01  0.00000000000E+00 0. -1.
         11    1    3    3    0    0 -0.23796436191E+01 -0.78475235374E+01  0.48045980376E+01  0.95042354762E+01  0.51100000000E-03 0. -1.
        -11    1    3    3    0    0 -0.26837710773E+02 -0.24303921820E+02 -0.20707118520E+00  0.36207543608E+02  0.51100000000E-03 0.  1.
         12    1    3    3    0    0  0.28873178057E+02  0.33227974405E+02 -0.49374094951E+01  0.44296012311E+02  0.00000000000E+00 0. -1.
</event>
<event>
 7    1  0.1971192E-015  0.9000772E+02  0.7816164E-02  0.1186339E+00
        -11   -1    0    0    0    0  0.00000000000E+00  0.00000000000E+00  0.45593999997E+02  0.45594000000E+02  0.51100000000E-03 0. -1.
         11   -1    0    0    0    0 -0.00000000000E+00 -0.00000000000E+00 -0.45593999997E+02  0.45594000000E+02  0.51100000000E-03 0.  1.
    9900012    2    1    2    0    0 -0.10972319924E+01 -0.43127557367E+00 -0.56085595909E-01  0.90007719415E+02  0.89999980511E+02 0.  0.
         12    1    1    2    0    0  0.10972319924E+01  0.43127557367E+00  0.56085595909E-01  0.11802805851E+01  0.00000000000E+00 0. -1.
         11    1    3    3    0    0  0.26209676998E+02  0.21074966768E+02  0.15884789304E+02  0.37194460933E+02  0.51100000000E-03 0. -1.
        -11    1    3    3    0    0  0.86436748676E+01 -0.48344078515E+00 -0.36122919624E+01  0.93805907965E+01  0.51100000000E-03 0.  1.
        -12    1    3    3    0    0 -0.35950583858E+02 -0.21022801556E+02 -0.12328582938E+02  0.43432667685E+02  0.00000000000E+00 0.  1.
</event>
<event>
 7    1  0.1971192E-015  0.9000879E+02  0.7816164E-02  0.1186337E+00
        -11   -1    0    0    0    0  0.00000000000E+00  0.00000000000E+00  0.45593999997E+02  0.45594000000E+02  0.51100000000E-03 0.  1.
         11   -1    0    0    0    0 -0.00000000000E+00 -0.00000000000E+00 -0.45593999997E+02  0.45594000000E+02  0.51100000000E-03 0. -1.
    9900012    2    1    2    0    0 -0.11032245366E+01  0.41625805723E+00  0.12435668332E-01  0.90008792726E+02  0.90001067984E+02 0.  0.
         12    1    1    2    0    0  0.11032245366E+01 -0.41625805723E+00 -0.12435668332E-01  0.11792072736E+01  0.00000000000E+00 0. -1.
         11    1    3    3    0    0  0.28756557080E+01  0.71690387572E+01  0.78789186209E+01  0.11033669895E+02  0.51100000000E-03 0. -1.
        -11    1    3    3    0    0  0.24809026701E+02 -0.85353012142E+01  0.24307157857E+02  0.35765585358E+02  0.51100000000E-03 0.  1.
         12    1    3    3    0    0 -0.28787906945E+02  0.17825205142E+01 -0.32173640810E+02  0.43209537473E+02  0.00000000000E+00 0. -1.
</event>
<event>
 7    1  0.1971192E-015  0.9000777E+02  0.7816164E-02  0.1186339E+00
        -11   -1    0    0    0    0  0.00000000000E+00  0.00000000000E+00  0.45593999997E+02  0.45594000000E+02  0.51100000000E-03 0. -1.
         11   -1    0    0    0    0 -0.00000000000E+00 -0.00000000000E+00 -0.45593999997E+02  0.45594000000E+02  0.51100000000E-03 0.  1.
    9900012    2    1    2    0    0 -0.68426900023E+00  0.22696582196E+00 -0.93444826374E+00  0.90007774976E+02  0.90000036806E+02 0.  0.
         12    1    1    2    0    0  0.68426900023E+00 -0.22696582196E+00  0.93444826374E+00  0.11802250237E+01  0.00000000000E+00 0. -1.
         11    1    3    3    0    0 -0.12882545560E+02  0.11275837661E+02  0.33601463809E+02  0.37711574688E+02  0.51100000000E-03 0. -1.
        -11    1    3    3    0    0  0.16154787099E+01 -0.15652127085E+02  0.15500780171E+00  0.15736037666E+02  0.51100000000E-03 0.  1.
        -12    1    3    3    0    0  0.10582797850E+02  0.46032552463E+01 -0.34690919875E+02  0.36560162622E+02  0.00000000000E+00 0.  1.
</event>
<event>
 7    1  0.1971192E-015  0.9000779E+02  0.7816164E-02  0.1186339E+00
        -11   -1    0    0    0    0  0.00000000000E+00  0.00000000000E+00  0.45593999997E+02  0.45594000000E+02  0.51100000000E-03 0.  1.
         11   -1    0    0    0    0 -0.00000000000E+00 -0.00000000000E+00 -0.45593999997E+02  0.45594000000E+02  0.51100000000E-03 0. -1.
    9900012    2    1    2    0    0 -0.41636868115E-01 -0.53479273777E+00  0.10512638432E+01  0.90007791303E+02  0.90000053348E+02 0.  0.
         12    1    1    2    0    0  0.41636868115E-01  0.53479273777E+00 -0.10512638432E+01  0.11802086973E+01  0.00000000000E+00 0. -1.
         11    1    3    3    0    0 -0.30713587683E+02  0.80355565403E+01 -0.93250127485E+01  0.33088525206E+02  0.51100000000E-03 0. -1.
        -11    1    3    3    0    0 -0.50187413298E+01  0.10642521092E+02 -0.59935572676E+01  0.13205065267E+02  0.51100000000E-03 0.  1.
        -12    1    3    3    0    0  0.35690692145E+02 -0.19212870370E+02  0.16369833859E+02  0.43714200830E+02  0.00000000000E+00 0.  1.
</event>
<event>
 7    1  0.2166875E-015  0.9000777E+02  0.7816164E-02  0.1186339E+00
        -11   -1    0    0    0    0  0.00000000000E+00  0.00000000000E+00  0.45593999997E+02  0.45594000000E+02  0.51100000000E-03 0. -1.
         11   -1    0    0    0    0 -0.00000000000E+00 -0.00000000000E+00 -0.45593999997E+02  0.45594000000E+02  0.51100000000E-03 0.  1.
    9900012    2    1    2    0    0 -0.82730622608E+00 -0.41124772790E+00 -0.73442982478E+00  0.90007768051E+02  0.90000029789E+02 0.  0.
         12    1    1    2    0    0  0.82730622608E+00  0.41124772790E+00  0.73442982478E+00  0.11802319488E+01  0.00000000000E+00 0. -1.
         11    1    3    3    0    0 -0.34984336662E+02  0.16965853296E+01  0.22414417653E+02  0.41583510343E+02  0.51100000000E-03 0. -1.
        -11    1    3    3    0    0  0.88390592475E+00 -0.85846585621E+01 -0.50014279285E+01  0.99745643462E+01  0.51100000000E-03 0.  1.
        -12    1    3    3    0    0  0.33273124511E+02  0.64768255046E+01 -0.18147419550E+02  0.38449693362E+02  0.00000000000E+00 0.  1.
</event>
<event>
 7    1  0.1971192E-015  0.9000777E+02  0.7816164E-02  0.1186339E+00
        -11   -1    0    0    0    0  0.00000000000E+00  0.00000000000E+00  0.45593999997E+02  0.45594000000E+02  0.51100000000E-03 0.  1.
         11   -1    0    0    0    0 -0.00000000000E+00 -0.00000000000E+00 -0.45593999997E+02  0.45594000000E+02  0.51100000000E-03 0. -1.
    9900012    2    1    2    0    0  0.54485488618E+00  0.14995841248E+00  0.10361410079E+01  0.90007770124E+02  0.90000031889E+02 0.  0.
         12    1    1    2    0    0 -0.54485488618E+00 -0.14995841248E+00 -0.10361410079E+01  0.11802298762E+01  0.00000000000E+00 0. -1.
         11    1    3    3    0    0 -0.86972528593E+01  0.12906346170E+01 -0.82986693207E+01  0.12090320830E+02  0.51100000000E-03 0. -1.
        -11    1    3    3    0    0 -0.19601164535E+02  0.19487282538E+02  0.26703094569E+02  0.38431954044E+02  0.51100000000E-03 0.  1.
         12    1    3    3    0    0  0.28843272280E+02 -0.20627958742E+02 -0.17368284241E+02  0.39485495250E+02  0.00000000000E+00 0. -1.
</event>
<event>
 7    1  0.1971192E-015  0.9000791E+02  0.7816164E-02  0.1186339E+00
        -11   -1    0    0    0    0  0.00000000000E+00  0.00000000000E+00  0.45593999997E+02  0.45594000000E+02  0.51100000000E-03 0. -1.
         11   -1    0    0    0    0 -0.00000000000E+00 -0.00000000000E+00 -0.45593999997E+02  0.45594000000E+02  0.51100000000E-03 0.  1.
    9900012    2    1    2    0    0 -0.71603696475E+00  0.76006064897E+00 -0.54974804451E+00  0.90007905073E+02  0.90000168619E+02 0.  0.
         12    1    1    2    0    0  0.71603696475E+00 -0.76006064897E+00  0.54974804451E+00  0.11800949273E+01  0.00000000000E+00 0. -1.
         11    1    3    3    0    0  0.84756353984E+01 -0.47186723741E+01  0.28029015044E+01  0.10097451237E+02  0.51100000000E-03 0. -1.
        -11    1    3    3    0    0  0.34104479193E+02 -0.22557815107E+01 -0.95653370122E+01  0.35492248783E+02  0.51100000000E-03 0.  1.
         12    1    3    3    0    0 -0.43296151556E+02  0.77345145338E+01  0.62126874632E+01  0.44418205053E+02  0.00000000000E+00 0. -1.
</event>
<event>
 7    1  0.1971192E-015  0.9000776E+02  0.7816164E-02  0.1186339E+00
        -11   -1    0    0    0    0  0.00000000000E+00  0.00000000000E+00  0.45593999997E+02  0.45594000000E+02  0.51100000000E-03 0.  1.
         11   -1    0    0    0    0 -0.00000000000E+00 -0.00000000000E+00 -0.45593999997E+02  0.45594000000E+02  0.51100000000E-03 0. -1.
    9900012    2    1    2    0    0 -0.24371776613E+00 -0.12585736770E+00  0.11479281079E+01  0.90007755378E+02  0.90000016949E+02 0.  0.
         12    1    1    2    0    0  0.24371776613E+00  0.12585736770E+00 -0.11479281079E+01  0.11802446219E+01  0.00000000000E+00 0. -1.
         11    1    3    3    0    0  0.19574064159E+02 -0.31409159210E+02 -0.12006460865E+02  0.38908024529E+02  0.51100000000E-03 0. -1.
        -11    1    3    3    0    0 -0.56220221192E+01 -0.50137893158E+01 -0.39863670417E+01  0.85226954928E+01  0.51100000000E-03 0.  1.
        -12    1    3    3    0    0 -0.14195759806E+02  0.36297091158E+02  0.17140756015E+02  0.42577035357E+02  0.00000000000E+00 0.  1.
</event>
<event>
 7    1  0.1971192E-015  0.9000788E+02  0.7816164E-02  0.1186339E+00
        -11   -1    0    0    0    0  0.00000000000E+00  0.00000000000E+00  0.45593999997E+02  0.45594000000E+02  0.51100000000E-03 0.  1.
         11   -1    0    0    0    0 -0.00000000000E+00 -0.00000000000E+00 -0.45593999997E+02  0.45594000000E+02  0.51100000000E-03 0. -1.
    9900012    2    1    2    0    0 -0.74334616672E+00  0.62853147658E+00 -0.66713015604E+00  0.90007882215E+02  0.90000145460E+02 0.  0.
         12    1    1    2    0    0  0.74334616672E+00 -0.62853147658E+00  0.66713015604E+00  0.11801177847E+01  0.00000000000E+00 0. -1.
         11    1    3    3    0    0  0.46084134141E+01 -0.76040690143E+01  0.65690363257E+01  0.11054934567E+02  0.51100000000E-03 0. -1.
        -11    1    3    3    0    0  0.34613730057E+02  0.99359322947E+01  0.66285420385E+01  0.36616534910E+02  0.51100000000E-03 0.  1.
         12    1    3    3    0    0 -0.39965489637E+02 -0.17033318038E+01 -0.13864708520E+02  0.42336412738E+02  0.00000000000E+00 0. -1.
</event>
<event>
 7    1  0.1971192E-015  0.9000774E+02  0.7816164E-02  0.1186339E+00
        -11   -1    0    0    0    0  0.00000000000E+00  0.00000000000E+00  0.45593999997E+02  0.45594000000E+02  0.51100000000E-03 0.  1.
         11   -1    0    0    0    0 -0.00000000000E+00 -0.00000000000E+00 -0.45593999997E+02  0.45594000000E+02  0.51100000000E-03 0. -1.
    9900012    2    1    2    0    0  0.94906165893E+00  0.69686297933E+00 -0.81770781646E-01  0.90007736256E+02  0.89999997575E+02 0.  0.
         12    1    1    2    0    0 -0.94906165893E+00 -0.69686297933E+00  0.81770781646E-01  0.11802637439E+01  0.00000000000E+00 0. -1.
         11    1    3    3    0    0 -0.15282708835E+02 -0.61364411030E+01 -0.30369080026E+02  0.34547042140E+02  0.51100000000E-03 0. -1.
        -11    1    3    3    0    0 -0.30972452383E+01  0.10460641966E+02 -0.72393872875E+01  0.13093001450E+02  0.51100000000E-03 0.  1.
        -12    1    3    3    0    0  0.19329015733E+02 -0.36273378833E+01  0.37526696532E+02  0.42367692666E+02  0.00000000000E+00 0.  1.
</event>
<event>
 7    1  0.1971192E-015  0.9000781E+02  0.7816164E-02  0.1186339E+00
        -11   -1    0    0    0    0  0.00000000000E+00  0.00000000000E+00  0.45593999997E+02  0.45594000000E+02  0.51100000000E-03 0.  1.
         11   -1    0    0    0    0 -0.00000000000E+00 -0.00000000000E+00 -0.45593999997E+02  0.45594000000E+02  0.51100000000E-03 0. -1.
    9900012    2    1    2    0    0  0.68690888396E+00 -0.41302476721E+00  0.86626935445E+00  0.90007806852E+02  0.90000069102E+02 0.  0.
         12    1    1    2    0    0 -0.68690888396E+00  0.41302476721E+00 -0.86626935445E+00  0.11801931485E+01  0.00000000000E+00 0. -1.
         11    1    3    3    0    0 -0.23677886306E+01 -0.86273020739E+01 -0.19468665100E+01  0.91557115257E+01  0.51100000000E-03 0. -1.
        -11    1    3    3    0    0 -0.90813979792E+01 -0.28129936139E+02 -0.20525518729E+02  0.35986970083E+02  0.51100000000E-03 0.  1.
         12    1    3    3    0    0  0.12136095494E+02  0.36344213445E+02  0.23338654594E+02  0.44865125243E+02  0.00000000000E+00 0. -1.
</event>
<event>
 7    1  0.1971192E-015  0.9000783E+02  0.7816164E-02  0.1186339E+00
        -11   -1    0    0    0    0  0.00000000000E+00  0.00000000000E+00  0.45593999997E+02  0.45594000000E+02  0.51100000000E-03 0.  1.
         11   -1    0    0    0    0 -0.00000000000E+00 -0.00000000000E+00 -0.45593999997E+02  0.45594000000E+02  0.51100000000E-03 0. -1.
    9900012    2    1    2    0    0  0.32864875389E+00 -0.11587816784E-01  0.11334312382E+01  0.90007826007E+02  0.90000088511E+02 0.  0.
         12    1    1    2    0    0 -0.32864875389E+00  0.11587816784E-01 -0.11334312382E+01  0.11801739925E+01  0.00000000000E+00 0. -1.
         11    1    3    3    0    0  0.29029417224E+02 -0.11630453616E+02 -0.20068950646E+02  0.37158273587E+02  0.51100000000E-03 0. -1.
        -11    1    3    3    0    0  0.88040451219E+01  0.19222323439E+01  0.76139025236E+01  0.11797359857E+02  0.51100000000E-03 0.  1.
        -12    1    3    3    0    0 -0.37504813592E+02  0.96966334556E+01  0.13588479361E+02  0.41052192563E+02  0.00000000000E+00 0.  1.
</event>
<event>
 7    1  0.1971192E-015  0.9000764E+02  0.7816164E-02  0.1186339E+00
        -11   -1    0    0    0    0  0.00000000000E+00  0.00000000000E+00  0.45593999997E+02  0.45594000000E+02  0.51100000000E-03 0. -1.
         11   -1    0    0    0    0 -0.00000000000E+00 -0.00000000000E+00 -0.45593999997E+02  0.45594000000E+02  0.51100000000E-03 0.  1.
    9900012    2    1    2    0    0  0.27260489012E+00  0.10322127617E+01  0.50346200698E+00  0.90007639630E+02  0.89999899673E+02 0.  0.
         12    1    1    2    0    0 -0.27260489012E+00 -0.10322127617E+01 -0.50346200698E+00  0.11803603704E+01  0.00000000000E+00 0. -1.
         11    1    3    3    0    0 -0.19691369077E+02 -0.28778493285E+02  0.26045035441E+01  0.34967629757E+02  0.51100000000E-03 0. -1.
        -11    1    3    3    0    0 -0.37145020093E+01 -0.85930664149E+01  0.24990883039E+01  0.96893631473E+01  0.51100000000E-03 0.  1.
        -12    1    3    3    0    0  0.23678475977E+02  0.38403772461E+02 -0.46001298411E+01  0.45350646725E+02  0.00000000000E+00 0.  1.
</event>
<event>
 7    1  0.1971192E-015  0.9000774E+02  0.7816164E-02  0.1186339E+00
        -11   -1    0    0    0    0  0.00000000000E+00  0.00000000000E+00  0.45593999997E+02  0.45594000000E+02  0.51100000000E-03 0.  1.
         11   -1    0    0    0    0 -0.00000000000E+00 -0.00000000000E+00 -0.45593999997E+02  0.45594000000E+02  0.51100000000E-03 0. -1.
    9900012    2    1    2    0    0  0.67820367776E+00 -0.84475498946E+00 -0.46843667349E+00  0.90007744037E+02  0.90000005458E+02 0.  0.
         12    1    1    2    0    0 -0.67820367776E+00  0.84475498946E+00  0.46843667349E+00  0.11802559628E+01  0.00000000000E+00 0. -1.
         11    1    3    3    0    0  0.42038231686E+01  0.10955476464E+02  0.20645130685E+01  0.11914562865E+02  0.51100000000E-03 0. -1.
        -11    1    3    3    0    0 -0.12750338981E+02  0.31333038198E+02  0.10047694102E+01  0.33842872051E+02  0.51100000000E-03 0.  1.
         12    1    3    3    0    0  0.92247194906E+01 -0.43133269651E+02 -0.35377191522E+01  0.44250309121E+02  0.00000000000E+00 0. -1.
</event>
<event>
 7    1  0.1971192E-015  0.9000776E+02  0.7816164E-02  0.1186339E+00
        -11   -1    0    0    0    0  0.00000000000E+00  0.00000000000E+00  0.45593999997E+02  0.45594000000E+02  0.51100000000E-03 0. -1.
         11   -1    0    0    0    0 -0.00000000000E+00 -0.00000000000E+00 -0.45593999997E+02  0.45594000000E+02  0.51100000000E-03 0.  1.
    9900012    2    1    2    0    0  0.17988030253E+00  0.79238745475E+00  0.85599937760E+00  0.90007758611E+02  0.90000020225E+02 0.  0.
         12    1    1    2    0    0 -0.17988030253E+00 -0.79238745475E+00 -0.85599937760E+00  0.11802413889E+01  0.00000000000E+00 0. -1.
         11    1    3    3    0    0  0.35939296797E+02  0.19212360147E+01  0.24692501359E+02  0.43646807738E+02  0.51100000000E-03 0. -1.
        -11    1    3    3    0    0 -0.11556302941E+02 -0.45979461284E+01 -0.32715919775E+00  0.12441715302E+02  0.51100000000E-03 0.  1.
        -12    1    3    3    0    0 -0.24203113554E+02  0.34690975685E+01 -0.23509342783E+02  0.33919235571E+02  0.00000000000E+00 0.  1.
</event>
<event>
 7    1  0.1971192E-015  0.9000768E+02  0.7816164E-02  0.1186339E+00
        -11   -1    0    0    0    0  0.00000000000E+00  0.00000000000E+00  0.45593999997E+02  0.45594000000E+02  0.51100000000E-03 0.  1.
         11   -1    0    0    0    0 -0.00000000000E+00 -0.00000000000E+00 -0.45593999997E+02  0.45594000000E+02  0.51100000000E-03 0. -1.
    9900012    2    1    2    0    0  0.97065135682E+00 -0.40030114724E-01  0.67037205944E+00  0.90007675822E+02  0.89999936343E+02 0.  0.
         12    1    1    2    0    0 -0.97065135682E+00  0.40030114724E-01 -0.67037205944E+00  0.11803241778E+01  0.00000000000E+00 0. -1.
         11    1    3    3    0    0  0.24396637679E+01  0.46888650860E+01  0.73489445520E+01  0.90523146976E+01  0.51100000000E-03 0. -1.
        -11    1    3    3    0    0 -0.21285043419E+02  0.29158146533E+02  0.11231041414E+02  0.37807233092E+02  0.51100000000E-03 0.  1.
         12    1    3    3    0    0  0.19816031008E+02 -0.33887041734E+02 -0.17909613907E+02  0.43148128032E+02  0.00000000000E+00 0. -1.
</event>
<event>
 7    1  0.1971192E-015  0.9000753E+02  0.7816164E-02  0.1186339E+00
        -11   -1    0    0    0    0  0.00000000000E+00  0.00000000000E+00  0.45593999997E+02  0.45594000000E+02  0.51100000000E-03 0. -1.
         11   -1    0    0    0    0 -0.00000000000E+00 -0.00000000000E+00 -0.45593999997E+02  0.45594000000E+02  0.51100000000E-03 0.  1.
    9900012    2    1    2    0    0 -0.11497797057E+01 -0.24121315089E-01 -0.26633942454E+00  0.90007528951E+02  0.89999787532E+02 0.  0.
         12    1    1    2    0    0  0.11497797057E+01  0.24121315089E-01  0.26633942454E+00  0.11804710495E+01  0.00000000000E+00 0. -1.
         11    1    3    3    0    0  0.24527403778E+02  0.20223356377E+02  0.19311198185E+02  0.37195430564E+02  0.51100000000E-03 0. -1.
        -11    1    3    3    0    0  0.64981656026E+01  0.16074391198E+01  0.35322821983E+01  0.75688198890E+01  0.51100000000E-03 0.  1.
        -12    1    3    3    0    0 -0.32175349086E+02 -0.21854916812E+02 -0.23109819808E+02  0.45243278498E+02  0.00000000000E+00 0.  1.
</event>
<event>
 7    1  0.1971192E-015  0.9000776E+02  0.7816164E-02  0.1186339E+00
        -11   -1    0    0    0    0  0.00000000000E+00  0.00000000000E+00  0.45593999997E+02  0.45594000000E+02  0.51100000000E-03 0.  1.
         11   -1    0    0    0    0 -0.00000000000E+00 -0.00000000000E+00 -0.45593999997E+02  0.45594000000E+02  0.51100000000E-03 0. -1.
    9900012    2    1    2    0    0  0.72337549494E+00 -0.82903042381E+00  0.42709236180E+00  0.90007757891E+02  0.90000019495E+02 0.  0.
         12    1    1    2    0    0 -0.72337549494E+00  0.82903042381E+00 -0.42709236180E+00  0.11802421090E+01  0.00000000000E+00 0. -1.
         11    1    3    3    0    0  0.11310792773E+01 -0.67956351048E+01  0.50030487743E+01  0.85141349595E+01  0.51100000000E-03 0. -1.
        -11    1    3    3    0    0 -0.30080198189E+02 -0.14035857724E+02  0.19373690774E+02  0.38433885044E+02  0.51100000000E-03 0.  1.
         12    1    3    3    0    0  0.29672494406E+02  0.20002462405E+02 -0.23949647187E+02  0.43059737887E+02  0.00000000000E+00 0. -1.
</event>
<event>
 7    1  0.1971192E-015  0.9000844E+02  0.7816164E-02  0.1186338E+00
        -11   -1    0    0    0    0  0.00000000000E+00  0.00000000000E+00  0.45593999997E+02  0.45594000000E+02  0.51100000000E-03 0.  1.
         11   -1    0    0    0    0 -0.00000000000E+00 -0.00000000000E+00 -0.45593999997E+02  0.45594000000E+02  0.51100000000E-03 0. -1.
    9900012    2    1    2    0    0  0.53240899630E+00 -0.86225068308E+00  0.60367878599E+00  0.90008439210E+02  0.90000709805E+02 0.  0.
         12    1    1    2    0    0 -0.53240899630E+00  0.86225068308E+00 -0.60367878599E+00  0.11795607896E+01  0.00000000000E+00 0. -1.
         11    1    3    3    0    0  0.11062080389E+02  0.24200674739E+02 -0.30744492756E+02  0.40660375250E+02  0.51100000000E-03 0. -1.
        -11    1    3    3    0    0 -0.28709861302E+01  0.27312757251E+01 -0.26535423749E+01  0.47690372029E+01  0.51100000000E-03 0.  1.
        -12    1    3    3    0    0 -0.76586852622E+01 -0.27794201147E+02  0.34001713917E+02  0.44579026758E+02  0.00000000000E+00 0.  1.
</event>
<event>
 7    1  0.1971192E-015  0.9000772E+02  0.7816164E-02  0.1186339E+00
        -11   -1    0    0    0    0  0.00000000000E+00  0.00000000000E+00  0.45593999997E+02  0.45594000000E+02  0.51100000000E-03 0.  1.
         11   -1    0    0    0    0 -0.00000000000E+00 -0.00000000000E+00 -0.45593999997E+02  0.45594000000E+02  0.51100000000E-03 0. -1.
    9900012    2    1    2    0    0  0.96139815034E+00 -0.60650882342E+00 -0.31766880391E+00  0.90007723412E+02  0.89999984561E+02 0.  0.
         12    1    1    2    0    0 -0.96139815034E+00  0.60650882342E+00  0.31766880391E+00  0.11802765885E+01  0.00000000000E+00 0. -1.
         11    1    3    3    0    0  0.34228604270E+01 -0.76075809826E+00 -0.91126241322E+01  0.97639461911E+01  0.51100000000E-03 0. -1.
        -11    1    3    3    0    0 -0.39944353164E+02 -0.91697481483E+01  0.20540386106E+01  0.41034798716E+02  0.51100000000E-03 0.  1.
         12    1    3    3    0    0  0.37482890887E+02  0.93239974232E+01  0.67409167177E+01  0.39208978505E+02  0.00000000000E+00 0. -1.
</event>
<event>
 7    1  0.1971192E-015  0.9000774E+02  0.7816164E-02  0.1186339E+00
        -11   -1    0    0    0    0  0.00000000000E+00  0.00000000000E+00  0.45593999997E+02  0.45594000000E+02  0.51100000000E-03 0.  1.
         11   -1    0    0    0    0 -0.00000000000E+00 -0.00000000000E+00 -0.45593999997E+02  0.45594000000E+02  0.51100000000E-03 0. -1.
    9900012    2    1    2    0    0 -0.33092625195E+00  0.85978843310E+00 -0.73774495675E+00  0.90007739031E+02  0.90000000386E+02 0.  0.
         12    1    1    2    0    0  0.33092625195E+00 -0.85978843310E+00  0.73774495675E+00  0.11802609691E+01  0.00000000000E+00 0. -1.
         11    1    3    3    0    0  0.20057105597E+02 -0.29486270934E+02  0.10922714555E+01  0.35678014459E+02  0.51100000000E-03 0. -1.
        -11    1    3    3    0    0  0.40012181833E+01 -0.60090551230E+01  0.65602617427E+01  0.97547693369E+01  0.51100000000E-03 0.  1.
        -12    1    3    3    0    0 -0.24389250032E+02  0.36355114490E+02 -0.83902781550E+01  0.44574955235E+02  0.00000000000E+00 0.  1.
</event>
<event>
 7    1  0.1971192E-015  0.9000769E+02  0.7816164E-02  0.1186339E+00
        -11   -1    0    0    0    0  0.00000000000E+00  0.00000000000E+00  0.45593999997E+02  0.45594000000E+02  0.51100000000E-03 0.  1.
         11   -1    0    0    0    0 -0.00000000000E+00 -0.00000000000E+00 -0.45593999997E+02  0.45594000000E+02  0.51100000000E-03 0. -1.
    9900012    2    1    2    0    0 -0.11613780585E+01 -0.46590502581E-01  0.20534830337E+00  0.90007687501E+02  0.89999948176E+02 0.  0.
         12    1    1    2    0    0  0.11613780585E+01  0.46590502581E-01 -0.20534830337E+00  0.11803124991E+01  0.00000000000E+00 0. -1.
         11    1    3    3    0    0  0.24269848280E+01 -0.30875676468E+01  0.86730090892E+01  0.95207361192E+01  0.51100000000E-03 0. -1.
        -11    1    3    3    0    0 -0.16269308405E+02 -0.13695836925E+02  0.29933919084E+02  0.36719284538E+02  0.51100000000E-03 0.  1.
         12    1    3    3    0    0  0.12680945518E+02  0.16736814069E+02 -0.38401579870E+02  0.43767666843E+02  0.00000000000E+00 0. -1.
</event>
<event>
 7    1  0.1971192E-015  0.9000773E+02  0.7816164E-02  0.1186339E+00
        -11   -1    0    0    0    0  0.00000000000E+00  0.00000000000E+00  0.45593999997E+02  0.45594000000E+02  0.51100000000E-03 0.  1.
         11   -1    0    0    0    0 -0.00000000000E+00 -0.00000000000E+00 -0.45593999997E+02  0.45594000000E+02  0.51100000000E-03 0. -1.
    9900012    2    1    2    0    0  0.10038550326E+01 -0.76465826037E-01  0.61601190866E+00  0.90007727735E+02  0.89999988941E+02 0.  0.
         12    1    1    2    0    0 -0.10038550326E+01  0.76465826037E-01 -0.61601190866E+00  0.11802722655E+01  0.00000000000E+00 0. -1.
         11    1    3    3    0    0 -0.31409488000E+01 -0.60691885895E+01 -0.55018939673E+01  0.87733372776E+01  0.51100000000E-03 0. -1.
        -11    1    3    3    0    0  0.25280246800E+02 -0.28203976133E+02  0.13790071470E+02  0.40307830746E+02  0.51100000000E-03 0.  1.
         12    1    3    3    0    0 -0.21135442968E+02  0.34196698897E+02 -0.76721655944E+01  0.40926559711E+02  0.00000000000E+00 0. -1.
</event>
<event>
 7    1  0.1971192E-015  0.9000772E+02  0.7816164E-02  0.1186339E+00
        -11   -1    0    0    0    0  0.00000000000E+00  0.00000000000E+00  0.45593999997E+02  0.45594000000E+02  0.51100000000E-03 0. -1.
         11   -1    0    0    0    0 -0.00000000000E+00 -0.00000000000E+00 -0.45593999997E+02  0.45594000000E+02  0.51100000000E-03 0.  1.
    9900012    2    1    2    0    0 -0.80903399296E+00 -0.70687441317E+00 -0.48873114707E+00  0.90007718012E+02  0.89999979089E+02 0.  0.
         12    1    1    2    0    0  0.80903399296E+00  0.70687441317E+00  0.48873114707E+00  0.11802819883E+01  0.00000000000E+00 0. -1.
         11    1    3    3    0    0 -0.36012321008E+02 -0.15536310929E+02  0.15362634923E+02  0.42122141134E+02  0.51100000000E-03 0. -1.
        -11    1    3    3    0    0  0.46333030892E+01  0.64470208656E+01  0.55076476806E+01  0.96625958620E+01  0.51100000000E-03 0.  1.
        -12    1    3    3    0    0  0.30569983925E+02  0.83824156507E+01 -0.21359013751E+02  0.38222981016E+02  0.00000000000E+00 0.  1.
</event>
<event>
 7    1  0.1971192E-015  0.9000777E+02  0.7816164E-02  0.1186339E+00
        -11   -1    0    0    0    0  0.00000000000E+00  0.00000000000E+00  0.45593999997E+02  0.45594000000E+02  0.51100000000E-03 0. -1.
         11   -1    0    0    0    0 -0.00000000000E+00 -0.00000000000E+00 -0.45593999997E+02  0.45594000000E+02  0.51100000000E-03 0.  1.
    9900012    2    1    2    0    0  0.10400267189E+01  0.13626723152E+00 -0.54103334966E+00  0.90007770607E+02  0.90000032379E+02 0.  0.
         12    1    1    2    0    0 -0.10400267189E+01 -0.13626723152E+00  0.54103334966E+00  0.11802293929E+01  0.00000000000E+00 0. -1.
         11    1    3    3    0    0 -0.29967439250E+02 -0.84070845995E+01  0.21956192164E+02  0.38089379901E+02  0.51100000000E-03 0. -1.
        -11    1    3    3    0    0  0.26943462420E+01 -0.11150036688E+02 -0.15718025320E+01  0.11578142479E+02  0.51100000000E-03 0.  1.
        -12    1    3    3    0    0  0.28313119727E+02  0.19693388519E+02 -0.20925422982E+02  0.40340248227E+02  0.00000000000E+00 0.  1.
</event>
<event>
 7    1  0.1971192E-015  0.9000773E+02  0.7816164E-02  0.1186339E+00
        -11   -1    0    0    0    0  0.00000000000E+00  0.00000000000E+00  0.45593999997E+02  0.45594000000E+02  0.51100000000E-03 0.  1.
         11   -1    0    0    0    0 -0.00000000000E+00 -0.00000000000E+00 -0.45593999997E+02  0.45594000000E+02  0.51100000000E-03 0. -1.
    9900012    2    1    2    0    0 -0.11166852014E+01 -0.36566402727E+00  0.11109597508E+00  0.90007729550E+02  0.89999990780E+02 0.  0.
         12    1    1    2    0    0  0.11166852014E+01  0.36566402727E+00 -0.11109597508E+00  0.11802704501E+01  0.00000000000E+00 0. -1.
         11    1    3    3    0    0  0.35097009948E+02  0.96434238166E+01 -0.86686317788E+01  0.37415784201E+02  0.51100000000E-03 0. -1.
        -11    1    3    3    0    0  0.27359081453E+01  0.62374364392E+01  0.78317308417E+01  0.10379152901E+02  0.51100000000E-03 0.  1.
        -12    1    3    3    0    0 -0.38949603295E+02 -0.16246524283E+02  0.94799691212E+00  0.42212792448E+02  0.00000000000E+00 0.  1.
</event>
<event>
 7    1  0.1971192E-015  0.9000711E+02  0.7816164E-02  0.1186340E+00
        -11   -1    0    0    0    0  0.00000000000E+00  0.00000000000E+00  0.45593999997E+02  0.45594000000E+02  0.51100000000E-03 0. -1.
         11   -1    0    0    0    0 -0.00000000000E+00 -0.00000000000E+00 -0.45593999997E+02  0.45594000000E+02  0.51100000000E-03 0.  1.
    9900012    2    1    2    0    0  0.32414687004E+00  0.10979574143E+01 -0.28967219917E+00  0.90007114036E+02  0.89999367139E+02 0.  0.
         12    1    1    2    0    0 -0.32414687004E+00 -0.10979574143E+01  0.28967219917E+00  0.11808859640E+01  0.00000000000E+00 0. -1.
         11    1    3    3    0    0 -0.22361660771E+02  0.13795233198E+02  0.33366311077E+02  0.42469554349E+02  0.51100000000E-03 0. -1.
        -11    1    3    3    0    0  0.16996638809E+01 -0.90620852360E+01 -0.20832554017E+01  0.94525234441E+01  0.51100000000E-03 0.  1.
        -12    1    3    3    0    0  0.20986143760E+02 -0.36351905482E+01 -0.31572727874E+02  0.38085036243E+02  0.00000000000E+00 0.  1.
</event>
<event>
 7    1  0.1971192E-015  0.9000775E+02  0.7816164E-02  0.1186339E+00
        -11   -1    0    0    0    0  0.00000000000E+00  0.00000000000E+00  0.45593999997E+02  0.45594000000E+02  0.51100000000E-03 0. -1.
         11   -1    0    0    0    0 -0.00000000000E+00 -0.00000000000E+00 -0.45593999997E+02  0.45594000000E+02  0.51100000000E-03 0.  1.
    9900012    2    1    2    0    0 -0.11755090057E+01  0.80816538485E-01  0.68018374679E-01  0.90007754587E+02  0.90000016148E+02 0.  0.
         12    1    1    2    0    0  0.11755090057E+01 -0.80816538485E-01 -0.68018374679E-01  0.11802454129E+01  0.00000000000E+00 0. -1.
         11    1    3    3    0    0  0.58098402412E+01 -0.37970091993E+01 -0.65719551020E+01  0.95583532374E+01  0.51100000000E-03 0. -1.
        -11    1    3    3    0    0 -0.17249750258E+02 -0.30595295127E+02 -0.15307051836E+02  0.38313598161E+02  0.51100000000E-03 0.  1.
         12    1    3    3    0    0  0.10264401011E+02  0.34473120865E+02  0.21947025312E+02  0.42135803189E+02  0.00000000000E+00 0. -1.
</event>
<event>
 7    1  0.1971192E-015  0.9000782E+02  0.7816164E-02  0.1186339E+00
        -11   -1    0    0    0    0  0.00000000000E+00  0.00000000000E+00  0.45593999997E+02  0.45594000000E+02  0.51100000000E-03 0. -1.
         11   -1    0    0    0    0 -0.00000000000E+00 -0.00000000000E+00 -0.45593999997E+02  0.45594000000E+02  0.51100000000E-03 0.  1.
    9900012    2    1    2    0    0 -0.67778913458E+00  0.63710550308E+00 -0.72631393334E+00  0.90007816344E+02  0.90000078719E+02 0.  0.
         12    1    1    2    0    0  0.67778913458E+00 -0.63710550308E+00  0.72631393334E+00  0.11801836564E+01  0.00000000000E+00 0. -1.
         11    1    3    3    0    0  0.88614436426E+01  0.19322885531E+02  0.64905666654E+01  0.22226707912E+02  0.51100000000E-03 0. -1.
        -11    1    3    3    0    0  0.71867972666E+00  0.23420291202E+02 -0.69585787795E+01  0.24442756788E+02  0.51100000000E-03 0.  1.
         12    1    3    3    0    0 -0.10257912504E+02 -0.42106071230E+02 -0.25830181923E+00  0.43338351644E+02  0.00000000000E+00 0. -1.
</event>
<event>
 7    1  0.1971192E-015  0.9000756E+02  0.7816164E-02  0.1186339E+00
        -11   -1    0    0    0    0  0.00000000000E+00  0.00000000000E+00  0.45593999997E+02  0.45594000000E+02  0.51100000000E-03 0. -1.
         11   -1    0    0    0    0 -0.00000000000E+00 -0.00000000000E+00 -0.45593999997E+02  0.45594000000E+02  0.51100000000E-03 0.  1.
    9900012    2    1    2    0    0  0.66334543787E+00  0.96872096473E+00  0.12246301934E+00  0.90007557427E+02  0.89999816385E+02 0.  0.
         12    1    1    2    0    0 -0.66334543787E+00 -0.96872096473E+00 -0.12246301934E+00  0.11804425732E+01  0.00000000000E+00 0. -1.
         11    1    3    3    0    0 -0.17585279252E+02 -0.12557139857E+02 -0.25422753304E+02  0.33365254286E+02  0.51100000000E-03 0. -1.
        -11    1    3    3    0    0 -0.13959846845E+02  0.66601355100E+01  0.87033440839E+00  0.15491682000E+02  0.51100000000E-03 0.  1.
        -12    1    3    3    0    0  0.32208471535E+02  0.68657253120E+01  0.24674881915E+02  0.41150621140E+02  0.00000000000E+00 0.  1.
</event>
<event>
 7    1  0.1971192E-015  0.9000776E+02  0.7816164E-02  0.1186339E+00
        -11   -1    0    0    0    0  0.00000000000E+00  0.00000000000E+00  0.45593999997E+02  0.45594000000E+02  0.51100000000E-03 0.  1.
         11   -1    0    0    0    0 -0.00000000000E+00 -0.00000000000E+00 -0.45593999997E+02  0.45594000000E+02  0.51100000000E-03 0. -1.
    9900012    2    1    2    0    0  0.80838417365E+00 -0.32756499075E+00  0.79510510059E+00  0.90007755993E+02  0.90000017572E+02 0.  0.
         12    1    1    2    0    0 -0.80838417365E+00  0.32756499075E+00 -0.79510510059E+00  0.11802440071E+01  0.00000000000E+00 0. -1.
         11    1    3    3    0    0  0.98644098626E+00 -0.26426228002E+02 -0.29464991467E+02  0.39591720279E+02  0.51100000000E-03 0. -1.
        -11    1    3    3    0    0  0.60866896221E+01 -0.54377921367E+01  0.65897699956E+01  0.10490111664E+02  0.51100000000E-03 0.  1.
        -12    1    3    3    0    0 -0.62647464347E+01  0.31536455148E+02  0.23670326572E+02  0.39925924050E+02  0.00000000000E+00 0.  1.
</event>
<event>
 7    1  0.2452600E-015  0.9000773E+02  0.7816164E-02  0.1186339E+00
        -11   -1    0    0    0    0  0.00000000000E+00  0.00000000000E+00  0.45593999997E+02  0.45594000000E+02  0.51100000000E-03 0. -1.
         11   -1    0    0    0    0 -0.00000000000E+00 -0.00000000000E+00 -0.45593999997E+02  0.45594000000E+02  0.51100000000E-03 0.  1.
    9900012    2    1    2    0    0 -0.90058845271E+00  0.11371771593E+00 -0.75435089996E+00  0.90007730302E+02  0.89999991542E+02 0.  0.
         12    1    1    2    0    0  0.90058845271E+00 -0.11371771593E+00  0.75435089996E+00  0.11802696981E+01  0.00000000000E+00 0. -1.
         11    1    3    3    0    0 -0.11641095734E+02 -0.15138911511E+01  0.36768851350E+02  0.38597349730E+02  0.51100000000E-03 0. -1.
        -11    1    3    3    0    0 -0.37622360204E+01 -0.80665033368E+01  0.11597907990E+01  0.89759685223E+01  0.51100000000E-03 0.  1.
        -12    1    3    3    0    0  0.14502743302E+02  0.96941122038E+01 -0.38682993049E+02  0.42434412049E+02  0.00000000000E+00 0.  1.
</event>
<event>
 7    1  0.1971192E-015  0.9000765E+02  0.7816164E-02  0.1186339E+00
        -11   -1    0    0    0    0  0.00000000000E+00  0.00000000000E+00  0.45593999997E+02  0.45594000000E+02  0.51100000000E-03 0. -1.
         11   -1    0    0    0    0 -0.00000000000E+00 -0.00000000000E+00 -0.45593999997E+02  0.45594000000E+02  0.51100000000E-03 0.  1.
    9900012    2    1    2    0    0 -0.73188078694E+00  0.90948847064E+00 -0.17436899201E+00  0.90007651191E+02  0.89999911387E+02 0.  0.
         12    1    1    2    0    0  0.73188078694E+00 -0.90948847064E+00  0.17436899201E+00  0.11803488086E+01  0.00000000000E+00 0. -1.
         11    1    3    3    0    0 -0.44523618061E+01 -0.82535710860E+01 -0.11173329325E+01  0.94442254561E+01  0.51100000000E-03 0. -1.
        -11    1    3    3    0    0 -0.71978358185E+01 -0.27797019474E+01 -0.37798723089E+02  0.38578219902E+02  0.51100000000E-03 0.  1.
         12    1    3    3    0    0  0.10918316838E+02  0.11942761504E+02  0.38741687030E+02  0.41985205833E+02  0.00000000000E+00 0. -1.
</event>
<event>
 7    1  0.1971192E-015  0.9000774E+02  0.7816164E-02  0.1186339E+00
        -11   -1    0    0    0    0  0.00000000000E+00  0.00000000000E+00  0.45593999997E+02  0.45594000000E+02  0.51100000000E-03 0. -1.
         11   -1    0    0    0    0 -0.00000000000E+00 -0.00000000000E+00 -0.45593999997E+02  0.45594000000E+02  0.51100000000E-03 0.  1.
    9900012    2    1    2    0    0  0.11661931751E+01  0.11998823113E+00  0.13643629379E+00  0.90007737928E+02  0.89999999268E+02 0.  0.
         12    1    1    2    0    0 -0.11661931751E+01 -0.11998823113E+00 -0.13643629379E+00  0.11802620724E+01  0.00000000000E+00 0. -1.
         11    1    3    3    0    0  0.97455939456E+01  0.31179516234E+01  0.12051075858E+01  0.10302936874E+02  0.51100000000E-03 0. -1.
        -11    1    3    3    0    0  0.24157576944E+02 -0.15913274483E+02  0.23094190571E+02  0.37015705680E+02  0.51100000000E-03 0.  1.
         12    1    3    3    0    0 -0.32736977714E+02  0.12915311091E+02 -0.24162861863E+02  0.42689095374E+02  0.00000000000E+00 0. -1.
</event>
<event>
 7    1  0.1971192E-015  0.9000787E+02  0.7816164E-02  0.1186339E+00
        -11   -1    0    0    0    0  0.00000000000E+00  0.00000000000E+00  0.45593999997E+02  0.45594000000E+02  0.51100000000E-03 0.  1.
         11   -1    0    0    0    0 -0.00000000000E+00 -0.00000000000E+00 -0.45593999997E+02  0.45594000000E+02  0.51100000000E-03 0. -1.
    9900012    2    1    2    0    0  0.76909218350E+00 -0.84430977040E+00  0.29723540643E+00  0.90007868371E+02  0.90000131433E+02 0.  0.
         12    1    1    2    0    0 -0.76909218350E+00  0.84430977040E+00 -0.29723540643E+00  0.11801316291E+01  0.00000000000E+00 0. -1.
         11    1    3    3    0    0 -0.23692947700E+01 -0.70314635010E+01  0.11034233891E+02  0.13296967868E+02  0.51100000000E-03 0. -1.
        -11    1    3    3    0    0 -0.64618200665E+01  0.33211378198E+02  0.16067863963E+02  0.37455667301E+02  0.51100000000E-03 0.  1.
         12    1    3    3    0    0  0.96002070200E+01 -0.27024224468E+02 -0.26804862447E+02  0.39255233202E+02  0.00000000000E+00 0. -1.
</event>
<event>
 7    1  0.1971192E-015  0.9000778E+02  0.7816164E-02  0.1186339E+00
        -11   -1    0    0    0    0  0.00000000000E+00  0.00000000000E+00  0.45593999997E+02  0.45594000000E+02  0.51100000000E-03 0.  1.
         11   -1    0    0    0    0 -0.00000000000E+00 -0.00000000000E+00 -0.45593999997E+02  0.45594000000E+02  0.51100000000E-03 0. -1.
    9900012    2    1    2    0    0  0.92893090582E-03  0.11140884997E+01 -0.38950876586E+00  0.90007783441E+02  0.90000045382E+02 0.  0.
         12    1    1    2    0    0 -0.92893090582E-03 -0.11140884997E+01  0.38950876586E+00  0.11802165592E+01  0.00000000000E+00 0. -1.
         11    1    3    3    0    0  0.36786039450E+01  0.85501740263E+01  0.40180107204E+00  0.93166006261E+01  0.51100000000E-03 0. -1.
        -11    1    3    3    0    0  0.26631737914E+02  0.14879758332E+01  0.27477883979E+02  0.38294877525E+02  0.51100000000E-03 0.  1.
         12    1    3    3    0    0 -0.30309412928E+02 -0.89240613598E+01 -0.28269193817E+02  0.42396305290E+02  0.00000000000E+00 0. -1.
</event>
<event>
 8    1  0.1971192E-015  0.9000778E+02  0.7816164E-02  0.1186339E+00
        -11   -1    0    0    0    0  0.00000000000E+00  0.00000000000E+00  0.45593999997E+02  0.45594000000E+02  0.51100000000E-03 0.  1.
         11   -1    0    0    0    0 -0.00000000000E+00 -0.00000000000E+00 -0.45593999997E+02  0.45594000000E+02  0.51100000000E-03 0. -1.
    9900012    2    1    2    0    0  0.48205922316E+00  0.70511918910E-01  0.10749737032E+01  0.90007779051E+02  0.90000040935E+02 0.  0.
         23    2    3    3    0    0 -0.15534998818E+01 -0.95295098578E+01  0.23788795539E+02  0.65264666446E+02  0.60002874707E+02 0.  0.
         12    1    1    2    0    0 -0.48205922316E+00 -0.70511918910E-01 -0.10749737032E+01  0.11802209488E+01  0.00000000000E+00 0. -1.
         11    1    4    4    0    0 -0.14144171466E+02  0.21875020631E+02  0.48721624252E+01  0.26501171315E+02  0.51100000000E-03 0. -1.
        -11    1    4    4    0    0  0.12590671584E+02 -0.31404530489E+02  0.18916633114E+02  0.38763495132E+02  0.51100000000E-03 0.  1.
         12    1    3    3    0    0  0.20355591049E+01  0.96000217768E+01 -0.22713821836E+02  0.24743112605E+02  0.00000000000E+00 0. -1.
</event>
<event>
 7    1  0.2515639E-015  0.9000782E+02  0.7816164E-02  0.1186339E+00
        -11   -1    0    0    0    0  0.00000000000E+00  0.00000000000E+00  0.45593999997E+02  0.45594000000E+02  0.51100000000E-03 0. -1.
         11   -1    0    0    0    0 -0.00000000000E+00 -0.00000000000E+00 -0.45593999997E+02  0.45594000000E+02  0.51100000000E-03 0.  1.
    9900012    2    1    2    0    0 -0.72138666062E+00  0.70114304359E+00 -0.61711882945E+00  0.90007815298E+02  0.90000077660E+02 0.  0.
         12    1    1    2    0    0  0.72138666062E+00 -0.70114304359E+00  0.61711882945E+00  0.11801847022E+01  0.00000000000E+00 0. -1.
         11    1    3    3    0    0 -0.13154883849E+02  0.26214992612E+01  0.35815191276E+02  0.38244622548E+02  0.51100000000E-03 0. -1.
        -11    1    3    3    0    0 -0.47221904954E+01  0.82876272159E+01  0.74247307934E+00  0.95673985221E+01  0.51100000000E-03 0.  1.
        -12    1    3    3    0    0  0.17155687684E+02 -0.10207983433E+02 -0.37174783185E+02  0.42195794228E+02  0.00000000000E+00 0.  1.
</event>
<event>
 7    1  0.1971192E-015  0.9000771E+02  0.7816164E-02  0.1186339E+00
        -11   -1    0    0    0    0  0.00000000000E+00  0.00000000000E+00  0.45593999997E+02  0.45594000000E+02  0.51100000000E-03 0.  1.
         11   -1    0    0    0    0 -0.00000000000E+00 -0.00000000000E+00 -0.45593999997E+02  0.45594000000E+02  0.51100000000E-03 0. -1.
    9900012    2    1    2    0    0  0.11027071817E+01  0.22116322435E+00  0.35807254471E+00  0.90007706711E+02  0.89999967640E+02 0.  0.
         12    1    1    2    0    0 -0.11027071817E+01 -0.22116322435E+00 -0.35807254471E+00  0.11802932888E+01  0.00000000000E+00 0. -1.
         11    1    3    3    0    0  0.41040832501E+02  0.12383415749E+02 -0.95908293585E+01  0.43928156416E+02  0.51100000000E-03 0. -1.
        -11    1    3    3    0    0 -0.41846546701E+01  0.12096302184E+01  0.64013336299E+01  0.77428426612E+01  0.51100000000E-03 0.  1.
        -12    1    3    3    0    0 -0.35753470650E+02 -0.13371882743E+02  0.35475682733E+01  0.38336707634E+02  0.00000000000E+00 0.  1.
</event>
<event>
 7    1  0.1971192E-015  0.9000793E+02  0.7816164E-02  0.1186339E+00
        -11   -1    0    0    0    0  0.00000000000E+00  0.00000000000E+00  0.45593999997E+02  0.45594000000E+02  0.51100000000E-03 0. -1.
         11   -1    0    0    0    0 -0.00000000000E+00 -0.00000000000E+00 -0.45593999997E+02  0.45594000000E+02  0.51100000000E-03 0.  1.
    9900012    2    1    2    0    0  0.61236137544E+00 -0.26372778424E+00 -0.97366368795E+00  0.90007932300E+02  0.90000196207E+02 0.  0.
         12    1    1    2    0    0 -0.61236137544E+00  0.26372778424E+00  0.97366368795E+00  0.11800676996E+01  0.00000000000E+00 0. -1.
         11    1    3    3    0    0 -0.39817889096E+02  0.81668502225E+01 -0.39920059834E+01  0.40842353588E+02  0.51100000000E-03 0. -1.
        -11    1    3    3    0    0  0.34787148266E+01  0.77362210913E+01 -0.13770195168E+01  0.85934135609E+01  0.51100000000E-03 0.  1.
         12    1    3    3    0    0  0.36951535645E+02 -0.16166799098E+02  0.43953618122E+01  0.40572165151E+02  0.00000000000E+00 0. -1.
</event>
<event>
 7    1  0.1971192E-015  0.9000754E+02  0.7816164E-02  0.1186339E+00
        -11   -1    0    0    0    0  0.00000000000E+00  0.00000000000E+00  0.45593999997E+02  0.45594000000E+02  0.51100000000E-03 0.  1.
         11   -1    0    0    0    0 -0.00000000000E+00 -0.00000000000E+00 -0.45593999997E+02  0.45594000000E+02  0.51100000000E-03 0. -1.
    9900012    2    1    2    0    0 -0.67040696709E+00  0.12332754374E+00  0.96376329256E+00  0.90007536164E+02  0.89999794841E+02 0.  0.
         12    1    1    2    0    0  0.67040696709E+00 -0.12332754374E+00 -0.96376329256E+00  0.11804638362E+01  0.00000000000E+00 0. -1.
         11    1    3    3    0    0 -0.20842973898E+02 -0.35580991364E+02 -0.69147126811E+01  0.41812076713E+02  0.51100000000E-03 0. -1.
        -11    1    3    3    0    0  0.29339548417E+01 -0.48868097651E+00  0.75398702572E+01  0.81053404535E+01  0.51100000000E-03 0.  1.
        -12    1    3    3    0    0  0.17238612089E+02  0.36192999884E+02  0.33860571643E+00  0.40090118997E+02  0.00000000000E+00 0.  1.
</event>
<event>
 7    1  0.1971192E-015  0.9000771E+02  0.7816164E-02  0.1186339E+00
        -11   -1    0    0    0    0  0.00000000000E+00  0.00000000000E+00  0.45593999997E+02  0.45594000000E+02  0.51100000000E-03 0. -1.
         11   -1    0    0    0    0 -0.00000000000E+00 -0.00000000000E+00 -0.45593999997E+02  0.45594000000E+02  0.51100000000E-03 0.  1.
    9900012    2    1    2    0    0  0.70311779689E+00 -0.79407232357E+00 -0.51783013509E+00  0.90007714636E+02  0.89999975669E+02 0.  0.
         12    1    1    2    0    0 -0.70311779689E+00  0.79407232357E+00  0.51783013509E+00  0.11802853639E+01  0.00000000000E+00 0. -1.
         11    1    3    3    0    0  0.24418953032E+01 -0.66174550938E+01  0.13111543889E+02  0.14888456871E+02  0.51100000000E-03 0. -1.
        -11    1    3    3    0    0 -0.22726176433E+02  0.30101783065E+02 -0.19553933519E+02  0.42484735556E+02  0.51100000000E-03 0.  1.
         12    1    3    3    0    0  0.20987398927E+02 -0.24278400295E+02  0.59245594949E+01  0.32634522209E+02  0.00000000000E+00 0. -1.
</event>
<event>
 7    1  0.1971192E-015  0.9000794E+02  0.7816164E-02  0.1186339E+00
        -11   -1    0    0    0    0  0.00000000000E+00  0.00000000000E+00  0.45593999997E+02  0.45594000000E+02  0.51100000000E-03 0. -1.
         11   -1    0    0    0    0 -0.00000000000E+00 -0.00000000000E+00 -0.45593999997E+02  0.45594000000E+02  0.51100000000E-03 0.  1.
    9900012    2    1    2    0    0 -0.28047932511E+00 -0.10575813108E+01 -0.44203173841E+00  0.90007941129E+02  0.90000205152E+02 0.  0.
         12    1    1    2    0    0  0.28047932511E+00  0.10575813108E+01  0.44203173841E+00  0.11800588708E+01  0.00000000000E+00 0. -1.
         11    1    3    3    0    0  0.81872402092E+01  0.13925943250E+02  0.31625256588E+02  0.35512246509E+02  0.51100000000E-03 0. -1.
        -11    1    3    3    0    0 -0.17605043222E+01  0.11724319307E+02  0.47582917306E+00  0.11865304562E+02  0.51100000000E-03 0.  1.
        -12    1    3    3    0    0 -0.67072152122E+01 -0.26707843868E+02 -0.32543117499E+02  0.42630390058E+02  0.00000000000E+00 0.  1.
</event>
<event>
 7    1  0.1971192E-015  0.9000766E+02  0.7816164E-02  0.1186339E+00
        -11   -1    0    0    0    0  0.00000000000E+00  0.00000000000E+00  0.45593999997E+02  0.45594000000E+02  0.51100000000E-03 0. -1.
         11   -1    0    0    0    0 -0.00000000000E+00 -0.00000000000E+00 -0.45593999997E+02  0.45594000000E+02  0.51100000000E-03 0.  1.
    9900012    2    1    2    0    0  0.80272355722E+00  0.48309918703E+00 -0.71795004826E+00  0.90007660131E+02  0.89999920445E+02 0.  0.
         12    1    1    2    0    0 -0.80272355722E+00 -0.48309918703E+00  0.71795004826E+00  0.11803398687E+01  0.00000000000E+00 0. -1.
         11    1    3    3    0    0 -0.71946735692E+01 -0.54322023479E+01  0.96934437807E+00  0.90670711313E+01  0.51100000000E-03 0. -1.
        -11    1    3    3    0    0 -0.34840529145E+02 -0.81788941817E+01 -0.19848876963E+01  0.35842663971E+02  0.51100000000E-03 0.  1.
         12    1    3    3    0    0  0.42837926271E+02  0.14094195717E+02  0.29759326995E+00  0.45097925029E+02  0.00000000000E+00 0. -1.
</event>
<event>
 7    1  0.1971192E-015  0.9000768E+02  0.7816164E-02  0.1186339E+00
        -11   -1    0    0    0    0  0.00000000000E+00  0.00000000000E+00  0.45593999997E+02  0.45594000000E+02  0.51100000000E-03 0.  1.
         11   -1    0    0    0    0 -0.00000000000E+00 -0.00000000000E+00 -0.45593999997E+02  0.45594000000E+02  0.51100000000E-03 0. -1.
    9900012    2    1    2    0    0 -0.51154163109E+00 -0.10202584645E+01  0.30090256497E+00  0.90007684564E+02  0.89999945200E+02 0.  0.
         12    1    1    2    0    0  0.51154163109E+00  0.10202584645E+01 -0.30090256497E+00  0.11803154359E+01  0.00000000000E+00 0. -1.
         11    1    3    3    0    0  0.15077820058E+02  0.96912118293E+01 -0.18131967486E+02  0.25495656289E+02  0.51100000000E-03 0. -1.
        -11    1    3    3    0    0 -0.31044733825E+01  0.17734018261E+02  0.26849844583E+02  0.32327191544E+02  0.51100000000E-03 0.  1.
        -12    1    3    3    0    0 -0.12484888307E+02 -0.28445488555E+02 -0.84169745325E+01  0.32184836732E+02  0.00000000000E+00 0.  1.
</event>
<event>
 7    1  0.1971192E-015  0.9000772E+02  0.7816164E-02  0.1186339E+00
        -11   -1    0    0    0    0  0.00000000000E+00  0.00000000000E+00  0.45593999997E+02  0.45594000000E+02  0.51100000000E-03 0.  1.
         11   -1    0    0    0    0 -0.00000000000E+00 -0.00000000000E+00 -0.45593999997E+02  0.45594000000E+02  0.51100000000E-03 0. -1.
    9900012    2    1    2    0    0  0.40638585876E-01  0.30714009971E+00  0.11388966345E+01  0.90007715255E+02  0.89999976296E+02 0.  0.
         12    1    1    2    0    0 -0.40638585876E-01 -0.30714009971E+00 -0.11388966345E+01  0.11802847452E+01  0.00000000000E+00 0. -1.
         11    1    3    3    0    0  0.22735352238E+02 -0.14588270448E+02 -0.18379995890E+02  0.32673201943E+02  0.51100000000E-03 0. -1.
        -11    1    3    3    0    0  0.68033634177E+01 -0.56095076899E+01 -0.81363227780E+01  0.11998003122E+02  0.51100000000E-03 0.  1.
        -12    1    3    3    0    0 -0.29498077070E+02  0.20504918237E+02  0.27655215303E+02  0.45336510189E+02  0.00000000000E+00 0.  1.
</event>
<event>
 7    1  0.1971192E-015  0.9000760E+02  0.7816164E-02  0.1186339E+00
        -11   -1    0    0    0    0  0.00000000000E+00  0.00000000000E+00  0.45593999997E+02  0.45594000000E+02  0.51100000000E-03 0. -1.
         11   -1    0    0    0    0 -0.00000000000E+00 -0.00000000000E+00 -0.45593999997E+02  0.45594000000E+02  0.51100000000E-03 0.  1.
    9900012    2    1    2    0    0 -0.88369541194E+00 -0.68789764478E+00  0.37312782786E+00  0.90007599591E+02  0.89999859105E+02 0.  0.
         12    1    1    2    0    0  0.88369541194E+00  0.68789764478E+00 -0.37312782786E+00  0.11804004095E+01  0.00000000000E+00 0. -1.
         11    1    3    3    0    0 -0.25861515187E+02 -0.26678755475E+02  0.19663040670E+01  0.37208067854E+02  0.51100000000E-03 0. -1.
        -11    1    3    3    0    0 -0.78119526893E+01  0.11054000893E+02 -0.86769674005E+01  0.16078162336E+02  0.51100000000E-03 0.  1.
        -12    1    3    3    0    0  0.32789772464E+02  0.14936856937E+02  0.70837911614E+01  0.36721369401E+02  0.00000000000E+00 0.  1.
</event>
<event>
 7    1  0.1971192E-015  0.9000769E+02  0.7816164E-02  0.1186339E+00
        -11   -1    0    0    0    0  0.00000000000E+00  0.00000000000E+00  0.45593999997E+02  0.45594000000E+02  0.51100000000E-03 0.  1.
         11   -1    0    0    0    0 -0.00000000000E+00 -0.00000000000E+00 -0.45593999997E+02  0.45594000000E+02  0.51100000000E-03 0. -1.
    9900012    2    1    2    0    0 -0.43969247098E-01  0.27523815422E-01  0.11791650376E+01  0.90007694514E+02  0.89999955281E+02 0.  0.
         12    1    1    2    0    0  0.43969247098E-01 -0.27523815422E-01 -0.11791650376E+01  0.11803054863E+01  0.00000000000E+00 0. -1.
         11    1    3    3    0    0 -0.55024738622E+01  0.33740829424E+02  0.26831510730E+01  0.34291691249E+02  0.51100000000E-03 0. -1.
        -11    1    3    3    0    0  0.95434081151E+01  0.37324893919E+01 -0.12794551219E+02  0.16392335302E+02  0.51100000000E-03 0.  1.
        -12    1    3    3    0    0 -0.40849035000E+01 -0.37445795000E+02  0.11290565184E+02  0.39323667962E+02  0.00000000000E+00 0.  1.
</event>
<event>
 7    1  0.1971192E-015  0.9000782E+02  0.7816164E-02  0.1186339E+00
        -11   -1    0    0    0    0  0.00000000000E+00  0.00000000000E+00  0.45593999997E+02  0.45594000000E+02  0.51100000000E-03 0.  1.
         11   -1    0    0    0    0 -0.00000000000E+00 -0.00000000000E+00 -0.45593999997E+02  0.45594000000E+02  0.51100000000E-03 0. -1.
    9900012    2    1    2    0    0  0.93295179766E+00 -0.90691396603E-01  0.71707331306E+00  0.90007822843E+02  0.90000085304E+02 0.  0.
         12    1    1    2    0    0 -0.93295179766E+00  0.90691396603E-01 -0.71707331306E+00  0.11801771572E+01  0.00000000000E+00 0. -1.
         11    1    3    3    0    0  0.68444892645E+01 -0.68300508128E+01 -0.60366484794E-01  0.96695538558E+01  0.51100000000E-03 0. -1.
        -11    1    3    3    0    0 -0.33403142865E+02 -0.22353164073E+02  0.25382219232E+01  0.40272527461E+02  0.51100000000E-03 0.  1.
         12    1    3    3    0    0  0.27491605398E+02  0.29092523489E+02 -0.17607821254E+01  0.40065741526E+02  0.00000000000E+00 0. -1.
</event>
<event>
 7    1  0.1971192E-015  0.9000765E+02  0.7816164E-02  0.1186339E+00
        -11   -1    0    0    0    0  0.00000000000E+00  0.00000000000E+00  0.45593999997E+02  0.45594000000E+02  0.51100000000E-03 0.  1.
         11   -1    0    0    0    0 -0.00000000000E+00 -0.00000000000E+00 -0.45593999997E+02  0.45594000000E+02  0.51100000000E-03 0. -1.
    9900012    2    1    2    0    0  0.62752902148E+00 -0.32043505091E+00  0.94697472725E+00  0.90007647329E+02  0.89999907473E+02 0.  0.
         12    1    1    2    0    0 -0.62752902148E+00  0.32043505091E+00 -0.94697472725E+00  0.11803526713E+01  0.00000000000E+00 0. -1.
         11    1    3    3    0    0 -0.18908061619E+02  0.24748330016E+02 -0.25181758227E+02  0.40051411716E+02  0.51100000000E-03 0. -1.
        -11    1    3    3    0    0 -0.53045491045E+01 -0.10242787441E+02  0.89598948015E+00  0.11569603847E+02  0.51100000000E-03 0.  1.
        -12    1    3    3    0    0  0.24840139745E+02 -0.14825977626E+02  0.25232743474E+02  0.38386631766E+02  0.00000000000E+00 0.  1.
</event>
<event>
 7    1  0.1971192E-015  0.9000786E+02  0.7816164E-02  0.1186339E+00
        -11   -1    0    0    0    0  0.00000000000E+00  0.00000000000E+00  0.45593999997E+02  0.45594000000E+02  0.51100000000E-03 0.  1.
         11   -1    0    0    0    0 -0.00000000000E+00 -0.00000000000E+00 -0.45593999997E+02  0.45594000000E+02  0.51100000000E-03 0. -1.
    9900012    2    1    2    0    0  0.10491985879E+01  0.51940158080E+00 -0.14879251932E+00  0.90007858105E+02  0.90000121032E+02 0.  0.
         12    1    1    2    0    0 -0.10491985879E+01 -0.51940158080E+00  0.14879251932E+00  0.11801418952E+01  0.00000000000E+00 0. -1.
         11    1    3    3    0    0  0.36929622002E+02 -0.88968600690E+00 -0.19217351477E+02  0.41640066288E+02  0.51100000000E-03 0. -1.
        -11    1    3    3    0    0 -0.15156627407E+01  0.89896255260E+01  0.55288316527E+01  0.10662015773E+02  0.51100000000E-03 0.  1.
        -12    1    3    3    0    0 -0.34364760673E+02 -0.75805379383E+01  0.13539727305E+02  0.37705776044E+02  0.00000000000E+00 0.  1.
</event>
<event>
 7    1  0.1971192E-015  0.9000760E+02  0.7816164E-02  0.1186339E+00
        -11   -1    0    0    0    0  0.00000000000E+00  0.00000000000E+00  0.45593999997E+02  0.45594000000E+02  0.51100000000E-03 0. -1.
         11   -1    0    0    0    0 -0.00000000000E+00 -0.00000000000E+00 -0.45593999997E+02  0.45594000000E+02  0.51100000000E-03 0.  1.
    9900012    2    1    2    0    0  0.10101046056E+01 -0.41714644771E+00 -0.44612197192E+00  0.90007598675E+02  0.89999858178E+02 0.  0.
         12    1    1    2    0    0 -0.10101046056E+01  0.41714644771E+00  0.44612197192E+00  0.11804013246E+01  0.00000000000E+00 0. -1.
         11    1    3    3    0    0 -0.37021542635E+01  0.22000344633E+01  0.39573528514E+01  0.58486528092E+01  0.51100000000E-03 0. -1.
        -11    1    3    3    0    0 -0.22007119599E+02  0.53211687979E+01  0.31445605996E+02  0.38748603680E+02  0.51100000000E-03 0.  1.
         12    1    3    3    0    0  0.26719378468E+02 -0.79383497090E+01 -0.35849080820E+02  0.45410342186E+02  0.00000000000E+00 0. -1.
</event>
<event>
 7    1  0.1971192E-015  0.9000776E+02  0.7816164E-02  0.1186339E+00
        -11   -1    0    0    0    0  0.00000000000E+00  0.00000000000E+00  0.45593999997E+02  0.45594000000E+02  0.51100000000E-03 0. -1.
         11   -1    0    0    0    0 -0.00000000000E+00 -0.00000000000E+00 -0.45593999997E+02  0.45594000000E+02  0.51100000000E-03 0.  1.
    9900012    2    1    2    0    0  0.77769232876E+00 -0.79567622364E+00  0.39378720223E+00  0.90007756647E+02  0.90000018235E+02 0.  0.
         12    1    1    2    0    0 -0.77769232876E+00  0.79567622364E+00 -0.39378720223E+00  0.11802433528E+01  0.00000000000E+00 0. -1.
         11    1    3    3    0    0  0.44715416688E+00 -0.55579205696E+01 -0.74918125398E+01  0.93390408126E+01  0.51100000000E-03 0. -1.
        -11    1    3    3    0    0 -0.56763025763E+01  0.41098429587E+02 -0.46870863371E+01  0.41752486202E+02  0.51100000000E-03 0.  1.
         12    1    3    3    0    0  0.60068407382E+01 -0.36336185241E+02  0.12572686079E+02  0.38916229632E+02  0.00000000000E+00 0. -1.
</event>
<event>
 7    1  0.1971192E-015  0.9000775E+02  0.7816164E-02  0.1186339E+00
        -11   -1    0    0    0    0  0.00000000000E+00  0.00000000000E+00  0.45593999997E+02  0.45594000000E+02  0.51100000000E-03 0.  1.
         11   -1    0    0    0    0 -0.00000000000E+00 -0.00000000000E+00 -0.45593999997E+02  0.45594000000E+02  0.51100000000E-03 0. -1.
    9900012    2    1    2    0    0 -0.25587126526E+00 -0.74232914545E+00  0.88117798481E+00  0.90007746932E+02  0.90000008391E+02 0.  0.
         12    1    1    2    0    0  0.25587126526E+00  0.74232914545E+00 -0.88117798481E+00  0.11802530684E+01  0.00000000000E+00 0. -1.
         11    1    3    3    0    0 -0.73060088221E+01  0.59253317882E+01 -0.23650532384E+01  0.96995256992E+01  0.51100000000E-03 0. -1.
        -11    1    3    3    0    0  0.13786595969E+02  0.24789758403E+02  0.27892507649E+02  0.39781834212E+02  0.51100000000E-03 0.  1.
         12    1    3    3    0    0 -0.67364584118E+01 -0.31457419337E+02 -0.24646276426E+02  0.40526387020E+02  0.00000000000E+00 0. -1.
</event>
<event>
 7    1  0.1971192E-015  0.9000773E+02  0.7816164E-02  0.1186339E+00
        -11   -1    0    0    0    0  0.00000000000E+00  0.00000000000E+00  0.45593999997E+02  0.45594000000E+02  0.51100000000E-03 0. -1.
         11   -1    0    0    0    0 -0.00000000000E+00 -0.00000000000E+00 -0.45593999997E+02  0.45594000000E+02  0.51100000000E-03 0.  1.
    9900012    2    1    2    0    0 -0.10433847063E+01  0.19755307558E+00 -0.51513674992E+00  0.90007726839E+02  0.89999988033E+02 0.  0.
         12    1    1    2    0    0  0.10433847063E+01 -0.19755307558E+00  0.51513674992E+00  0.11802731608E+01  0.00000000000E+00 0. -1.
         11    1    3    3    0    0 -0.21747850256E+02 -0.26342436583E+02  0.16675780307E+02  0.38012821587E+02  0.51100000000E-03 0. -1.
        -11    1    3    3    0    0 -0.37671823493E+01 -0.67050428772E+01 -0.39284832626E+01  0.86361011946E+01  0.51100000000E-03 0.  1.
        -12    1    3    3    0    0  0.24471647899E+02  0.33245032536E+02 -0.13262433794E+02  0.43358804058E+02  0.00000000000E+00 0.  1.
</event>
<event>
 7    1  0.1971192E-015  0.9000777E+02  0.7816164E-02  0.1186339E+00
        -11   -1    0    0    0    0  0.00000000000E+00  0.00000000000E+00  0.45593999997E+02  0.45594000000E+02  0.51100000000E-03 0.  1.
         11   -1    0    0    0    0 -0.00000000000E+00 -0.00000000000E+00 -0.45593999997E+02  0.45594000000E+02  0.51100000000E-03 0. -1.
    9900012    2    1    2    0    0  0.10062548849E+01  0.14510927556E+00  0.59944047168E+00  0.90007773550E+02  0.90000035360E+02 0.  0.
         12    1    1    2    0    0 -0.10062548849E+01 -0.14510927556E+00 -0.59944047168E+00  0.11802264505E+01  0.00000000000E+00 0. -1.
         11    1    3    3    0    0  0.56050287214E+01 -0.17906017342E+02 -0.28928536515E+02  0.34480458656E+02  0.51100000000E-03 0. -1.
        -11    1    3    3    0    0  0.50218004291E+01 -0.60514314708E+01 -0.71287488340E+01  0.10614017269E+02  0.51100000000E-03 0.  1.
        -12    1    3    3    0    0 -0.96205742655E+01  0.24102558088E+02  0.36656725820E+02  0.44913297624E+02  0.00000000000E+00 0.  1.
</event>
<event>
 7    1  0.1971192E-015  0.9000776E+02  0.7816164E-02  0.1186339E+00
        -11   -1    0    0    0    0  0.00000000000E+00  0.00000000000E+00  0.45593999997E+02  0.45594000000E+02  0.51100000000E-03 0.  1.
         11   -1    0    0    0    0 -0.00000000000E+00 -0.00000000000E+00 -0.45593999997E+02  0.45594000000E+02  0.51100000000E-03 0. -1.
    9900012    2    1    2    0    0 -0.11547797204E+01 -0.22253286449E+00  0.99610190320E-01  0.90007763046E+02  0.90000024718E+02 0.  0.
         12    1    1    2    0    0  0.11547797204E+01  0.22253286449E+00 -0.99610190320E-01  0.11802369544E+01  0.00000000000E+00 0. -1.
         11    1    3    3    0    0  0.28353484644E+02 -0.20606054168E+02 -0.76733096469E-01  0.35050470012E+02  0.51100000000E-03 0. -1.
        -11    1    3    3    0    0  0.10470237836E+02  0.22117051947E+01  0.24705561359E+01  0.10982766869E+02  0.51100000000E-03 0.  1.
        -12    1    3    3    0    0 -0.39978502200E+02  0.18171816109E+02 -0.22942128491E+01  0.43974526165E+02  0.00000000000E+00 0.  1.
</event>
<event>
 7    1  0.1971192E-015  0.9000766E+02  0.7816164E-02  0.1186339E+00
        -11   -1    0    0    0    0  0.00000000000E+00  0.00000000000E+00  0.45593999997E+02  0.45594000000E+02  0.51100000000E-03 0.  1.
         11   -1    0    0    0    0 -0.00000000000E+00 -0.00000000000E+00 -0.45593999997E+02  0.45594000000E+02  0.51100000000E-03 0. -1.
    9900012    2    1    2    0    0 -0.32169490388E+00 -0.80916015300E+00  0.79685834674E+00  0.90007656411E+02  0.89999916675E+02 0.  0.
         12    1    1    2    0    0  0.32169490388E+00  0.80916015300E+00 -0.79685834674E+00  0.11803435894E+01  0.00000000000E+00 0. -1.
         11    1    3    3    0    0  0.49586469471E+01 -0.54803694662E+01  0.30886343545E+01  0.80101367947E+01  0.51100000000E-03 0. -1.
        -11    1    3    3    0    0 -0.10534931236E+02  0.87500162904E+01  0.38398281419E+02  0.40767334686E+02  0.51100000000E-03 0.  1.
         12    1    3    3    0    0  0.52545893850E+01 -0.40788069772E+01 -0.40690057427E+02  0.41230184930E+02  0.00000000000E+00 0. -1.
</event>
<event>
 7    1  0.1971192E-015  0.9000777E+02  0.7816164E-02  0.1186339E+00
        -11   -1    0    0    0    0  0.00000000000E+00  0.00000000000E+00  0.45593999997E+02  0.45594000000E+02  0.51100000000E-03 0.  1.
         11   -1    0    0    0    0 -0.00000000000E+00 -0.00000000000E+00 -0.45593999997E+02  0.45594000000E+02  0.51100000000E-03 0. -1.
    9900012    2    1    2    0    0 -0.11603085436E+01 -0.17316202352E+00 -0.12895891990E+00  0.90007774850E+02  0.90000036678E+02 0.  0.
         12    1    1    2    0    0  0.11603085436E+01  0.17316202352E+00  0.12895891990E+00  0.11802251504E+01  0.00000000000E+00 0. -1.
         11    1    3    3    0    0  0.11634610912E+02 -0.10472439375E+02  0.17579117609E+02  0.23538511714E+02  0.51100000000E-03 0. -1.
        -11    1    3    3    0    0  0.18201370875E+02  0.22649539403E+02 -0.80962864706E+00  0.29067972679E+02  0.51100000000E-03 0.  1.
         12    1    3    3    0    0 -0.30996290330E+02 -0.12350262051E+02 -0.16898447882E+02  0.37401290456E+02  0.00000000000E+00 0. -1.
</event>
<event>
 7    1  0.1971192E-015  0.9000769E+02  0.7816164E-02  0.1186339E+00
        -11   -1    0    0    0    0  0.00000000000E+00  0.00000000000E+00  0.45593999997E+02  0.45594000000E+02  0.51100000000E-03 0.  1.
         11   -1    0    0    0    0 -0.00000000000E+00 -0.00000000000E+00 -0.45593999997E+02  0.45594000000E+02  0.51100000000E-03 0. -1.
    9900012    2    1    2    0    0  0.11647869296E+01 -0.17975577260E+00 -0.64044239465E-01  0.90007685468E+02  0.89999946116E+02 0.  0.
         12    1    1    2    0    0 -0.11647869296E+01  0.17975577260E+00  0.64044239465E-01  0.11803145317E+01  0.00000000000E+00 0. -1.
         11    1    3    3    0    0  0.19961787598E+02 -0.37210479989E+02 -0.59071164830E+01  0.42637856542E+02  0.51100000000E-03 0. -1.
        -11    1    3    3    0    0  0.42969303969E+01  0.76452668374E+01 -0.24100767766E+01  0.90951737851E+01  0.51100000000E-03 0.  1.
        -12    1    3    3    0    0 -0.23093931066E+02  0.29385457379E+02  0.82531490201E+01  0.38274655141E+02  0.00000000000E+00 0.  1.
</event>
<event>
 7    1  0.1971192E-015  0.9000769E+02  0.7816164E-02  0.1186339E+00
        -11   -1    0    0    0    0  0.00000000000E+00  0.00000000000E+00  0.45593999997E+02  0.45594000000E+02  0.51100000000E-03 0. -1.
         11   -1    0    0    0    0 -0.00000000000E+00 -0.00000000000E+00 -0.45593999997E+02  0.45594000000E+02  0.51100000000E-03 0.  1.
    9900012    2    1    2    0    0 -0.97324979275E+00  0.33734401593E+00 -0.57629464955E+00  0.90007690012E+02  0.89999950720E+02 0.  0.
         12    1    1    2    0    0  0.97324979275E+00 -0.33734401593E+00  0.57629464955E+00  0.11803099878E+01  0.00000000000E+00 0. -1.
         11    1    3    3    0    0 -0.32383093056E+01 -0.12694275623E+02  0.32861689129E+02  0.35376855336E+02  0.51100000000E-03 0. -1.
        -11    1    3    3    0    0  0.27635506702E+00 -0.42854208426E+01  0.83298992582E+01  0.93716821240E+01  0.51100000000E-03 0.  1.
        -12    1    3    3    0    0  0.19887044458E+01  0.17317040482E+02 -0.41767883037E+02  0.45259152553E+02  0.00000000000E+00 0.  1.
</event>
<event>
 7    1  0.1971192E-015  0.9000775E+02  0.7816164E-02  0.1186339E+00
        -11   -1    0    0    0    0  0.00000000000E+00  0.00000000000E+00  0.45593999997E+02  0.45594000000E+02  0.51100000000E-03 0. -1.
         11   -1    0    0    0    0 -0.00000000000E+00 -0.00000000000E+00 -0.45593999997E+02  0.45594000000E+02  0.51100000000E-03 0.  1.
    9900012    2    1    2    0    0 -0.23282284246E+00  0.68073279721E+00 -0.93562145562E+00  0.90007749550E+02  0.90000011044E+02 0.  0.
         12    1    1    2    0    0  0.23282284246E+00 -0.68073279721E+00  0.93562145562E+00  0.11802504503E+01  0.00000000000E+00 0. -1.
         11    1    3    3    0    0  0.49353487140E+01 -0.68668562702E+01 -0.11896244877E+02  0.14595616616E+02  0.51100000000E-03 0. -1.
        -11    1    3    3    0    0 -0.13643583356E+01 -0.29570962965E+02 -0.11616850101E+02  0.31800228473E+02  0.51100000000E-03 0.  1.
         12    1    3    3    0    0 -0.38038132209E+01  0.37118552033E+02  0.22577473523E+02  0.43611904461E+02  0.00000000000E+00 0. -1.
</event>
<event>
 7    1  0.1971192E-015  0.9000714E+02  0.7816164E-02  0.1186340E+00
        -11   -1    0    0    0    0  0.00000000000E+00  0.00000000000E+00  0.45593999997E+02  0.45594000000E+02  0.51100000000E-03 0. -1.
         11   -1    0    0    0    0 -0.00000000000E+00 -0.00000000000E+00 -0.45593999997E+02  0.45594000000E+02  0.51100000000E-03 0.  1.
    9900012    2    1    2    0    0 -0.42334459253E+00  0.14824416372E-01 -0.11022617245E+01  0.90007143820E+02  0.89999397317E+02 0.  0.
         12    1    1    2    0    0  0.42334459253E+00 -0.14824416372E-01  0.11022617245E+01  0.11808561795E+01  0.00000000000E+00 0. -1.
         11    1    3    3    0    0  0.14160762283E+01 -0.98883617321E+01 -0.48889446368E+01  0.11121454471E+02  0.51100000000E-03 0. -1.
        -11    1    3    3    0    0 -0.15965924438E+02  0.36739188830E+02 -0.15491924990E+02  0.42949720362E+02  0.51100000000E-03 0.  1.
         12    1    3    3    0    0  0.14126503617E+02 -0.26836002682E+02  0.19278607902E+02  0.35935968987E+02  0.00000000000E+00 0. -1.
</event>
<event>
 7    1  0.1971192E-015  0.9000775E+02  0.7816164E-02  0.1186339E+00
        -11   -1    0    0    0    0  0.00000000000E+00  0.00000000000E+00  0.45593999997E+02  0.45594000000E+02  0.51100000000E-03 0.  1.
         11   -1    0    0    0    0 -0.00000000000E+00 -0.00000000000E+00 -0.45593999997E+02  0.45594000000E+02  0.51100000000E-03 0. -1.
    9900012    2    1    2    0    0  0.40436391692E+00  0.23057008724E+00  0.10845826257E+01  0.90007749088E+02  0.90000010576E+02 0.  0.
         12    1    1    2    0    0 -0.40436391692E+00 -0.23057008724E+00 -0.10845826257E+01  0.11802509117E+01  0.00000000000E+00 0. -1.
         11    1    3    3    0    0  0.34790794559E+01 -0.28504747837E+02 -0.20454875040E+02  0.35256581744E+02  0.51100000000E-03 0. -1.
        -11    1    3    3    0    0 -0.20738303919E+01 -0.10425695646E+02  0.14559593179E+01  0.10729199410E+02  0.51100000000E-03 0.  1.
        -12    1    3    3    0    0 -0.10008851471E+01  0.39161013570E+02  0.20083498348E+02  0.44021967934E+02  0.00000000000E+00 0.  1.
</event>
<event>
 7    1  0.1971192E-015  0.9000772E+02  0.7816164E-02  0.1186339E+00
        -11   -1    0    0    0    0  0.00000000000E+00  0.00000000000E+00  0.45593999997E+02  0.45594000000E+02  0.51100000000E-03 0. -1.
         11   -1    0    0    0    0 -0.00000000000E+00 -0.00000000000E+00 -0.45593999997E+02  0.45594000000E+02  0.51100000000E-03 0.  1.
    9900012    2    1    2    0    0  0.64934775067E-01  0.49844923860E+00 -0.10678867231E+01  0.90007724514E+02  0.89999985678E+02 0.  0.
         12    1    1    2    0    0 -0.64934775067E-01 -0.49844923860E+00  0.10678867231E+01  0.11802754856E+01  0.00000000000E+00 0. -1.
         11    1    3    3    0    0  0.52401290994E+01 -0.25077845341E+01 -0.14189954362E+01  0.59800906814E+01  0.51100000000E-03 0. -1.
        -11    1    3    3    0    0  0.12140925242E+01  0.19402206782E+02 -0.37525991464E+02  0.42262509205E+02  0.51100000000E-03 0.  1.
         12    1    3    3    0    0 -0.63892868486E+01 -0.16395973009E+02  0.37877100177E+02  0.41765124628E+02  0.00000000000E+00 0. -1.
</event>
<event>
 7    1  0.1971192E-015  0.9000768E+02  0.7816164E-02  0.1186339E+00
        -11   -1    0    0    0    0  0.00000000000E+00  0.00000000000E+00  0.45593999997E+02  0.45594000000E+02  0.51100000000E-03 0. -1.
         11   -1    0    0    0    0 -0.00000000000E+00 -0.00000000000E+00 -0.45593999997E+02  0.45594000000E+02  0.51100000000E-03 0.  1.
    9900012    2    1    2    0    0 -0.48182121585E+00  0.94758262026E+00 -0.51291434497E+00  0.90007684097E+02  0.89999944727E+02 0.  0.
         12    1    1    2    0    0  0.48182121585E+00 -0.94758262026E+00  0.51291434497E+00  0.11803159033E+01  0.00000000000E+00 0. -1.
         11    1    3    3    0    0  0.37723981573E+02  0.13523567001E+02  0.14673501975E+02  0.42676660022E+02  0.51100000000E-03 0. -1.
        -11    1    3    3    0    0 -0.96829498506E+01  0.20513693923E+01  0.31689799773E+01  0.10392789258E+02  0.51100000000E-03 0.  1.
        -12    1    3    3    0    0 -0.28522852939E+02 -0.14627353773E+02 -0.18355396297E+02  0.36938234817E+02  0.00000000000E+00 0.  1.
</event>
<event>
 7    1  0.1971192E-015  0.9000774E+02  0.7816164E-02  0.1186339E+00
        -11   -1    0    0    0    0  0.00000000000E+00  0.00000000000E+00  0.45593999997E+02  0.45594000000E+02  0.51100000000E-03 0. -1.
         11   -1    0    0    0    0 -0.00000000000E+00 -0.00000000000E+00 -0.45593999997E+02  0.45594000000E+02  0.51100000000E-03 0.  1.
    9900012    2    1    2    0    0  0.10428017007E+01 -0.54465175133E+00  0.94548643197E-01  0.90007737164E+02  0.89999998494E+02 0.  0.
         12    1    1    2    0    0 -0.10428017007E+01  0.54465175133E+00 -0.94548643197E-01  0.11802628365E+01  0.00000000000E+00 0. -1.
         11    1    3    3    0    0  0.37392446455E+01  0.91678539527E+01 -0.29717244999E+00  0.99055443234E+01  0.51100000000E-03 0. -1.
        -11    1    3    3    0    0 -0.26828872037E+01 -0.10388740645E+02 -0.39130152487E+02  0.40574532035E+02  0.51100000000E-03 0.  1.
         12    1    3    3    0    0 -0.13555741032E-01  0.67623494142E+00  0.39521873580E+02  0.39527660805E+02  0.00000000000E+00 0. -1.
</event>
<event>
 7    1  0.1971192E-015  0.9000766E+02  0.7816164E-02  0.1186339E+00
        -11   -1    0    0    0    0  0.00000000000E+00  0.00000000000E+00  0.45593999997E+02  0.45594000000E+02  0.51100000000E-03 0. -1.
         11   -1    0    0    0    0 -0.00000000000E+00 -0.00000000000E+00 -0.45593999997E+02  0.45594000000E+02  0.51100000000E-03 0.  1.
    9900012    2    1    2    0    0  0.30591205070E+00  0.10084634168E+01 -0.53162013289E+00  0.90007660807E+02  0.89999921129E+02 0.  0.
         12    1    1    2    0    0 -0.30591205070E+00 -0.10084634168E+01  0.53162013289E+00  0.11803391934E+01  0.00000000000E+00 0. -1.
         11    1    3    3    0    0  0.60144645916E+01 -0.10046749392E+02  0.86792354535E+00  0.11741560765E+02  0.51100000000E-03 0. -1.
        -11    1    3    3    0    0  0.16671662620E+02  0.33216197960E+01 -0.33977048878E+02  0.37992332691E+02  0.51100000000E-03 0.  1.
         12    1    3    3    0    0 -0.22380215160E+02  0.77335930124E+01  0.32577505200E+02  0.40273767350E+02  0.00000000000E+00 0. -1.
</event>
<event>
 7    1  0.1971192E-015  0.9000773E+02  0.7816164E-02  0.1186339E+00
        -11   -1    0    0    0    0  0.00000000000E+00  0.00000000000E+00  0.45593999997E+02  0.45594000000E+02  0.51100000000E-03 0.  1.
         11   -1    0    0    0    0 -0.00000000000E+00 -0.00000000000E+00 -0.45593999997E+02  0.45594000000E+02  0.51100000000E-03 0. -1.
    9900012    2    1    2    0    0  0.56721425398E+00  0.10306608135E+01 -0.95120466991E-01  0.90007728156E+02  0.89999989368E+02 0.  0.
         12    1    1    2    0    0 -0.56721425398E+00 -0.10306608135E+01  0.95120466991E-01  0.11802718439E+01  0.00000000000E+00 0. -1.
         11    1    3    3    0    0  0.15849169481E+01 -0.32773794494E+01  0.57728136396E+01  0.68248483768E+01  0.51100000000E-03 0. -1.
        -11    1    3    3    0    0  0.16166878536E+02 -0.91119949043E+01  0.33433326574E+02  0.38238511200E+02  0.51100000000E-03 0.  1.
         12    1    3    3    0    0 -0.17184581230E+02  0.13420035167E+02 -0.39301260680E+02  0.44944368579E+02  0.00000000000E+00 0. -1.
</event>
<event>
 7    1  0.1971192E-015  0.9000772E+02  0.7816164E-02  0.1186339E+00
        -11   -1    0    0    0    0  0.00000000000E+00  0.00000000000E+00  0.45593999997E+02  0.45594000000E+02  0.51100000000E-03 0. -1.
         11   -1    0    0    0    0 -0.00000000000E+00 -0.00000000000E+00 -0.45593999997E+02  0.45594000000E+02  0.51100000000E-03 0.  1.
    9900012    2    1    2    0    0  0.10988296333E+01 -0.13970227309E+00 -0.40756878771E+00  0.90007722234E+02  0.89999983367E+02 0.  0.
         12    1    1    2    0    0 -0.10988296333E+01  0.13970227309E+00  0.40756878771E+00  0.11802777660E+01  0.00000000000E+00 0. -1.
         11    1    3    3    0    0  0.60856815247E+01 -0.32074421749E+01 -0.74142819179E+01  0.10114088271E+02  0.51100000000E-03 0. -1.
        -11    1    3    3    0    0 -0.49031312049E+01 -0.36813410762E+02  0.13442519819E+02  0.39496446003E+02  0.51100000000E-03 0.  1.
         12    1    3    3    0    0 -0.83720686392E-01  0.39881150663E+02 -0.64358066887E+01  0.40397187961E+02  0.00000000000E+00 0. -1.
</event>
<event>
 7    1  0.1971192E-015  0.9000775E+02  0.7816164E-02  0.1186339E+00
        -11   -1    0    0    0    0  0.00000000000E+00  0.00000000000E+00  0.45593999997E+02  0.45594000000E+02  0.51100000000E-03 0.  1.
         11   -1    0    0    0    0 -0.00000000000E+00 -0.00000000000E+00 -0.45593999997E+02  0.45594000000E+02  0.51100000000E-03 0. -1.
    9900012    2    1    2    0    0  0.10244068532E+01 -0.31470160069E+00  0.49451779040E+00  0.90007748186E+02  0.90000009662E+02 0.  0.
         12    1    1    2    0    0 -0.10244068532E+01  0.31470160069E+00 -0.49451779040E+00  0.11802518136E+01  0.00000000000E+00 0. -1.
         11    1    3    3    0    0 -0.80313586757E+01  0.55390174335E+01  0.33608537593E+01  0.10318855293E+02  0.51100000000E-03 0. -1.
        -11    1    3    3    0    0  0.35411238669E+02  0.33243727854E+01  0.22408110048E+02  0.42037253415E+02  0.51100000000E-03 0.  1.
         12    1    3    3    0    0 -0.26355473141E+02 -0.91780918196E+01 -0.25274446017E+02  0.37651639478E+02  0.00000000000E+00 0. -1.
</event>
<event>
 7    1  0.1971192E-015  0.9000774E+02  0.7816164E-02  0.1186339E+00
        -11   -1    0    0    0    0  0.00000000000E+00  0.00000000000E+00  0.45593999997E+02  0.45594000000E+02  0.51100000000E-03 0. -1.
         11   -1    0    0    0    0 -0.00000000000E+00 -0.00000000000E+00 -0.45593999997E+02  0.45594000000E+02  0.51100000000E-03 0.  1.
    9900012    2    1    2    0    0 -0.36604397591E+00 -0.97691270029E+00  0.55197652233E+00  0.90007735327E+02  0.89999996634E+02 0.  0.
         12    1    1    2    0    0  0.36604397591E+00  0.97691270029E+00 -0.55197652233E+00  0.11802646726E+01  0.00000000000E+00 0. -1.
         11    1    3    3    0    0  0.42944936080E+01  0.10772988166E+02  0.17692592954E+02  0.21154852755E+02  0.51100000000E-03 0. -1.
        -11    1    3    3    0    0  0.14794261769E+02 -0.20071690277E+02  0.15932276756E+02  0.29590207413E+02  0.51100000000E-03 0.  1.
        -12    1    3    3    0    0 -0.19454799353E+02  0.83217894102E+01 -0.33072893188E+02  0.39262675159E+02  0.00000000000E+00 0.  1.
</event>
<event>
 7    1  0.1971192E-015  0.9000775E+02  0.7816164E-02  0.1186339E+00
        -11   -1    0    0    0    0  0.00000000000E+00  0.00000000000E+00  0.45593999997E+02  0.45594000000E+02  0.51100000000E-03 0. -1.
         11   -1    0    0    0    0 -0.00000000000E+00 -0.00000000000E+00 -0.45593999997E+02  0.45594000000E+02  0.51100000000E-03 0.  1.
    9900012    2    1    2    0    0 -0.20700522399E+00  0.56739498719E+00 -0.10140070076E+01  0.90007746449E+02  0.90000007902E+02 0.  0.
         12    1    1    2    0    0  0.20700522399E+00 -0.56739498719E+00  0.10140070076E+01  0.11802535514E+01  0.00000000000E+00 0. -1.
         11    1    3    3    0    0  0.58150547837E+01  0.88394940865E+01  0.61712694667E+01  0.12248921787E+02  0.51100000000E-03 0. -1.
        -11    1    3    3    0    0  0.30624863492E+02  0.90727102586E+00 -0.21423829885E+02  0.37385637507E+02  0.51100000000E-03 0.  1.
         12    1    3    3    0    0 -0.36646923499E+02 -0.91793701252E+01  0.14238553410E+02  0.40373187155E+02  0.00000000000E+00 0. -1.
</event>
<event>
 7    1  0.1971192E-015  0.9000772E+02  0.7816164E-02  0.1186339E+00
        -11   -1    0    0    0    0  0.00000000000E+00  0.00000000000E+00  0.45593999997E+02  0.45594000000E+02  0.51100000000E-03 0. -1.
         11   -1    0    0    0    0 -0.00000000000E+00 -0.00000000000E+00 -0.45593999997E+02  0.45594000000E+02  0.51100000000E-03 0.  1.
    9900012    2    1    2    0    0 -0.74282075341E+00  0.21639290390E+00 -0.89132407961E+00  0.90007717332E+02  0.89999978401E+02 0.  0.
         12    1    1    2    0    0  0.74282075341E+00 -0.21639290390E+00  0.89132407961E+00  0.11802826676E+01  0.00000000000E+00 0. -1.
         11    1    3    3    0    0  0.17173621698E+01  0.83100567132E+01 -0.15861616551E+01  0.86326290581E+01  0.51100000000E-03 0. -1.
        -11    1    3    3    0    0 -0.36998053923E+02  0.12514936248E+02  0.95160626679E+01  0.40199938710E+02  0.51100000000E-03 0.  1.
         12    1    3    3    0    0  0.34537870999E+02 -0.20608600057E+02 -0.88212250924E+01  0.41175149564E+02  0.00000000000E+00 0. -1.
</event>
<event>
 7    1  0.1971192E-015  0.9000773E+02  0.7816164E-02  0.1186339E+00
        -11   -1    0    0    0    0  0.00000000000E+00  0.00000000000E+00  0.45593999997E+02  0.45594000000E+02  0.51100000000E-03 0. -1.
         11   -1    0    0    0    0 -0.00000000000E+00 -0.00000000000E+00 -0.45593999997E+02  0.45594000000E+02  0.51100000000E-03 0.  1.
    9900012    2    1    2    0    0 -0.11110037141E+01  0.36129716150E+00  0.16782392860E+00  0.90007733182E+02  0.89999994460E+02 0.  0.
         12    1    1    2    0    0  0.11110037141E+01 -0.36129716150E+00 -0.16782392860E+00  0.11802668184E+01  0.00000000000E+00 0. -1.
         11    1    3    3    0    0  0.10242640350E+02 -0.35320458059E+02 -0.15454494383E+02  0.39890949296E+02  0.51100000000E-03 0. -1.
        -11    1    3    3    0    0  0.74639037537E+01  0.37186737660E+00  0.11101650511E+01  0.75551711624E+01  0.51100000000E-03 0.  1.
        -12    1    3    3    0    0 -0.18817547817E+02  0.35309887844E+02  0.14512153260E+02  0.42561612724E+02  0.00000000000E+00 0.  1.
</event>
<event>
 7    1  0.2825290E-015  0.9000770E+02  0.7816164E-02  0.1186339E+00
        -11   -1    0    0    0    0  0.00000000000E+00  0.00000000000E+00  0.45593999997E+02  0.45594000000E+02  0.51100000000E-03 0. -1.
         11   -1    0    0    0    0 -0.00000000000E+00 -0.00000000000E+00 -0.45593999997E+02  0.45594000000E+02  0.51100000000E-03 0.  1.
    9900012    2    1    2    0    0  0.57385481646E+00 -0.53877780817E+00 -0.87949664019E+00  0.90007701217E+02  0.89999962073E+02 0.  0.
         12    1    1    2    0    0 -0.57385481646E+00  0.53877780817E+00  0.87949664019E+00  0.11802987830E+01  0.00000000000E+00 0. -1.
         11    1    3    3    0    0 -0.57245426909E+01 -0.80959881224E+01  0.38832128281E+02  0.40078043862E+02  0.51100000000E-03 0. -1.
        -11    1    3    3    0    0 -0.87225319504E+01 -0.92762390560E+00 -0.28371724273E+01  0.92191429851E+01  0.51100000000E-03 0.  1.
        -12    1    3    3    0    0  0.15020929458E+02  0.84848342198E+01 -0.36874452494E+02  0.40710514370E+02  0.00000000000E+00 0.  1.
</event>
<event>
 7    1  0.1971192E-015  0.9000765E+02  0.7816164E-02  0.1186339E+00
        -11   -1    0    0    0    0  0.00000000000E+00  0.00000000000E+00  0.45593999997E+02  0.45594000000E+02  0.51100000000E-03 0.  1.
         11   -1    0    0    0    0 -0.00000000000E+00 -0.00000000000E+00 -0.45593999997E+02  0.45594000000E+02  0.51100000000E-03 0. -1.
    9900012    2    1    2    0    0 -0.65280381985E+00 -0.97171307973E+00  0.15112703287E+00  0.90007653222E+02  0.89999913444E+02 0.  0.
         12    1    1    2    0    0  0.65280381985E+00  0.97171307973E+00 -0.15112703287E+00  0.11803467781E+01  0.00000000000E+00 0. -1.
         11    1    3    3    0    0 -0.63137252229E+01  0.67795933173E+01 -0.91805513053E+01  0.13042566245E+02  0.51100000000E-03 0. -1.
        -11    1    3    3    0    0  0.22478595468E+02  0.27964147837E+02 -0.18769959870E+01  0.35927759917E+02  0.51100000000E-03 0.  1.
         12    1    3    3    0    0 -0.16817674065E+02 -0.35715454234E+02  0.11208674325E+02  0.41037327060E+02  0.00000000000E+00 0. -1.
</event>
<event>
 7    1  0.1971192E-015  0.9000773E+02  0.7816164E-02  0.1186339E+00
        -11   -1    0    0    0    0  0.00000000000E+00  0.00000000000E+00  0.45593999997E+02  0.45594000000E+02  0.51100000000E-03 0.  1.
         11   -1    0    0    0    0 -0.00000000000E+00 -0.00000000000E+00 -0.45593999997E+02  0.45594000000E+02  0.51100000000E-03 0. -1.
    9900012    2    1    2    0    0  0.23740315057E+00 -0.45893857980E+00  0.10611550567E+01  0.90007730992E+02  0.89999992241E+02 0.  0.
         12    1    1    2    0    0 -0.23740315057E+00  0.45893857980E+00 -0.10611550567E+01  0.11802690076E+01  0.00000000000E+00 0. -1.
         11    1    3    3    0    0  0.31784618036E+02  0.12366434498E+02  0.19873788671E+02  0.39473511653E+02  0.51100000000E-03 0. -1.
        -11    1    3    3    0    0  0.51665893582E+01 -0.18587762181E+01  0.31893632532E+01  0.63498608526E+01  0.51100000000E-03 0.  1.
        -12    1    3    3    0    0 -0.36713804243E+02 -0.10966596860E+02 -0.22001996867E+02  0.44184358486E+02  0.00000000000E+00 0.  1.
</event>
<event>
 7    1  0.1971192E-015  0.9000773E+02  0.7816164E-02  0.1186339E+00
        -11   -1    0    0    0    0  0.00000000000E+00  0.00000000000E+00  0.45593999997E+02  0.45594000000E+02  0.51100000000E-03 0.  1.
         11   -1    0    0    0    0 -0.00000000000E+00 -0.00000000000E+00 -0.45593999997E+02  0.45594000000E+02  0.51100000000E-03 0. -1.
    9900012    2    1    2    0    0 -0.64477689959E+00 -0.98811717662E+00 -0.30577350323E-01  0.90007725549E+02  0.89999986726E+02 0.  0.
         12    1    1    2    0    0  0.64477689959E+00  0.98811717662E+00  0.30577350323E-01  0.11802744508E+01  0.00000000000E+00 0. -1.
         11    1    3    3    0    0  0.93319044510E+01  0.18798712715E+01 -0.36560683604E+01  0.10197313018E+02  0.51100000000E-03 0. -1.
        -11    1    3    3    0    0  0.27408767231E+02 -0.22384079920E+02 -0.75453829658E+01  0.36183150213E+02  0.51100000000E-03 0.  1.
         12    1    3    3    0    0 -0.37385448582E+02  0.19516091471E+02  0.11170873976E+02  0.43627262318E+02  0.00000000000E+00 0. -1.
</event>
<event>
 7    1  0.1971192E-015  0.9000780E+02  0.7816164E-02  0.1186339E+00
        -11   -1    0    0    0    0  0.00000000000E+00  0.00000000000E+00  0.45593999997E+02  0.45594000000E+02  0.51100000000E-03 0.  1.
         11   -1    0    0    0    0 -0.00000000000E+00 -0.00000000000E+00 -0.45593999997E+02  0.45594000000E+02  0.51100000000E-03 0. -1.
    9900012    2    1    2    0    0  0.12304577661E+00  0.11047464970E+01  0.39656650632E+00  0.90007800831E+02  0.90000063001E+02 0.  0.
         12    1    1    2    0    0 -0.12304577661E+00 -0.11047464970E+01 -0.39656650632E+00  0.11801991695E+01  0.00000000000E+00 0. -1.
         11    1    3    3    0    0 -0.62818199017E+01  0.47193027800E+01 -0.12331741717E+02  0.14622070101E+02  0.51100000000E-03 0. -1.
        -11    1    3    3    0    0 -0.62405020458E+01  0.19600575963E+02  0.35146955645E+02  0.40723886544E+02  0.51100000000E-03 0.  1.
         12    1    3    3    0    0  0.12645367724E+02 -0.23215132246E+02 -0.22418647421E+02  0.34661844185E+02  0.00000000000E+00 0. -1.
</event>
<event>
 7    1  0.1971192E-015  0.9000773E+02  0.7816164E-02  0.1186339E+00
        -11   -1    0    0    0    0  0.00000000000E+00  0.00000000000E+00  0.45593999997E+02  0.45594000000E+02  0.51100000000E-03 0.  1.
         11   -1    0    0    0    0 -0.00000000000E+00 -0.00000000000E+00 -0.45593999997E+02  0.45594000000E+02  0.51100000000E-03 0. -1.
    9900012    2    1    2    0    0 -0.17512606332E+00 -0.68255903425E+00  0.94682334357E+00  0.90007732904E+02  0.89999994179E+02 0.  0.
         12    1    1    2    0    0  0.17512606332E+00  0.68255903425E+00 -0.94682334357E+00  0.11802670957E+01  0.00000000000E+00 0. -1.
         11    1    3    3    0    0  0.82370259599E+01 -0.26099661288E+02 -0.25652876855E+02  0.37511478340E+02  0.51100000000E-03 0. -1.
        -11    1    3    3    0    0 -0.63882761566E+01 -0.88424088685E+01  0.72483454324E+01  0.13097204993E+02  0.51100000000E-03 0.  1.
        -12    1    3    3    0    0 -0.20238758666E+01  0.34259511123E+02  0.19351354766E+02  0.39399049572E+02  0.00000000000E+00 0.  1.
</event>
<event>
 7    1  0.1971192E-015  0.9000770E+02  0.7816164E-02  0.1186339E+00
        -11   -1    0    0    0    0  0.00000000000E+00  0.00000000000E+00  0.45593999997E+02  0.45594000000E+02  0.51100000000E-03 0.  1.
         11   -1    0    0    0    0 -0.00000000000E+00 -0.00000000000E+00 -0.45593999997E+02  0.45594000000E+02  0.51100000000E-03 0. -1.
    9900012    2    1    2    0    0 -0.67328050288E+00  0.81538389780E+00  0.52436188780E+00  0.90007697951E+02  0.89999958764E+02 0.  0.
         12    1    1    2    0    0  0.67328050288E+00 -0.81538389780E+00 -0.52436188780E+00  0.11803020485E+01  0.00000000000E+00 0. -1.
         11    1    3    3    0    0 -0.12077306459E+02 -0.32341785377E+02  0.10846436490E+02  0.36186981050E+02  0.51100000000E-03 0. -1.
        -11    1    3    3    0    0 -0.11433040383E+02  0.18435548924E+01  0.43629036468E+01  0.12375299412E+02  0.51100000000E-03 0.  1.
        -12    1    3    3    0    0  0.22837066340E+02  0.31313614383E+02 -0.14684978249E+02  0.41445417490E+02  0.00000000000E+00 0.  1.
</event>
<event>
 7    1  0.1971192E-015  0.9000775E+02  0.7816164E-02  0.1186339E+00
        -11   -1    0    0    0    0  0.00000000000E+00  0.00000000000E+00  0.45593999997E+02  0.45594000000E+02  0.51100000000E-03 0. -1.
         11   -1    0    0    0    0 -0.00000000000E+00 -0.00000000000E+00 -0.45593999997E+02  0.45594000000E+02  0.51100000000E-03 0.  1.
    9900012    2    1    2    0    0 -0.18657096767E+00 -0.71097679584E+00 -0.92341273391E+00  0.90007750955E+02  0.90000012468E+02 0.  0.
         12    1    1    2    0    0  0.18657096767E+00  0.71097679584E+00  0.92341273391E+00  0.11802490446E+01  0.00000000000E+00 0. -1.
         11    1    3    3    0    0  0.24824636485E+01  0.79362310522E+01 -0.56363298396E+01  0.10045626083E+02  0.51100000000E-03 0. -1.
        -11    1    3    3    0    0 -0.44862997781E+01  0.20233550087E+02  0.33340244600E+02  0.39256787249E+02  0.51100000000E-03 0.  1.
         12    1    3    3    0    0  0.18172651619E+01 -0.28880757935E+02 -0.28627327495E+02  0.40705337624E+02  0.00000000000E+00 0. -1.
</event>
<event>
 7    1  0.1971192E-015  0.9000779E+02  0.7816164E-02  0.1186339E+00
        -11   -1    0    0    0    0  0.00000000000E+00  0.00000000000E+00  0.45593999997E+02  0.45594000000E+02  0.51100000000E-03 0. -1.
         11   -1    0    0    0    0 -0.00000000000E+00 -0.00000000000E+00 -0.45593999997E+02  0.45594000000E+02  0.51100000000E-03 0.  1.
    9900012    2    1    2    0    0  0.57319643014E+00  0.60633223683E+00 -0.83468528736E+00  0.90007791350E+02  0.90000053396E+02 0.  0.
         12    1    1    2    0    0 -0.57319643014E+00 -0.60633223683E+00  0.83468528736E+00  0.11802086501E+01  0.00000000000E+00 0. -1.
         11    1    3    3    0    0  0.17797614353E+02 -0.23397688962E+02  0.90289451527E+01  0.30752703560E+02  0.51100000000E-03 0. -1.
        -11    1    3    3    0    0 -0.15709016580E+02 -0.16246251262E+01  0.16232382432E+02  0.22647358530E+02  0.51100000000E-03 0.  1.
        -12    1    3    3    0    0 -0.15154013436E+01  0.25628646325E+02 -0.26096012873E+02  0.36607729259E+02  0.00000000000E+00 0.  1.
</event>
<event>
 7    1  0.1971192E-015  0.9000770E+02  0.7816164E-02  0.1186339E+00
        -11   -1    0    0    0    0  0.00000000000E+00  0.00000000000E+00  0.45593999997E+02  0.45594000000E+02  0.51100000000E-03 0.  1.
         11   -1    0    0    0    0 -0.00000000000E+00 -0.00000000000E+00 -0.45593999997E+02  0.45594000000E+02  0.51100000000E-03 0. -1.
    9900012    2    1    2    0    0 -0.75817232532E+00 -0.82241599643E+00  0.37670535980E+00  0.90007703311E+02  0.89999964195E+02 0.  0.
         12    1    1    2    0    0  0.75817232532E+00  0.82241599643E+00 -0.37670535980E+00  0.11802966890E+01  0.00000000000E+00 0. -1.
         11    1    3    3    0    0  0.37940302446E+01 -0.61283866047E+01  0.44813198140E+01  0.84872855148E+01  0.51100000000E-03 0. -1.
        -11    1    3    3    0    0  0.13559852811E+02 -0.31942455564E+02 -0.16306778636E+02  0.38341897521E+02  0.51100000000E-03 0.  1.
        -12    1    3    3    0    0 -0.18112055380E+02  0.37248426173E+02  0.12202164182E+02  0.43178520275E+02  0.00000000000E+00 0.  1.
</event>
<event>
 7    1  0.1971192E-015  0.9000778E+02  0.7816164E-02  0.1186339E+00
        -11   -1    0    0    0    0  0.00000000000E+00  0.00000000000E+00  0.45593999997E+02  0.45594000000E+02  0.51100000000E-03 0.  1.
         11   -1    0    0    0    0 -0.00000000000E+00 -0.00000000000E+00 -0.45593999997E+02  0.45594000000E+02  0.51100000000E-03 0. -1.
    9900012    2    1    2    0    0 -0.24932401974E+00 -0.40000966396E+00  0.10820164646E+01  0.90007775518E+02  0.90000037355E+02 0.  0.
         12    1    1    2    0    0  0.24932401974E+00  0.40000966396E+00 -0.10820164646E+01  0.11802244819E+01  0.00000000000E+00 0. -1.
         11    1    3    3    0    0 -0.37266006757E+01  0.12889461568E-01 -0.75677460988E+01  0.84355497753E+01  0.51100000000E-03 0. -1.
        -11    1    3    3    0    0 -0.33138362281E+02  0.17059498084E+02  0.15610326384E+02  0.40408660206E+02  0.51100000000E-03 0.  1.
         12    1    3    3    0    0  0.36615638937E+02 -0.17472397210E+02 -0.69605638204E+01  0.41163565537E+02  0.00000000000E+00 0. -1.
</event>
<event>
 7    1  0.1971192E-015  0.9000705E+02  0.7816164E-02  0.1186340E+00
        -11   -1    0    0    0    0  0.00000000000E+00  0.00000000000E+00  0.45593999997E+02  0.45594000000E+02  0.51100000000E-03 0. -1.
         11   -1    0    0    0    0 -0.00000000000E+00 -0.00000000000E+00 -0.45593999997E+02  0.45594000000E+02  0.51100000000E-03 0.  1.
    9900012    2    1    2    0    0  0.39672990743E+00 -0.10908782912E+01  0.21732652511E+00  0.90007050855E+02  0.89999303123E+02 0.  0.
         12    1    1    2    0    0 -0.39672990743E+00  0.10908782912E+01 -0.21732652511E+00  0.11809491455E+01  0.00000000000E+00 0. -1.
         11    1    3    3    0    0  0.69069120124E+01  0.29796186079E+01 -0.35338440691E+01  0.83109334471E+01  0.51100000000E-03 0. -1.
        -11    1    3    3    0    0 -0.12632551272E+02 -0.40318762665E+02  0.12197044701E+02  0.43976719684E+02  0.51100000000E-03 0.  1.
         12    1    3    3    0    0  0.61223691671E+01  0.36248265766E+02 -0.84458741065E+01  0.37719397724E+02  0.00000000000E+00 0. -1.
</event>
<event>
 7    1  0.1971192E-015  0.9000764E+02  0.7816164E-02  0.1186339E+00
        -11   -1    0    0    0    0  0.00000000000E+00  0.00000000000E+00  0.45593999997E+02  0.45594000000E+02  0.51100000000E-03 0.  1.
         11   -1    0    0    0    0 -0.00000000000E+00 -0.00000000000E+00 -0.45593999997E+02  0.45594000000E+02  0.51100000000E-03 0. -1.
    9900012    2    1    2    0    0  0.62771092978E+00  0.81474883182E+00  0.57915057322E+00  0.90007639014E+02  0.89999899049E+02 0.  0.
         12    1    1    2    0    0 -0.62771092978E+00 -0.81474883182E+00 -0.57915057322E+00  0.11803609858E+01  0.00000000000E+00 0. -1.
         11    1    3    3    0    0  0.85095968724E+01  0.36831746457E+02  0.12074884015E+02  0.39683669315E+02  0.51100000000E-03 0. -1.
        -11    1    3    3    0    0 -0.79208181915E+01  0.30375086257E+01 -0.70250205374E+01  0.11014387558E+02  0.51100000000E-03 0.  1.
        -12    1    3    3    0    0  0.38932248843E-01 -0.39054506251E+02 -0.44707129041E+01  0.39309582141E+02  0.00000000000E+00 0.  1.
</event>
<event>
 7    1  0.1971192E-015  0.9000770E+02  0.7816164E-02  0.1186339E+00
        -11   -1    0    0    0    0  0.00000000000E+00  0.00000000000E+00  0.45593999997E+02  0.45594000000E+02  0.51100000000E-03 0. -1.
         11   -1    0    0    0    0 -0.00000000000E+00 -0.00000000000E+00 -0.45593999997E+02  0.45594000000E+02  0.51100000000E-03 0.  1.
    9900012    2    1    2    0    0 -0.22718616511E-01 -0.11257640918E+01  0.35391816076E+00  0.90007695382E+02  0.89999956161E+02 0.  0.
         12    1    1    2    0    0  0.22718616511E-01  0.11257640918E+01 -0.35391816076E+00  0.11803046177E+01  0.00000000000E+00 0. -1.
         11    1    3    3    0    0 -0.10254700142E+02 -0.49571618314E+01  0.31202952718E+02  0.33216811812E+02  0.51100000000E-03 0. -1.
        -11    1    3    3    0    0 -0.42681785165E+01 -0.94772921988E+01  0.80826906478E+01  0.13166863850E+02  0.51100000000E-03 0.  1.
        -12    1    3    3    0    0  0.14500160042E+02  0.13308689938E+02 -0.38931725205E+02  0.43624019720E+02  0.00000000000E+00 0.  1.
</event>
<event>
 7    1  0.1971192E-015  0.9000773E+02  0.7816164E-02  0.1186339E+00
        -11   -1    0    0    0    0  0.00000000000E+00  0.00000000000E+00  0.45593999997E+02  0.45594000000E+02  0.51100000000E-03 0.  1.
         11   -1    0    0    0    0 -0.00000000000E+00 -0.00000000000E+00 -0.45593999997E+02  0.45594000000E+02  0.51100000000E-03 0. -1.
    9900012    2    1    2    0    0 -0.36685856105E+00 -0.11103272219E+01  0.16006417172E+00  0.90007732114E+02  0.89999993378E+02 0.  0.
         12    1    1    2    0    0  0.36685856105E+00  0.11103272219E+01 -0.16006417172E+00  0.11802678859E+01  0.00000000000E+00 0. -1.
         11    1    3    3    0    0 -0.56679064366E+01 -0.46756775655E+01  0.63776722088E+01  0.97294309769E+01  0.51100000000E-03 0. -1.
        -11    1    3    3    0    0  0.18285712185E+02  0.37718355195E+02  0.46096671242E+01  0.42169783257E+02  0.51100000000E-03 0.  1.
         12    1    3    3    0    0 -0.12984664309E+02 -0.34153004851E+02 -0.10827275161E+02  0.38108517880E+02  0.00000000000E+00 0. -1.
</event>
<event>
 7    1  0.1971192E-015  0.9000785E+02  0.7816164E-02  0.1186339E+00
        -11   -1    0    0    0    0  0.00000000000E+00  0.00000000000E+00  0.45593999997E+02  0.45594000000E+02  0.51100000000E-03 0. -1.
         11   -1    0    0    0    0 -0.00000000000E+00 -0.00000000000E+00 -0.45593999997E+02  0.45594000000E+02  0.51100000000E-03 0.  1.
    9900012    2    1    2    0    0  0.87032955400E+00 -0.77949183331E+00  0.16635852847E+00  0.90007849073E+02  0.90000111881E+02 0.  0.
         12    1    1    2    0    0 -0.87032955400E+00  0.77949183331E+00 -0.16635852847E+00  0.11801509271E+01  0.00000000000E+00 0. -1.
         11    1    3    3    0    0  0.39962750667E+01  0.94562431232E+01  0.59542214053E+01  0.11867750470E+02  0.51100000000E-03 0. -1.
        -11    1    3    3    0    0  0.13876395079E+02  0.30531503565E+02 -0.53921418930E+01  0.33967664695E+02  0.51100000000E-03 0.  1.
         12    1    3    3    0    0 -0.17002340592E+02 -0.40767238522E+02 -0.39572098381E+00  0.44172433908E+02  0.00000000000E+00 0. -1.
</event>
<event>
 7    1  0.1971192E-015  0.9000775E+02  0.7816164E-02  0.1186339E+00
        -11   -1    0    0    0    0  0.00000000000E+00  0.00000000000E+00  0.45593999997E+02  0.45594000000E+02  0.51100000000E-03 0.  1.
         11   -1    0    0    0    0 -0.00000000000E+00 -0.00000000000E+00 -0.45593999997E+02  0.45594000000E+02  0.51100000000E-03 0. -1.
    9900012    2    1    2    0    0 -0.86072723006E+00 -0.36108174785E-01  0.80674161739E+00  0.90007751212E+02  0.90000012728E+02 0.  0.
         12    1    1    2    0    0  0.86072723006E+00  0.36108174785E-01 -0.80674161739E+00  0.11802487882E+01  0.00000000000E+00 0. -1.
         11    1    3    3    0    0 -0.23178625681E+02  0.11811947125E+02  0.25175152471E+02  0.36201644790E+02  0.51100000000E-03 0. -1.
        -11    1    3    3    0    0 -0.75159186728E+01  0.53070904308E+01  0.31681670566E+01  0.97309570494E+01  0.51100000000E-03 0.  1.
        -12    1    3    3    0    0  0.29833817124E+02 -0.17155145730E+02 -0.27536577910E+02  0.44075149372E+02  0.00000000000E+00 0.  1.
</event>
<event>
 7    1  0.1971192E-015  0.9000769E+02  0.7816164E-02  0.1186339E+00
        -11   -1    0    0    0    0  0.00000000000E+00  0.00000000000E+00  0.45593999997E+02  0.45594000000E+02  0.51100000000E-03 0. -1.
         11   -1    0    0    0    0 -0.00000000000E+00 -0.00000000000E+00 -0.45593999997E+02  0.45594000000E+02  0.51100000000E-03 0.  1.
    9900012    2    1    2    0    0  0.84074123483E+00 -0.17020899041E+00  0.81074972282E+00  0.90007689855E+02  0.89999950561E+02 0.  0.
         12    1    1    2    0    0 -0.84074123483E+00  0.17020899041E+00 -0.81074972282E+00  0.11803101446E+01  0.00000000000E+00 0. -1.
         11    1    3    3    0    0  0.29975282323E+02  0.18982918626E+02  0.44177436484E+01  0.35754513129E+02  0.51100000000E-03 0. -1.
        -11    1    3    3    0    0  0.56069375887E+01  0.75511657222E+01  0.31452072879E+01  0.99171660283E+01  0.51100000000E-03 0.  1.
        -12    1    3    3    0    0 -0.34741478677E+02 -0.26704293339E+02 -0.67522012134E+01  0.44336010698E+02  0.00000000000E+00 0.  1.
</event>
<event>
 7    1  0.1971192E-015  0.9000780E+02  0.7816164E-02  0.1186339E+00
        -11   -1    0    0    0    0  0.00000000000E+00  0.00000000000E+00  0.45593999997E+02  0.45594000000E+02  0.51100000000E-03 0. -1.
         11   -1    0    0    0    0 -0.00000000000E+00 -0.00000000000E+00 -0.45593999997E+02  0.45594000000E+02  0.51100000000E-03 0.  1.
    9900012    2    1    2    0    0 -0.10000962741E+01 -0.34490779549E+00  0.52318641413E+00  0.90007797488E+02  0.90000059615E+02 0.  0.
         12    1    1    2    0    0  0.10000962741E+01  0.34490779549E+00 -0.52318641413E+00  0.11802025118E+01  0.00000000000E+00 0. -1.
         11    1    3    3    0    0  0.27490942280E+02 -0.24377685461E+02  0.11933840766E+02  0.38632111146E+02  0.51100000000E-03 0. -1.
        -11    1    3    3    0    0 -0.58285775780E+01 -0.80915489697E+01  0.13040283602E+01  0.10057135354E+02  0.51100000000E-03 0.  1.
        -12    1    3    3    0    0 -0.22662460976E+02  0.32124326636E+02 -0.12714682712E+02  0.41318550988E+02  0.00000000000E+00 0.  1.
</event>
<event>
 7    1  0.1971192E-015  0.9000749E+02  0.7816164E-02  0.1186340E+00
        -11   -1    0    0    0    0  0.00000000000E+00  0.00000000000E+00  0.45593999997E+02  0.45594000000E+02  0.51100000000E-03 0.  1.
         11   -1    0    0    0    0 -0.00000000000E+00 -0.00000000000E+00 -0.45593999997E+02  0.45594000000E+02  0.51100000000E-03 0. -1.
    9900012    2    1    2    0    0  0.68377031854E+00  0.96020907404E+00 -0.63789486136E-01  0.90007486377E+02  0.89999744397E+02 0.  0.
         12    1    1    2    0    0 -0.68377031854E+00 -0.96020907404E+00  0.63789486136E-01  0.11805136225E+01  0.00000000000E+00 0. -1.
         11    1    3    3    0    0 -0.72651381511E+01  0.50539758297E+01 -0.19870274936E+01  0.90704565797E+01  0.51100000000E-03 0. -1.
        -11    1    3    3    0    0  0.57066714085E+01  0.23598769643E+02 -0.30015162892E+02  0.38605414529E+02  0.51100000000E-03 0.  1.
         12    1    3    3    0    0  0.22422370611E+01 -0.27692536399E+02  0.31938400900E+02  0.42331615269E+02  0.00000000000E+00 0. -1.
</event>
<event>
 7    1  0.1971192E-015  0.9000783E+02  0.7816164E-02  0.1186339E+00
        -11   -1    0    0    0    0  0.00000000000E+00  0.00000000000E+00  0.45593999997E+02  0.45594000000E+02  0.51100000000E-03 0. -1.
         11   -1    0    0    0    0 -0.00000000000E+00 -0.00000000000E+00 -0.45593999997E+02  0.45594000000E+02  0.51100000000E-03 0.  1.
    9900012    2    1    2    0    0  0.46617783604E+00 -0.83786409255E+00 -0.68807938575E+00  0.90007834226E+02  0.90000096838E+02 0.  0.
         12    1    1    2    0    0 -0.46617783604E+00  0.83786409255E+00  0.68807938575E+00  0.11801657737E+01  0.00000000000E+00 0. -1.
         11    1    3    3    0    0 -0.45819580776E+01 -0.33880146561E+01 -0.10454344281E+02  0.11906565321E+02  0.51100000000E-03 0. -1.
        -11    1    3    3    0    0 -0.25089885255E+02  0.27095741521E+02 -0.33484087270E+01  0.37079554904E+02  0.51100000000E-03 0.  1.
         12    1    3    3    0    0  0.30138021168E+02 -0.24545590957E+02  0.13114673622E+02  0.41021714001E+02  0.00000000000E+00 0. -1.
</event>
<event>
 7    1  0.1971192E-015  0.9000772E+02  0.7816164E-02  0.1186339E+00
        -11   -1    0    0    0    0  0.00000000000E+00  0.00000000000E+00  0.45593999997E+02  0.45594000000E+02  0.51100000000E-03 0. -1.
         11   -1    0    0    0    0 -0.00000000000E+00 -0.00000000000E+00 -0.45593999997E+02  0.45594000000E+02  0.51100000000E-03 0.  1.
    9900012    2    1    2    0    0 -0.85824727992E+00  0.38042227186E+00  0.71536884929E+00  0.90007719487E+02  0.89999980584E+02 0.  0.
         12    1    1    2    0    0  0.85824727992E+00 -0.38042227186E+00 -0.71536884929E+00  0.11802805128E+01  0.00000000000E+00 0. -1.
         11    1    3    3    0    0 -0.16949412094E+02  0.14588835938E+02  0.30597979013E+02  0.37899248334E+02  0.51100000000E-03 0. -1.
        -11    1    3    3    0    0 -0.24775357861E+01  0.90229372654E+01  0.78343277057E+00  0.93896404422E+01  0.51100000000E-03 0.  1.
        -12    1    3    3    0    0  0.18568700600E+02 -0.23231350931E+02 -0.30666042934E+02  0.42718830711E+02  0.00000000000E+00 0.  1.
</event>
<event>
 7    1  0.1971192E-015  0.9000778E+02  0.7816164E-02  0.1186339E+00
        -11   -1    0    0    0    0  0.00000000000E+00  0.00000000000E+00  0.45593999997E+02  0.45594000000E+02  0.51100000000E-03 0. -1.
         11   -1    0    0    0    0 -0.00000000000E+00 -0.00000000000E+00 -0.45593999997E+02  0.45594000000E+02  0.51100000000E-03 0.  1.
    9900012    2    1    2    0    0  0.77801664949E+00  0.40312040362E+00 -0.79063125988E+00  0.90007782327E+02  0.90000044254E+02 0.  0.
         12    1    1    2    0    0 -0.77801664949E+00 -0.40312040362E+00  0.79063125988E+00  0.11802176731E+01  0.00000000000E+00 0. -1.
         11    1    3    3    0    0  0.73461794545E+01  0.68967990584E+01  0.24540744554E+01  0.10370856837E+02  0.51100000000E-03 0. -1.
        -11    1    3    3    0    0  0.22835830275E+01  0.36046479142E+02 -0.16418546077E+01  0.36156038179E+02  0.51100000000E-03 0.  1.
         12    1    3    3    0    0 -0.88517458326E+01 -0.42540157797E+02 -0.16028511076E+01  0.43480887311E+02  0.00000000000E+00 0. -1.
</event>
<event>
 7    1  0.1971192E-015  0.9000767E+02  0.7816164E-02  0.1186339E+00
        -11   -1    0    0    0    0  0.00000000000E+00  0.00000000000E+00  0.45593999997E+02  0.45594000000E+02  0.51100000000E-03 0. -1.
         11   -1    0    0    0    0 -0.00000000000E+00 -0.00000000000E+00 -0.45593999997E+02  0.45594000000E+02  0.51100000000E-03 0.  1.
    9900012    2    1    2    0    0 -0.14645548762E+00 -0.11711526616E+01 -0.11630039100E-01  0.90007668257E+02  0.89999928678E+02 0.  0.
         12    1    1    2    0    0  0.14645548762E+00  0.11711526616E+01  0.11630039100E-01  0.11803317434E+01  0.00000000000E+00 0. -1.
         11    1    3    3    0    0  0.71643669130E+01 -0.65246074289E+01 -0.86479791542E+00  0.97286448728E+01  0.51100000000E-03 0. -1.
        -11    1    3    3    0    0  0.96487641133E+01 -0.34922200031E+02 -0.33040571373E+01  0.36380977141E+02  0.51100000000E-03 0.  1.
         12    1    3    3    0    0 -0.16959586514E+02  0.40275654798E+02  0.41572250136E+01  0.43898046243E+02  0.00000000000E+00 0. -1.
</event>
<event>
 7    1  0.1971192E-015  0.9000772E+02  0.7816164E-02  0.1186339E+00
        -11   -1    0    0    0    0  0.00000000000E+00  0.00000000000E+00  0.45593999997E+02  0.45594000000E+02  0.51100000000E-03 0. -1.
         11   -1    0    0    0    0 -0.00000000000E+00 -0.00000000000E+00 -0.45593999997E+02  0.45594000000E+02  0.51100000000E-03 0.  1.
    9900012    2    1    2    0    0  0.92689234377E+00  0.62830922216E+00 -0.37302799216E+00  0.90007723855E+02  0.89999985010E+02 0.  0.
         12    1    1    2    0    0 -0.92689234377E+00 -0.62830922216E+00  0.37302799216E+00  0.11802761450E+01  0.00000000000E+00 0. -1.
         11    1    3    3    0    0 -0.36878536740E+01 -0.11170518565E+02  0.29630275076E+00  0.11767265838E+02  0.51100000000E-03 0. -1.
        -11    1    3    3    0    0 -0.84972459553E+01  0.87099806207E+01 -0.37287672439E+02  0.39222920180E+02  0.51100000000E-03 0.  1.
         12    1    3    3    0    0  0.13111991973E+02  0.30888471660E+01  0.36618341696E+02  0.39017537837E+02  0.00000000000E+00 0. -1.
</event>
<event>
 7    1  0.1971192E-015  0.9000776E+02  0.7816164E-02  0.1186339E+00
        -11   -1    0    0    0    0  0.00000000000E+00  0.00000000000E+00  0.45593999997E+02  0.45594000000E+02  0.51100000000E-03 0.  1.
         11   -1    0    0    0    0 -0.00000000000E+00 -0.00000000000E+00 -0.45593999997E+02  0.45594000000E+02  0.51100000000E-03 0. -1.
    9900012    2    1    2    0    0  0.15174790906E+00 -0.36618738089E+00  0.11116879895E+01  0.90007758155E+02  0.90000019763E+02 0.  0.
         12    1    1    2    0    0 -0.15174790906E+00  0.36618738089E+00 -0.11116879895E+01  0.11802418446E+01  0.00000000000E+00 0. -1.
         11    1    3    3    0    0  0.61504162282E+01 -0.45700432395E+00 -0.47264508570E+01  0.77701873013E+01  0.51100000000E-03 0. -1.
        -11    1    3    3    0    0  0.23006482681E+02  0.22673860885E+02  0.24941361046E+02  0.40810215681E+02  0.51100000000E-03 0.  1.
         12    1    3    3    0    0 -0.29005151001E+02 -0.22583043942E+02 -0.19103222199E+02  0.41427355173E+02  0.00000000000E+00 0. -1.
</event>
<event>
 7    1  0.1971192E-015  0.9000768E+02  0.7816164E-02  0.1186339E+00
        -11   -1    0    0    0    0  0.00000000000E+00  0.00000000000E+00  0.45593999997E+02  0.45594000000E+02  0.51100000000E-03 0.  1.
         11   -1    0    0    0    0 -0.00000000000E+00 -0.00000000000E+00 -0.45593999997E+02  0.45594000000E+02  0.51100000000E-03 0. -1.
    9900012    2    1    2    0    0 -0.83141754640E+00  0.56061053652E+00 -0.62257945018E+00  0.90007684584E+02  0.89999945220E+02 0.  0.
         12    1    1    2    0    0  0.83141754640E+00 -0.56061053652E+00  0.62257945018E+00  0.11803154163E+01  0.00000000000E+00 0. -1.
         11    1    3    3    0    0  0.15502521884E+01  0.10914936923E+02  0.55940839359E+01  0.12362560626E+02  0.51100000000E-03 0. -1.
        -11    1    3    3    0    0  0.31042288476E+02 -0.13709880819E+02 -0.22090227666E+02  0.40491513488E+02  0.51100000000E-03 0.  1.
         12    1    3    3    0    0 -0.33423958211E+02  0.33555544322E+01  0.15873564280E+02  0.37153610471E+02  0.00000000000E+00 0. -1.
</event>
<event>
 7    1  0.1971192E-015  0.9000776E+02  0.7816164E-02  0.1186339E+00
        -11   -1    0    0    0    0  0.00000000000E+00  0.00000000000E+00  0.45593999997E+02  0.45594000000E+02  0.51100000000E-03 0.  1.
         11   -1    0    0    0    0 -0.00000000000E+00 -0.00000000000E+00 -0.45593999997E+02  0.45594000000E+02  0.51100000000E-03 0. -1.
    9900012    2    1    2    0    0  0.59446558871E+00 -0.61614725698E+00 -0.81236365145E+00  0.90007762108E+02  0.90000023768E+02 0.  0.
         12    1    1    2    0    0 -0.59446558871E+00  0.61614725698E+00  0.81236365145E+00  0.11802378915E+01  0.00000000000E+00 0. -1.
         11    1    3    3    0    0 -0.43893602287E+01  0.83177360355E+01  0.36412487012E+01  0.10085133035E+02  0.51100000000E-03 0. -1.
        -11    1    3    3    0    0 -0.14373028194E+02  0.27480112759E+02 -0.18792783030E+02  0.36261677167E+02  0.51100000000E-03 0.  1.
         12    1    3    3    0    0  0.19356854011E+02 -0.36413996051E+02  0.14339170677E+02  0.43660951906E+02  0.00000000000E+00 0. -1.
</event>
<event>
 7    1  0.1971192E-015  0.9000784E+02  0.7816164E-02  0.1186339E+00
        -11   -1    0    0    0    0  0.00000000000E+00  0.00000000000E+00  0.45593999997E+02  0.45594000000E+02  0.51100000000E-03 0. -1.
         11   -1    0    0    0    0 -0.00000000000E+00 -0.00000000000E+00 -0.45593999997E+02  0.45594000000E+02  0.51100000000E-03 0.  1.
    9900012    2    1    2    0    0 -0.51592030368E+00  0.37610819538E+00 -0.99254386928E+00  0.90007841338E+02  0.90000104044E+02 0.  0.
         12    1    1    2    0    0  0.51592030368E+00 -0.37610819538E+00  0.99254386928E+00  0.11801586617E+01  0.00000000000E+00 0. -1.
         11    1    3    3    0    0 -0.33367986757E+02  0.64469239347E+01  0.25415471193E+02  0.42437383810E+02  0.51100000000E-03 0. -1.
        -11    1    3    3    0    0  0.50179138257E+01 -0.68617368788E+01  0.92600912209E+00  0.85510458607E+01  0.51100000000E-03 0.  1.
        -12    1    3    3    0    0  0.27834152628E+02  0.79092113956E+00 -0.27334024184E+02  0.39019411667E+02  0.00000000000E+00 0.  1.
</event>
<event>
 7    1  0.1971192E-015  0.9000783E+02  0.7816164E-02  0.1186339E+00
        -11   -1    0    0    0    0  0.00000000000E+00  0.00000000000E+00  0.45593999997E+02  0.45594000000E+02  0.51100000000E-03 0. -1.
         11   -1    0    0    0    0 -0.00000000000E+00 -0.00000000000E+00 -0.45593999997E+02  0.45594000000E+02  0.51100000000E-03 0.  1.
    9900012    2    1    2    0    0  0.74089318828E+00 -0.90710818372E+00 -0.14500929389E+00  0.90007832356E+02  0.90000094943E+02 0.  0.
         12    1    1    2    0    0 -0.74089318828E+00  0.90710818372E+00  0.14500929389E+00  0.11801676443E+01  0.00000000000E+00 0. -1.
         11    1    3    3    0    0 -0.40021675241E+02  0.48643906743E+01  0.78018108715E+01  0.41064157594E+02  0.51100000000E-03 0. -1.
        -11    1    3    3    0    0  0.43460043699E+01  0.77516705068E+01 -0.44540984776E+01  0.99405806238E+01  0.51100000000E-03 0.  1.
        -12    1    3    3    0    0  0.36416564060E+02 -0.13523169365E+02 -0.34927216878E+01  0.39003094138E+02  0.00000000000E+00 0.  1.
</event>
<event>
 7    1  0.1971192E-015  0.9000788E+02  0.7816164E-02  0.1186339E+00
        -11   -1    0    0    0    0  0.00000000000E+00  0.00000000000E+00  0.45593999997E+02  0.45594000000E+02  0.51100000000E-03 0.  1.
         11   -1    0    0    0    0 -0.00000000000E+00 -0.00000000000E+00 -0.45593999997E+02  0.45594000000E+02  0.51100000000E-03 0. -1.
    9900012    2    1    2    0    0  0.73091355406E+00 -0.39757821656E-01  0.92566784310E+00  0.90007882945E+02  0.90000146200E+02 0.  0.
         12    1    1    2    0    0 -0.73091355406E+00  0.39757821656E-01 -0.92566784310E+00  0.11801170551E+01  0.00000000000E+00 0. -1.
         11    1    3    3    0    0  0.84758969058E+01 -0.43850316902E+01  0.29513605869E+01  0.99889869786E+01  0.51100000000E-03 0. -1.
        -11    1    3    3    0    0  0.25516371884E+02 -0.11319365127E+02  0.22474978471E+02  0.35837660617E+02  0.51100000000E-03 0.  1.
         12    1    3    3    0    0 -0.33261355236E+02  0.15664638995E+02 -0.24500671215E+02  0.44181235349E+02  0.00000000000E+00 0. -1.
</event>
<event>
 7    1  0.1971192E-015  0.9000773E+02  0.7816164E-02  0.1186339E+00
        -11   -1    0    0    0    0  0.00000000000E+00  0.00000000000E+00  0.45593999997E+02  0.45594000000E+02  0.51100000000E-03 0. -1.
         11   -1    0    0    0    0 -0.00000000000E+00 -0.00000000000E+00 -0.45593999997E+02  0.45594000000E+02  0.51100000000E-03 0.  1.
    9900012    2    1    2    0    0 -0.87869738483E+00 -0.81299875487E-01 -0.78378855334E+00  0.90007727464E+02  0.89999988666E+02 0.  0.
         12    1    1    2    0    0  0.87869738483E+00  0.81299875487E-01  0.78378855334E+00  0.11802725364E+01  0.00000000000E+00 0. -1.
         11    1    3    3    0    0 -0.24754729372E+02 -0.16519802753E+02  0.24264110225E+02  0.38398535839E+02  0.51100000000E-03 0. -1.
        -11    1    3    3    0    0 -0.79045678210E+01  0.69623134933E+01 -0.87273272239E+00  0.10569657718E+02  0.51100000000E-03 0.  1.
        -12    1    3    3    0    0  0.31780599808E+02  0.94761893845E+01 -0.24175166056E+02  0.41039533906E+02  0.00000000000E+00 0.  1.
</event>
<event>
 7    1  0.3056974E-015  0.9000780E+02  0.7816164E-02  0.1186339E+00
        -11   -1    0    0    0    0  0.00000000000E+00  0.00000000000E+00  0.45593999997E+02  0.45594000000E+02  0.51100000000E-03 0. -1.
         11   -1    0    0    0    0 -0.00000000000E+00 -0.00000000000E+00 -0.45593999997E+02  0.45594000000E+02  0.51100000000E-03 0.  1.
    9900012    2    1    2    0    0  0.65101922406E+00  0.54019964022E+00 -0.82294073814E+00  0.90007799534E+02  0.90000061688E+02 0.  0.
         12    1    1    2    0    0 -0.65101922406E+00 -0.54019964022E+00  0.82294073814E+00  0.11802004660E+01  0.00000000000E+00 0. -1.
         11    1    3    3    0    0  0.21910632234E+02  0.16477650325E+02  0.25729870060E+02  0.37598071475E+02  0.51100000000E-03 0. -1.
        -11    1    3    3    0    0  0.92155240712E+01 -0.28360549021E+01  0.42657507961E+00  0.96514795692E+01  0.51100000000E-03 0.  1.
        -12    1    3    3    0    0 -0.30475137081E+02 -0.13101395783E+02 -0.26979385878E+02  0.42758248489E+02  0.00000000000E+00 0.  1.
</event>
<event>
 7    1  0.1971192E-015  0.9000746E+02  0.7816164E-02  0.1186340E+00
        -11   -1    0    0    0    0  0.00000000000E+00  0.00000000000E+00  0.45593999997E+02  0.45594000000E+02  0.51100000000E-03 0. -1.
         11   -1    0    0    0    0 -0.00000000000E+00 -0.00000000000E+00 -0.45593999997E+02  0.45594000000E+02  0.51100000000E-03 0.  1.
    9900012    2    1    2    0    0 -0.85236496416E+00  0.72189802219E+00 -0.38210254537E+00  0.90007464045E+02  0.89999721770E+02 0.  0.
         12    1    1    2    0    0  0.85236496416E+00 -0.72189802219E+00  0.38210254537E+00  0.11805359553E+01  0.00000000000E+00 0. -1.
         11    1    3    3    0    0  0.29809592588E+01 -0.24931636497E+01 -0.10102498698E+02  0.10824161089E+02  0.51100000000E-03 0. -1.
        -11    1    3    3    0    0 -0.69264300259E+00  0.39325404099E+02 -0.57939281160E+01  0.39755965152E+02  0.51100000000E-03 0.  1.
         12    1    3    3    0    0 -0.31406812204E+01 -0.36110342427E+02  0.15514324269E+02  0.39427337803E+02  0.00000000000E+00 0. -1.
</event>
<event>
 7    1  0.1971192E-015  0.9000715E+02  0.7816164E-02  0.1186340E+00
        -11   -1    0    0    0    0  0.00000000000E+00  0.00000000000E+00  0.45593999997E+02  0.45594000000E+02  0.51100000000E-03 0.  1.
         11   -1    0    0    0    0 -0.00000000000E+00 -0.00000000000E+00 -0.45593999997E+02  0.45594000000E+02  0.51100000000E-03 0. -1.
    9900012    2    1    2    0    0 -0.94976927762E+00 -0.40143087621E+00  0.57548872025E+00  0.90007154669E+02  0.89999408308E+02 0.  0.
         12    1    1    2    0    0  0.94976927762E+00  0.40143087621E+00 -0.57548872025E+00  0.11808453312E+01  0.00000000000E+00 0. -1.
         11    1    3    3    0    0 -0.49895497365E+01  0.59427968341E+01  0.50187440246E+01  0.92412246283E+01  0.51100000000E-03 0. -1.
        -11    1    3    3    0    0  0.10474953640E+02  0.31098187687E+02 -0.21385135186E+02  0.39168175070E+02  0.51100000000E-03 0.  1.
         12    1    3    3    0    0 -0.64351731812E+01 -0.37442415397E+02  0.16941879882E+02  0.41597754970E+02  0.00000000000E+00 0. -1.
</event>
<event>
 7    1  0.1971192E-015  0.9000765E+02  0.7816164E-02  0.1186339E+00
        -11   -1    0    0    0    0  0.00000000000E+00  0.00000000000E+00  0.45593999997E+02  0.45594000000E+02  0.51100000000E-03 0.  1.
         11   -1    0    0    0    0 -0.00000000000E+00 -0.00000000000E+00 -0.45593999997E+02  0.45594000000E+02  0.51100000000E-03 0. -1.
    9900012    2    1    2    0    0  0.70950687421E+00  0.33345254958E+00  0.88240494727E+00  0.90007648739E+02  0.89999908903E+02 0.  0.
         12    1    1    2    0    0 -0.70950687421E+00 -0.33345254958E+00 -0.88240494727E+00  0.11803512606E+01  0.00000000000E+00 0. -1.
         11    1    3    3    0    0  0.11391621011E+02  0.31987333149E+02  0.21748129974E+02  0.40322942215E+02  0.51100000000E-03 0. -1.
        -11    1    3    3    0    0  0.14695802194E+01  0.50218608508E+01 -0.67720604962E+01  0.85580112206E+01  0.51100000000E-03 0.  1.
        -12    1    3    3    0    0 -0.12151694356E+02 -0.36675741450E+02 -0.14093664531E+02  0.41126695303E+02  0.00000000000E+00 0.  1.
</event>
<event>
 7    1  0.1971192E-015  0.9000769E+02  0.7816164E-02  0.1186339E+00
        -11   -1    0    0    0    0  0.00000000000E+00  0.00000000000E+00  0.45593999997E+02  0.45594000000E+02  0.51100000000E-03 0. -1.
         11   -1    0    0    0    0 -0.00000000000E+00 -0.00000000000E+00 -0.45593999997E+02  0.45594000000E+02  0.51100000000E-03 0.  1.
    9900012    2    1    2    0    0 -0.41103188012E-02  0.10524640428E+01 -0.53426937082E+00  0.90007685967E+02  0.89999946622E+02 0.  0.
         12    1    1    2    0    0  0.41103188012E-02 -0.10524640428E+01  0.53426937082E+00  0.11803140331E+01  0.00000000000E+00 0. -1.
         11    1    3    3    0    0  0.21482654463E+02 -0.25385157456E+02 -0.25828201575E+02  0.42107085612E+02  0.51100000000E-03 0. -1.
        -11    1    3    3    0    0  0.20339967308E+01  0.26992658884E+01  0.11082977212E+02  0.11586870292E+02  0.51100000000E-03 0.  1.
        -12    1    3    3    0    0 -0.23520761513E+02  0.23738355611E+02  0.14210954993E+02  0.36313730062E+02  0.00000000000E+00 0.  1.
</event>
<event>
 7    1  0.1971192E-015  0.9000769E+02  0.7816164E-02  0.1186339E+00
        -11   -1    0    0    0    0  0.00000000000E+00  0.00000000000E+00  0.45593999997E+02  0.45594000000E+02  0.51100000000E-03 0.  1.
         11   -1    0    0    0    0 -0.00000000000E+00 -0.00000000000E+00 -0.45593999997E+02  0.45594000000E+02  0.51100000000E-03 0. -1.
    9900012    2    1    2    0    0 -0.84313280730E+00 -0.43280552698E+00  0.70352232201E+00  0.90007687663E+02  0.89999948340E+02 0.  0.
         12    1    1    2    0    0  0.84313280730E+00  0.43280552698E+00 -0.70352232201E+00  0.11803123368E+01  0.00000000000E+00 0. -1.
         11    1    3    3    0    0 -0.74856770281E+01 -0.24941869035E+02 -0.17676170397E+02  0.31473468059E+02  0.51100000000E-03 0. -1.
        -11    1    3    3    0    0  0.12417458408E+02 -0.12739466076E+02  0.43482761119E+01  0.18313786463E+02  0.51100000000E-03 0.  1.
        -12    1    3    3    0    0 -0.57749141875E+01  0.37248529584E+02  0.14031416607E+02  0.40220433140E+02  0.00000000000E+00 0.  1.
</event>
<event>
 7    1  0.1971192E-015  0.9000767E+02  0.7816164E-02  0.1186339E+00
        -11   -1    0    0    0    0  0.00000000000E+00  0.00000000000E+00  0.45593999997E+02  0.45594000000E+02  0.51100000000E-03 0. -1.
         11   -1    0    0    0    0 -0.00000000000E+00 -0.00000000000E+00 -0.45593999997E+02  0.45594000000E+02  0.51100000000E-03 0.  1.
    9900012    2    1    2    0    0  0.11569679672E+00  0.71356467984E+00 -0.93306800387E+00  0.90007671147E+02  0.89999931606E+02 0.  0.
         12    1    1    2    0    0 -0.11569679672E+00 -0.71356467984E+00  0.93306800387E+00  0.11803288529E+01  0.00000000000E+00 0. -1.
         11    1    3    3    0    0 -0.96550214278E+01  0.12096264187E+02  0.36037691190E+02  0.39220584298E+02  0.51100000000E-03 0. -1.
        -11    1    3    3    0    0  0.59117131435E+01  0.63295220003E+01  0.99272658125E+00  0.87176090397E+01  0.51100000000E-03 0.  1.
        -12    1    3    3    0    0  0.38590050810E+01 -0.17712221508E+02 -0.37963485775E+02  0.42069477810E+02  0.00000000000E+00 0.  1.
</event>
<event>
 7    1  0.1971192E-015  0.9000769E+02  0.7816164E-02  0.1186339E+00
        -11   -1    0    0    0    0  0.00000000000E+00  0.00000000000E+00  0.45593999997E+02  0.45594000000E+02  0.51100000000E-03 0. -1.
         11   -1    0    0    0    0 -0.00000000000E+00 -0.00000000000E+00 -0.45593999997E+02  0.45594000000E+02  0.51100000000E-03 0.  1.
    9900012    2    1    2    0    0 -0.68414235366E-01 -0.85042356591E+00 -0.81561049726E+00  0.90007694433E+02  0.89999955199E+02 0.  0.
         12    1    1    2    0    0  0.68414235366E-01  0.85042356591E+00  0.81561049726E+00  0.11803055673E+01  0.00000000000E+00 0. -1.
         11    1    3    3    0    0  0.77471161074E+01 -0.30282795993E+01  0.31256862703E+01  0.88858426857E+01  0.51100000000E-03 0. -1.
        -11    1    3    3    0    0  0.82633176765E+00 -0.25534690290E+02 -0.31865454325E+02  0.40842507416E+02  0.51100000000E-03 0.  1.
         12    1    3    3    0    0 -0.86418621104E+01  0.27712546323E+02  0.27924157558E+02  0.40279344331E+02  0.00000000000E+00 0. -1.
</event>
<event>
 7    1  0.1971192E-015  0.9000784E+02  0.7816164E-02  0.1186339E+00
        -11   -1    0    0    0    0  0.00000000000E+00  0.00000000000E+00  0.45593999997E+02  0.45594000000E+02  0.51100000000E-03 0. -1.
         11   -1    0    0    0    0 -0.00000000000E+00 -0.00000000000E+00 -0.45593999997E+02  0.45594000000E+02  0.51100000000E-03 0.  1.
    9900012    2    1    2    0    0 -0.29919244111E+00 -0.11367245844E+01 -0.10541385737E+00  0.90007842816E+02  0.90000105541E+02 0.  0.
         12    1    1    2    0    0  0.29919244111E+00  0.11367245844E+01  0.10541385737E+00  0.11801571840E+01  0.00000000000E+00 0. -1.
         11    1    3    3    0    0  0.41591299739E+01  0.30133335618E+02 -0.28713941444E+02  0.41830691019E+02  0.51100000000E-03 0. -1.
        -11    1    3    3    0    0  0.46065484398E+01 -0.90028853157E+01 -0.85558084081E+00  0.10149101013E+02  0.51100000000E-03 0.  1.
        -12    1    3    3    0    0 -0.90648708548E+01 -0.22267174886E+02  0.29464108427E+02  0.38028050784E+02  0.00000000000E+00 0.  1.
</event>
<event>
 7    1  0.1971192E-015  0.9000783E+02  0.7816164E-02  0.1186339E+00
        -11   -1    0    0    0    0  0.00000000000E+00  0.00000000000E+00  0.45593999997E+02  0.45594000000E+02  0.51100000000E-03 0. -1.
         11   -1    0    0    0    0 -0.00000000000E+00 -0.00000000000E+00 -0.45593999997E+02  0.45594000000E+02  0.51100000000E-03 0.  1.
    9900012    2    1    2    0    0  0.52240663629E+00  0.67397678441E+00 -0.81587318674E+00  0.90007829480E+02  0.90000092029E+02 0.  0.
         12    1    1    2    0    0 -0.52240663629E+00 -0.67397678441E+00  0.81587318674E+00  0.11801705201E+01  0.00000000000E+00 0. -1.
         11    1    3    3    0    0 -0.19226808212E+02  0.28215994726E+02  0.20299482708E+02  0.39722556701E+02  0.51100000000E-03 0. -1.
        -11    1    3    3    0    0  0.65622374896E+01  0.62978473975E+01 -0.22969437286E+01  0.93809271112E+01  0.51100000000E-03 0.  1.
        -12    1    3    3    0    0  0.13186977359E+02 -0.33839865339E+02 -0.18818412167E+02  0.40904345667E+02  0.00000000000E+00 0.  1.
</event>
<event>
 7    1  0.1971192E-015  0.9000767E+02  0.7816164E-02  0.1186339E+00
        -11   -1    0    0    0    0  0.00000000000E+00  0.00000000000E+00  0.45593999997E+02  0.45594000000E+02  0.51100000000E-03 0.  1.
         11   -1    0    0    0    0 -0.00000000000E+00 -0.00000000000E+00 -0.45593999997E+02  0.45594000000E+02  0.51100000000E-03 0. -1.
    9900012    2    1    2    0    0 -0.71474882869E+00  0.69994412647E+00  0.62642044839E+00  0.90007665197E+02  0.89999925578E+02 0.  0.
         12    1    1    2    0    0  0.71474882869E+00 -0.69994412647E+00 -0.62642044839E+00  0.11803348027E+01  0.00000000000E+00 0. -1.
         11    1    3    3    0    0  0.59059446047E+01 -0.54521630215E+01 -0.40500093235E+01  0.90004910460E+01  0.51100000000E-03 0. -1.
        -11    1    3    3    0    0  0.27377175930E+02  0.21495387363E+02  0.20604574898E+02  0.40448855939E+02  0.51100000000E-03 0.  1.
         12    1    3    3    0    0 -0.33997869364E+02 -0.15343280215E+02 -0.15928145126E+02  0.40558318212E+02  0.00000000000E+00 0. -1.
</event>
<event>
 7    1  0.1971192E-015  0.9000753E+02  0.7816164E-02  0.1186339E+00
        -11   -1    0    0    0    0  0.00000000000E+00  0.00000000000E+00  0.45593999997E+02  0.45594000000E+02  0.51100000000E-03 0.  1.
         11   -1    0    0    0    0 -0.00000000000E+00 -0.00000000000E+00 -0.45593999997E+02  0.45594000000E+02  0.51100000000E-03 0. -1.
    9900012    2    1    2    0    0 -0.10744324797E+01 -0.40764577493E+00 -0.27005593171E+00  0.90007529569E+02  0.89999788159E+02 0.  0.
         12    1    1    2    0    0  0.10744324797E+01  0.40764577493E+00  0.27005593171E+00  0.11804704306E+01  0.00000000000E+00 0. -1.
         11    1    3    3    0    0  0.29378007335E+02  0.17525982031E+02  0.97335813575E+01  0.35566416286E+02  0.51100000000E-03 0. -1.
        -11    1    3    3    0    0  0.61528044831E+01  0.39698293044E+01  0.53882470727E+01  0.90911910381E+01  0.51100000000E-03 0.  1.
        -12    1    3    3    0    0 -0.36605244298E+02 -0.21903457110E+02 -0.15391884362E+02  0.45349922246E+02  0.00000000000E+00 0.  1.
</event>
<event>
 7    1  0.1971192E-015  0.9000772E+02  0.7816164E-02  0.1186339E+00
        -11   -1    0    0    0    0  0.00000000000E+00  0.00000000000E+00  0.45593999997E+02  0.45594000000E+02  0.51100000000E-03 0. -1.
         11   -1    0    0    0    0 -0.00000000000E+00 -0.00000000000E+00 -0.45593999997E+02  0.45594000000E+02  0.51100000000E-03 0.  1.
    9900012    2    1    2    0    0 -0.73731052104E+00  0.57037757482E+00 -0.72394520065E+00  0.90007722899E+02  0.89999984041E+02 0.  0.
         12    1    1    2    0    0  0.73731052104E+00 -0.57037757482E+00  0.72394520065E+00  0.11802771013E+01  0.00000000000E+00 0. -1.
         11    1    3    3    0    0 -0.15219834503E+02 -0.50625864132E+01  0.34978766943E+02  0.38480998955E+02  0.51100000000E-03 0. -1.
        -11    1    3    3    0    0  0.88501852094E+00  0.78892925955E+00  0.66639447595E+01  0.67685912255E+01  0.51100000000E-03 0.  1.
        -12    1    3    3    0    0  0.13597505461E+02  0.48440347284E+01 -0.42366656903E+02  0.44758132718E+02  0.00000000000E+00 0.  1.
</event>
<event>
 7    1  0.1971192E-015  0.9000794E+02  0.7816164E-02  0.1186339E+00
        -11   -1    0    0    0    0  0.00000000000E+00  0.00000000000E+00  0.45593999997E+02  0.45594000000E+02  0.51100000000E-03 0.  1.
         11   -1    0    0    0    0 -0.00000000000E+00 -0.00000000000E+00 -0.45593999997E+02  0.45594000000E+02  0.51100000000E-03 0. -1.
    9900012    2    1    2    0    0  0.84424326709E+00  0.82373449923E+00  0.35484032523E-01  0.90007938842E+02  0.90000202835E+02 0.  0.
         12    1    1    2    0    0 -0.84424326709E+00 -0.82373449923E+00 -0.35484032523E-01  0.11800611577E+01  0.00000000000E+00 0. -1.
         11    1    3    3    0    0 -0.18893124431E+02 -0.13312013779E+02 -0.34425858494E+02  0.41464437714E+02  0.51100000000E-03 0. -1.
        -11    1    3    3    0    0 -0.26575622512E+01 -0.39452742325E+01  0.87010310006E+01  0.99164392109E+01  0.51100000000E-03 0.  1.
        -12    1    3    3    0    0  0.22394929949E+02  0.18081022511E+02  0.25760311526E+02  0.38627061918E+02  0.00000000000E+00 0.  1.
</event>
<event>
 7    1  0.1971192E-015  0.9000767E+02  0.7816164E-02  0.1186339E+00
        -11   -1    0    0    0    0  0.00000000000E+00  0.00000000000E+00  0.45593999997E+02  0.45594000000E+02  0.51100000000E-03 0.  1.
         11   -1    0    0    0    0 -0.00000000000E+00 -0.00000000000E+00 -0.45593999997E+02  0.45594000000E+02  0.51100000000E-03 0. -1.
    9900012    2    1    2    0    0  0.10629783847E+01  0.51064693370E+00  0.49877781863E-01  0.90007673295E+02  0.89999933783E+02 0.  0.
         12    1    1    2    0    0 -0.10629783847E+01 -0.51064693370E+00 -0.49877781863E-01  0.11803267049E+01  0.00000000000E+00 0. -1.
         11    1    3    3    0    0 -0.12444595130E+02  0.75724928691E+01 -0.95241942493E+01  0.17404622161E+02  0.51100000000E-03 0. -1.
        -11    1    3    3    0    0 -0.22775220758E+02  0.15619387837E+02  0.11156667103E+02  0.29785015999E+02  0.51100000000E-03 0.  1.
         12    1    3    3    0    0  0.36282794273E+02 -0.22681233772E+02 -0.15825950718E+01  0.42818035135E+02  0.00000000000E+00 0. -1.
</event>
<event>
 7    1  0.1971192E-015  0.9000771E+02  0.7816164E-02  0.1186339E+00
        -11   -1    0    0    0    0  0.00000000000E+00  0.00000000000E+00  0.45593999997E+02  0.45594000000E+02  0.51100000000E-03 0.  1.
         11   -1    0    0    0    0 -0.00000000000E+00 -0.00000000000E+00 -0.45593999997E+02  0.45594000000E+02  0.51100000000E-03 0. -1.
    9900012    2    1    2    0    0  0.10381829522E+01 -0.23153031287E+00  0.51152310525E+00  0.90007709351E+02  0.89999970315E+02 0.  0.
         12    1    1    2    0    0 -0.10381829522E+01  0.23153031287E+00 -0.51152310525E+00  0.11802906486E+01  0.00000000000E+00 0. -1.
         11    1    3    3    0    0 -0.12857288617E+02  0.79111271686E+01 -0.15948613347E+02  0.21960283960E+02  0.51100000000E-03 0. -1.
        -11    1    3    3    0    0 -0.24848036067E+02 -0.16564549756E-01 -0.80186213401E+00  0.24860976528E+02  0.51100000000E-03 0.  1.
        -12    1    3    3    0    0  0.38743507636E+02 -0.81260929317E+01  0.17261998586E+02  0.43186448864E+02  0.00000000000E+00 0.  1.
</event>
<event>
 7    1  0.1971192E-015  0.9000711E+02  0.7816164E-02  0.1186340E+00
        -11   -1    0    0    0    0  0.00000000000E+00  0.00000000000E+00  0.45593999997E+02  0.45594000000E+02  0.51100000000E-03 0.  1.
         11   -1    0    0    0    0 -0.00000000000E+00 -0.00000000000E+00 -0.45593999997E+02  0.45594000000E+02  0.51100000000E-03 0. -1.
    9900012    2    1    2    0    0 -0.94383834680E+00 -0.41956779927E+00  0.57240091254E+00  0.90007105946E+02  0.89999358942E+02 0.  0.
         12    1    1    2    0    0  0.94383834680E+00  0.41956779927E+00 -0.57240091254E+00  0.11808940544E+01  0.00000000000E+00 0. -1.
         11    1    3    3    0    0 -0.47049298942E+01 -0.13157850401E+02  0.13391262240E+02  0.19354361191E+02  0.51100000000E-03 0. -1.
        -11    1    3    3    0    0 -0.25314999589E+01 -0.10798078549E+02  0.24036982803E+02  0.26472316388E+02  0.51100000000E-03 0.  1.
         12    1    3    3    0    0  0.62925915063E+01  0.23536361150E+02 -0.36855844131E+02  0.44180428367E+02  0.00000000000E+00 0. -1.
</event>
<event>
 7    1  0.1971192E-015  0.9000771E+02  0.7816164E-02  0.1186339E+00
        -11   -1    0    0    0    0  0.00000000000E+00  0.00000000000E+00  0.45593999997E+02  0.45594000000E+02  0.51100000000E-03 0. -1.
         11   -1    0    0    0    0 -0.00000000000E+00 -0.00000000000E+00 -0.45593999997E+02  0.45594000000E+02  0.51100000000E-03 0.  1.
    9900012    2    1    2    0    0  0.21177806110E+00  0.10906001599E+01  0.39854284896E+00  0.90007705520E+02  0.89999966433E+02 0.  0.
         12    1    1    2    0    0 -0.21177806110E+00 -0.10906001599E+01 -0.39854284896E+00  0.11802944795E+01  0.00000000000E+00 0. -1.
         11    1    3    3    0    0 -0.31550025841E+01 -0.70386147178E+01  0.13145025093E+01  0.78245802162E+01  0.51100000000E-03 0. -1.
        -11    1    3    3    0    0 -0.31864204289E+02  0.10363595654E+02 -0.22909808662E+02  0.40590527997E+02  0.51100000000E-03 0.  1.
         12    1    3    3    0    0  0.35230984934E+02 -0.22343807760E+01  0.21993849002E+02  0.41592597308E+02  0.00000000000E+00 0. -1.
</event>
<event>
 7    1  0.1971192E-015  0.9000776E+02  0.7816164E-02  0.1186339E+00
        -11   -1    0    0    0    0  0.00000000000E+00  0.00000000000E+00  0.45593999997E+02  0.45594000000E+02  0.51100000000E-03 0.  1.
         11   -1    0    0    0    0 -0.00000000000E+00 -0.00000000000E+00 -0.45593999997E+02  0.45594000000E+02  0.51100000000E-03 0. -1.
    9900012    2    1    2    0    0 -0.78692086871E+00 -0.77132010403E+00  0.42281888390E+00  0.90007764869E+02  0.90000026565E+02 0.  0.
         12    1    1    2    0    0  0.78692086871E+00  0.77132010403E+00 -0.42281888390E+00  0.11802351313E+01  0.00000000000E+00 0. -1.
         11    1    3    3    0    0 -0.48651463645E+01  0.40547088055E+01  0.53050839685E+01  0.82616117568E+01  0.51100000000E-03 0. -1.
        -11    1    3    3    0    0  0.12226012508E+02  0.34782885355E+02  0.10730170786E+02  0.38398711708E+02  0.51100000000E-03 0.  1.
         12    1    3    3    0    0 -0.81477870127E+01 -0.39608914265E+02 -0.15612435871E+02  0.43347441404E+02  0.00000000000E+00 0. -1.
</event>
<event>
 7    1  0.1971192E-015  0.9000771E+02  0.7816164E-02  0.1186339E+00
        -11   -1    0    0    0    0  0.00000000000E+00  0.00000000000E+00  0.45593999997E+02  0.45594000000E+02  0.51100000000E-03 0.  1.
         11   -1    0    0    0    0 -0.00000000000E+00 -0.00000000000E+00 -0.45593999997E+02  0.45594000000E+02  0.51100000000E-03 0. -1.
    9900012    2    1    2    0    0 -0.12550795441E+00  0.11614874878E+01  0.16818200321E+00  0.90007707402E+02  0.89999968340E+02 0.  0.
         12    1    1    2    0    0  0.12550795441E+00 -0.11614874878E+01 -0.16818200321E+00  0.11802925981E+01  0.00000000000E+00 0. -1.
         11    1    3    3    0    0  0.14592577158E+02  0.29744371647E+02 -0.17315800499E+02  0.37383256947E+02  0.51100000000E-03 0. -1.
        -11    1    3    3    0    0  0.45362934596E+01  0.21928814289E+01 -0.71543206641E+01  0.87504852287E+01  0.51100000000E-03 0.  1.
        -12    1    3    3    0    0 -0.19254378572E+02 -0.30775765588E+02  0.24638303166E+02  0.43873965226E+02  0.00000000000E+00 0.  1.
</event>
<event>
 7    1  0.1971192E-015  0.9000787E+02  0.7816164E-02  0.1186339E+00
        -11   -1    0    0    0    0  0.00000000000E+00  0.00000000000E+00  0.45593999997E+02  0.45594000000E+02  0.51100000000E-03 0.  1.
         11   -1    0    0    0    0 -0.00000000000E+00 -0.00000000000E+00 -0.45593999997E+02  0.45594000000E+02  0.51100000000E-03 0. -1.
    9900012    2    1    2    0    0  0.92375828874E+00 -0.32559973505E+00 -0.65830040874E+00  0.90007871197E+02  0.90000134297E+02 0.  0.
         12    1    1    2    0    0 -0.92375828874E+00  0.32559973505E+00  0.65830040874E+00  0.11801288030E+01  0.00000000000E+00 0. -1.
         11    1    3    3    0    0 -0.98879241744E+01  0.35689082789E+01 -0.78993421418E+00  0.10541923312E+02  0.51100000000E-03 0. -1.
        -11    1    3    3    0    0 -0.29148107291E+02  0.17569977164E+02 -0.16175396072E+01  0.34072462353E+02  0.51100000000E-03 0.  1.
         12    1    3    3    0    0  0.39959789754E+02 -0.21464485178E+02  0.17491734126E+01  0.45393485532E+02  0.00000000000E+00 0. -1.
</event>
<event>
 7    1  0.1971192E-015  0.9000771E+02  0.7816164E-02  0.1186339E+00
        -11   -1    0    0    0    0  0.00000000000E+00  0.00000000000E+00  0.45593999997E+02  0.45594000000E+02  0.51100000000E-03 0. -1.
         11   -1    0    0    0    0 -0.00000000000E+00 -0.00000000000E+00 -0.45593999997E+02  0.45594000000E+02  0.51100000000E-03 0.  1.
    9900012    2    1    2    0    0 -0.63345779034E+00 -0.29351223361E+00 -0.95165918117E+00  0.90007714695E+02  0.89999975729E+02 0.  0.
         12    1    1    2    0    0  0.63345779034E+00  0.29351223361E+00  0.95165918117E+00  0.11802853047E+01  0.00000000000E+00 0. -1.
         11    1    3    3    0    0 -0.46765607557E+01  0.10918380458E+02  0.95654699914E+00  0.11916217300E+02  0.51100000000E-03 0. -1.
        -11    1    3    3    0    0 -0.83652754568E+00  0.18547201801E+02  0.29304295739E+02  0.34690635941E+02  0.51100000000E-03 0.  1.
         12    1    3    3    0    0  0.48796305111E+01 -0.29759094492E+02 -0.31212501919E+02  0.43400861454E+02  0.00000000000E+00 0. -1.
</event>
<event>
 7    1  0.1971192E-015  0.9000775E+02  0.7816164E-02  0.1186339E+00
        -11   -1    0    0    0    0  0.00000000000E+00  0.00000000000E+00  0.45593999997E+02  0.45594000000E+02  0.51100000000E-03 0.  1.
         11   -1    0    0    0    0 -0.00000000000E+00 -0.00000000000E+00 -0.45593999997E+02  0.45594000000E+02  0.51100000000E-03 0. -1.
    9900012    2    1    2    0    0 -0.10834012919E+01  0.30976279458E+00  0.35112341555E+00  0.90007746213E+02  0.90000007663E+02 0.  0.
         12    1    1    2    0    0  0.10834012919E+01 -0.30976279458E+00 -0.35112341555E+00  0.11802537868E+01  0.00000000000E+00 0. -1.
         11    1    3    3    0    0 -0.10732123862E+01 -0.61863523632E+01 -0.69296688360E+01  0.93510989100E+01  0.51100000000E-03 0. -1.
        -11    1    3    3    0    0  0.22201665217E+02 -0.28926822928E+02  0.12440815798E+02  0.38528546833E+02  0.51100000000E-03 0.  1.
         12    1    3    3    0    0 -0.22211854123E+02  0.35422938085E+02 -0.51600235467E+01  0.42128100470E+02  0.00000000000E+00 0. -1.
</event>
<event>
 7    1  0.1971192E-015  0.9000767E+02  0.7816164E-02  0.1186339E+00
        -11   -1    0    0    0    0  0.00000000000E+00  0.00000000000E+00  0.45593999997E+02  0.45594000000E+02  0.51100000000E-03 0.  1.
         11   -1    0    0    0    0 -0.00000000000E+00 -0.00000000000E+00 -0.45593999997E+02  0.45594000000E+02  0.51100000000E-03 0. -1.
    9900012    2    1    2    0    0  0.10739981923E+01 -0.96557006906E-01 -0.47997657762E+00  0.90007672551E+02  0.89999933028E+02 0.  0.
         12    1    1    2    0    0 -0.10739981923E+01  0.96557006906E-01  0.47997657762E+00  0.11803274494E+01  0.00000000000E+00 0. -1.
         11    1    3    3    0    0  0.18730882043E+02  0.23894884890E+02 -0.26816014983E+02  0.40508148882E+02  0.51100000000E-03 0. -1.
        -11    1    3    3    0    0 -0.50967292560E+01 -0.56230839965E+01 -0.63926242765E+01  0.99227701849E+01  0.51100000000E-03 0.  1.
        -12    1    3    3    0    0 -0.12560154595E+02 -0.18368357900E+02  0.32728662682E+02  0.39576753484E+02  0.00000000000E+00 0.  1.
</event>
<event>
 7    1  0.1971192E-015  0.9000808E+02  0.7816164E-02  0.1186338E+00
        -11   -1    0    0    0    0  0.00000000000E+00  0.00000000000E+00  0.45593999997E+02  0.45594000000E+02  0.51100000000E-03 0.  1.
         11   -1    0    0    0    0 -0.00000000000E+00 -0.00000000000E+00 -0.45593999997E+02  0.45594000000E+02  0.51100000000E-03 0. -1.
    9900012    2    1    2    0    0  0.11614437034E+01 -0.80440261387E-01  0.19180451986E+00  0.90008080051E+02  0.90000345907E+02 0.  0.
         12    1    1    2    0    0 -0.11614437034E+01  0.80440261387E-01 -0.19180451986E+00  0.11799199488E+01  0.00000000000E+00 0. -1.
         11    1    3    3    0    0 -0.18946858700E+02  0.25730388290E+02 -0.18140209834E+02  0.36743755241E+02  0.51100000000E-03 0. -1.
        -11    1    3    3    0    0  0.10405895148E+01 -0.71592747541E+00 -0.10483866418E+02  0.10559679636E+02  0.51100000000E-03 0.  1.
        -12    1    3    3    0    0  0.19067712888E+02 -0.25094901076E+02  0.28815880771E+02  0.42704645174E+02  0.00000000000E+00 0.  1.
</event>
<event>
 7    1  0.1971192E-015  0.9000779E+02  0.7816164E-02  0.1186339E+00
        -11   -1    0    0    0    0  0.00000000000E+00  0.00000000000E+00  0.45593999997E+02  0.45594000000E+02  0.51100000000E-03 0. -1.
         11   -1    0    0    0    0 -0.00000000000E+00 -0.00000000000E+00 -0.45593999997E+02  0.45594000000E+02  0.51100000000E-03 0.  1.
    9900012    2    1    2    0    0 -0.51040236977E+00 -0.65623918427E+00 -0.83769264297E+00  0.90007792641E+02  0.90000054704E+02 0.  0.
         12    1    1    2    0    0  0.51040236977E+00  0.65623918427E+00  0.83769264297E+00  0.11802073589E+01  0.00000000000E+00 0. -1.
         11    1    3    3    0    0 -0.60633681150E+01 -0.76214902945E+01 -0.48705431206E+01  0.10889156889E+02  0.51100000000E-03 0. -1.
        -11    1    3    3    0    0 -0.21426174443E+01 -0.29518460540E+02 -0.19113999423E+02  0.35231737061E+02  0.51100000000E-03 0.  1.
         12    1    3    3    0    0  0.76955831895E+01  0.36483711650E+02  0.23146849900E+02  0.43886898691E+02  0.00000000000E+00 0. -1.
</event>
<event>
 7    1  0.1971192E-015  0.9000774E+02  0.7816164E-02  0.1186339E+00
        -11   -1    0    0    0    0  0.00000000000E+00  0.00000000000E+00  0.45593999997E+02  0.45594000000E+02  0.51100000000E-03 0.  1.
         11   -1    0    0    0    0 -0.00000000000E+00 -0.00000000000E+00 -0.45593999997E+02  0.45594000000E+02  0.51100000000E-03 0. -1.
    9900012    2    1    2    0    0  0.11730489578E+01 -0.12590030122E+00  0.33372206303E-01  0.90007742211E+02  0.90000003609E+02 0.  0.
         12    1    1    2    0    0 -0.11730489578E+01  0.12590030122E+00 -0.33372206303E-01  0.11802577886E+01  0.00000000000E+00 0. -1.
         11    1    3    3    0    0  0.65269463654E+01  0.75782646331E+01  0.95843892487E+00  0.10047374241E+02  0.51100000000E-03 0. -1.
        -11    1    3    3    0    0 -0.18995738305E+02  0.30766924642E+02  0.10355303970E+02  0.37612152906E+02  0.51100000000E-03 0.  1.
         12    1    3    3    0    0  0.13641840898E+02 -0.38471089576E+02 -0.11280370688E+02  0.42348215064E+02  0.00000000000E+00 0. -1.
</event>
<event>
 7    1  0.1971192E-015  0.9000772E+02  0.7816164E-02  0.1186339E+00
        -11   -1    0    0    0    0  0.00000000000E+00  0.00000000000E+00  0.45593999997E+02  0.45594000000E+02  0.51100000000E-03 0. -1.
         11   -1    0    0    0    0 -0.00000000000E+00 -0.00000000000E+00 -0.45593999997E+02  0.45594000000E+02  0.51100000000E-03 0.  1.
    9900012    2    1    2    0    0 -0.26317609553E+00  0.11334778550E+01 -0.19756527457E+00  0.90007717939E+02  0.89999979016E+02 0.  0.
         12    1    1    2    0    0  0.26317609553E+00 -0.11334778550E+01  0.19756527457E+00  0.11802820607E+01  0.00000000000E+00 0. -1.
         11    1    3    3    0    0 -0.88576635046E+01  0.18018197119E+01  0.80134616715E+01  0.12079748559E+02  0.51100000000E-03 0. -1.
        -11    1    3    3    0    0  0.98661763314E+01  0.18092315734E+02 -0.37693791709E+02  0.42959227852E+02  0.51100000000E-03 0.  1.
         12    1    3    3    0    0 -0.12716889224E+01 -0.18760657591E+02  0.29482764763E+02  0.34968741528E+02  0.00000000000E+00 0. -1.
</event>
<event>
 7    1  0.1971192E-015  0.9000770E+02  0.7816164E-02  0.1186339E+00
        -11   -1    0    0    0    0  0.00000000000E+00  0.00000000000E+00  0.45593999997E+02  0.45594000000E+02  0.51100000000E-03 0.  1.
         11   -1    0    0    0    0 -0.00000000000E+00 -0.00000000000E+00 -0.45593999997E+02  0.45594000000E+02  0.51100000000E-03 0. -1.
    9900012    2    1    2    0    0  0.90657944291E+00  0.74504387162E+00 -0.12703697593E+00  0.90007697052E+02  0.89999957853E+02 0.  0.
         12    1    1    2    0    0 -0.90657944291E+00 -0.74504387162E+00  0.12703697593E+00  0.11803029485E+01  0.00000000000E+00 0. -1.
         11    1    3    3    0    0 -0.29828315528E+02  0.99167996492E+01  0.16393617016E+02  0.35451685456E+02  0.51100000000E-03 0. -1.
        -11    1    3    3    0    0 -0.95683514083E+01  0.10612744537E+01  0.46568447856E+00  0.96382837909E+01  0.51100000000E-03 0.  1.
        -12    1    3    3    0    0  0.40303246380E+02 -0.10233030231E+02 -0.16986338471E+02  0.44917727804E+02  0.00000000000E+00 0.  1.
</event>
<event>
 7    1  0.1971192E-015  0.9000819E+02  0.7816164E-02  0.1186338E+00
        -11   -1    0    0    0    0  0.00000000000E+00  0.00000000000E+00  0.45593999997E+02  0.45594000000E+02  0.51100000000E-03 0. -1.
         11   -1    0    0    0    0 -0.00000000000E+00 -0.00000000000E+00 -0.45593999997E+02  0.45594000000E+02  0.51100000000E-03 0.  1.
    9900012    2    1    2    0    0 -0.28136526281E+00  0.77550143685E+00 -0.84343431578E+00  0.90008190552E+02  0.90000457866E+02 0.  0.
         12    1    1    2    0    0  0.28136526281E+00 -0.77550143685E+00  0.84343431578E+00  0.11798094485E+01  0.00000000000E+00 0. -1.
         11    1    3    3    0    0 -0.98823076829E+00  0.85440037308E+01  0.16696650505E+01  0.87615284879E+01  0.51100000000E-03 0. -1.
        -11    1    3    3    0    0  0.38744782041E+02 -0.16373005045E+02 -0.37415362371E+01  0.42228337918E+02  0.51100000000E-03 0.  1.
         12    1    3    3    0    0 -0.38037916536E+02  0.86045027511E+01  0.12284368708E+01  0.39018324146E+02  0.00000000000E+00 0. -1.
</event>
<event>
 7    1  0.1971192E-015  0.9000772E+02  0.7816164E-02  0.1186339E+00
        -11   -1    0    0    0    0  0.00000000000E+00  0.00000000000E+00  0.45593999997E+02  0.45594000000E+02  0.51100000000E-03 0.  1.
         11   -1    0    0    0    0 -0.00000000000E+00 -0.00000000000E+00 -0.45593999997E+02  0.45594000000E+02  0.51100000000E-03 0. -1.
    9900012    2    1    2    0    0 -0.87428969799E+00 -0.67312043345E+00  0.41902770153E+00  0.90007721300E+02  0.89999982422E+02 0.  0.
         12    1    1    2    0    0  0.87428969799E+00  0.67312043345E+00 -0.41902770153E+00  0.11802786995E+01  0.00000000000E+00 0. -1.
         11    1    3    3    0    0 -0.81173020776E+01  0.20937862949E+01 -0.35004866669E+01  0.90844890464E+01  0.51100000000E-03 0. -1.
        -11    1    3    3    0    0 -0.28266817132E+02 -0.20972476973E+02 -0.13078916415E+02  0.37548845469E+02  0.51100000000E-03 0.  1.
         12    1    3    3    0    0  0.35509829512E+02  0.18205570245E+02  0.16998430784E+02  0.43374386785E+02  0.00000000000E+00 0. -1.
</event>
<event>
 7    1  0.1971192E-015  0.9000774E+02  0.7816164E-02  0.1186339E+00
        -11   -1    0    0    0    0  0.00000000000E+00  0.00000000000E+00  0.45593999997E+02  0.45594000000E+02  0.51100000000E-03 0. -1.
         11   -1    0    0    0    0 -0.00000000000E+00 -0.00000000000E+00 -0.45593999997E+02  0.45594000000E+02  0.51100000000E-03 0.  1.
    9900012    2    1    2    0    0 -0.26115423889E+00 -0.95708982394E+00 -0.63936528814E+00  0.90007741368E+02  0.90000002754E+02 0.  0.
         12    1    1    2    0    0  0.26115423889E+00  0.95708982394E+00  0.63936528814E+00  0.11802586324E+01  0.00000000000E+00 0. -1.
         11    1    3    3    0    0 -0.79028428147E+01 -0.22291621884E+02 -0.27918947574E+02  0.36590148464E+02  0.51100000000E-03 0. -1.
        -11    1    3    3    0    0  0.58704258112E+00 -0.87481105445E+01 -0.38327129760E+01  0.95688947172E+01  0.51100000000E-03 0.  1.
        -12    1    3    3    0    0  0.70546459947E+01  0.30082642604E+02  0.31112295262E+02  0.43848698186E+02  0.00000000000E+00 0.  1.
</event>
<event>
 7    1  0.1971192E-015  0.9000777E+02  0.7816164E-02  0.1186339E+00
        -11   -1    0    0    0    0  0.00000000000E+00  0.00000000000E+00  0.45593999997E+02  0.45594000000E+02  0.51100000000E-03 0.  1.
         11   -1    0    0    0    0 -0.00000000000E+00 -0.00000000000E+00 -0.45593999997E+02  0.45594000000E+02  0.51100000000E-03 0. -1.
    9900012    2    1    2    0    0 -0.96141876873E+00  0.68438576561E+00  0.15384056485E-01  0.90007768415E+02  0.90000030158E+02 0.  0.
         12    1    1    2    0    0  0.96141876873E+00 -0.68438576561E+00 -0.15384056485E-01  0.11802315850E+01  0.00000000000E+00 0. -1.
         11    1    3    3    0    0  0.28809319291E+01 -0.93623313089E+01 -0.10265734027E+01  0.98492065432E+01  0.51100000000E-03 0. -1.
        -11    1    3    3    0    0  0.36419610568E+02 -0.57785813300E+01  0.12815813273E+01  0.36897459087E+02  0.51100000000E-03 0.  1.
         12    1    3    3    0    0 -0.40261961266E+02  0.15825298405E+02 -0.23962386806E+00  0.43261102785E+02  0.00000000000E+00 0. -1.
</event>
<event>
 7    1  0.1971192E-015  0.9000782E+02  0.7816164E-02  0.1186339E+00
        -11   -1    0    0    0    0  0.00000000000E+00  0.00000000000E+00  0.45593999997E+02  0.45594000000E+02  0.51100000000E-03 0. -1.
         11   -1    0    0    0    0 -0.00000000000E+00 -0.00000000000E+00 -0.45593999997E+02  0.45594000000E+02  0.51100000000E-03 0.  1.
    9900012    2    1    2    0    0 -0.10697532652E+00 -0.10203153986E+01 -0.58337977751E+00  0.90007822387E+02  0.90000084843E+02 0.  0.
         12    1    1    2    0    0  0.10697532652E+00  0.10203153986E+01  0.58337977751E+00  0.11801776128E+01  0.00000000000E+00 0. -1.
         11    1    3    3    0    0 -0.70291361596E+01  0.11885424571E+02 -0.35530237982E+01  0.14258192409E+02  0.51100000000E-03 0. -1.
        -11    1    3    3    0    0 -0.27097888505E+02 -0.34252342355E+01 -0.19794800424E+02  0.33732208868E+02  0.51100000000E-03 0.  1.
         12    1    3    3    0    0  0.34020049338E+02 -0.94805057342E+01  0.22764444444E+02  0.42017421111E+02  0.00000000000E+00 0. -1.
</event>
<event>
 7    1  0.1971192E-015  0.9000790E+02  0.7816164E-02  0.1186339E+00
        -11   -1    0    0    0    0  0.00000000000E+00  0.00000000000E+00  0.45593999997E+02  0.45594000000E+02  0.51100000000E-03 0.  1.
         11   -1    0    0    0    0 -0.00000000000E+00 -0.00000000000E+00 -0.45593999997E+02  0.45594000000E+02  0.51100000000E-03 0. -1.
    9900012    2    1    2    0    0 -0.39155133215E+00  0.10927534574E+01  0.21264255388E+00  0.90007898555E+02  0.90000162016E+02 0.  0.
         12    1    1    2    0    0  0.39155133215E+00 -0.10927534574E+01 -0.21264255388E+00  0.11801014448E+01  0.00000000000E+00 0. -1.
         11    1    3    3    0    0  0.23181651457E+02  0.30264753127E+02  0.18388172111E+02  0.42325750081E+02  0.51100000000E-03 0. -1.
        -11    1    3    3    0    0  0.35699781377E+01 -0.91264262231E+01 -0.10898638302E+01  0.98602334120E+01  0.51100000000E-03 0.  1.
        -12    1    3    3    0    0 -0.27143180927E+02 -0.20045573446E+02 -0.17085665727E+02  0.37821915062E+02  0.00000000000E+00 0.  1.
</event>
<event>
 7    1  0.1971192E-015  0.9000770E+02  0.7816164E-02  0.1186339E+00
        -11   -1    0    0    0    0  0.00000000000E+00  0.00000000000E+00  0.45593999997E+02  0.45594000000E+02  0.51100000000E-03 0.  1.
         11   -1    0    0    0    0 -0.00000000000E+00 -0.00000000000E+00 -0.45593999997E+02  0.45594000000E+02  0.51100000000E-03 0. -1.
    9900012    2    1    2    0    0  0.72480890756E+00 -0.16321362170E+00  0.91713287877E+00  0.90007695227E+02  0.89999956004E+02 0.  0.
         12    1    1    2    0    0 -0.72480890756E+00  0.16321362170E+00 -0.91713287877E+00  0.11803047726E+01  0.00000000000E+00 0. -1.
         11    1    3    3    0    0 -0.31096433723E+01  0.77582648905E+01 -0.39485011543E+01  0.92439827802E+01  0.51100000000E-03 0. -1.
        -11    1    3    3    0    0  0.31956398490E+02  0.14163441736E+02  0.21803924317E+02  0.41197398002E+02  0.51100000000E-03 0.  1.
         12    1    3    3    0    0 -0.28121946210E+02 -0.22084920249E+02 -0.16938290284E+02  0.39566314445E+02  0.00000000000E+00 0. -1.
</event>
<event>
 7    1  0.1971192E-015  0.9000780E+02  0.7816164E-02  0.1186339E+00
        -11   -1    0    0    0    0  0.00000000000E+00  0.00000000000E+00  0.45593999997E+02  0.45594000000E+02  0.51100000000E-03 0.  1.
         11   -1    0    0    0    0 -0.00000000000E+00 -0.00000000000E+00 -0.45593999997E+02  0.45594000000E+02  0.51100000000E-03 0. -1.
    9900012    2    1    2    0    0 -0.55217555509E+00  0.32591258101E+00  0.99083480781E+00  0.90007800665E+02  0.90000062834E+02 0.  0.
         12    1    1    2    0    0  0.55217555509E+00 -0.32591258101E+00 -0.99083480781E+00  0.11801993351E+01  0.00000000000E+00 0. -1.
         11    1    3    3    0    0  0.38041171354E+02  0.45828334477E+01  0.17118880676E+01  0.38354447479E+02  0.51100000000E-03 0. -1.
        -11    1    3    3    0    0  0.22785939966E+01  0.83095545936E+01 -0.21090333665E+01  0.88706657105E+01  0.51100000000E-03 0.  1.
        -12    1    3    3    0    0 -0.40871940905E+02 -0.12566475460E+02  0.13879801067E+01  0.42782687476E+02  0.00000000000E+00 0.  1.
</event>
<event>
 7    1  0.1971192E-015  0.9000779E+02  0.7816164E-02  0.1186339E+00
        -11   -1    0    0    0    0  0.00000000000E+00  0.00000000000E+00  0.45593999997E+02  0.45594000000E+02  0.51100000000E-03 0.  1.
         11   -1    0    0    0    0 -0.00000000000E+00 -0.00000000000E+00 -0.45593999997E+02  0.45594000000E+02  0.51100000000E-03 0. -1.
    9900012    2    1    2    0    0  0.44380089942E-01 -0.84965257918E+00  0.81794102552E+00  0.90007785350E+02  0.90000047317E+02 0.  0.
         12    1    1    2    0    0 -0.44380089942E-01  0.84965257918E+00 -0.81794102552E+00  0.11802146495E+01  0.00000000000E+00 0. -1.
         11    1    3    3    0    0 -0.78232751184E+01 -0.22692880760E+02  0.33344393105E+02  0.41085508668E+02  0.51100000000E-03 0. -1.
        -11    1    3    3    0    0  0.87711847336E+01  0.18857323777E+01  0.18517881209E+01  0.91607198264E+01  0.51100000000E-03 0.  1.
        -12    1    3    3    0    0 -0.90352952523E+00  0.19957495803E+02 -0.34378240200E+02  0.39761556856E+02  0.00000000000E+00 0.  1.
</event>
<event>
 7    1  0.1971192E-015  0.9000787E+02  0.7816164E-02  0.1186339E+00
        -11   -1    0    0    0    0  0.00000000000E+00  0.00000000000E+00  0.45593999997E+02  0.45594000000E+02  0.51100000000E-03 0. -1.
         11   -1    0    0    0    0 -0.00000000000E+00 -0.00000000000E+00 -0.45593999997E+02  0.45594000000E+02  0.51100000000E-03 0.  1.
    9900012    2    1    2    0    0  0.38526640120E+00  0.87001594165E+00 -0.69810769485E+00  0.90007867680E+02  0.90000130733E+02 0.  0.
         12    1    1    2    0    0 -0.38526640120E+00 -0.87001594165E+00  0.69810769485E+00  0.11801323198E+01  0.00000000000E+00 0. -1.
         11    1    3    3    0    0 -0.90295663065E+01 -0.73390341939E+00  0.13826397086E+02  0.16530001166E+02  0.51100000000E-03 0. -1.
        -11    1    3    3    0    0 -0.31128575522E+02 -0.84522956920E+00 -0.94645651947E+01  0.32546591552E+02  0.51100000000E-03 0.  1.
         12    1    3    3    0    0  0.40543408230E+02  0.24491489302E+01 -0.50599395864E+01  0.40931274962E+02  0.00000000000E+00 0. -1.
</event>
<event>
 7    1  0.1971192E-015  0.9000774E+02  0.7816164E-02  0.1186339E+00
        -11   -1    0    0    0    0  0.00000000000E+00  0.00000000000E+00  0.45593999997E+02  0.45594000000E+02  0.51100000000E-03 0.  1.
         11   -1    0    0    0    0 -0.00000000000E+00 -0.00000000000E+00 -0.45593999997E+02  0.45594000000E+02  0.51100000000E-03 0. -1.
    9900012    2    1    2    0    0  0.61312601242E+00 -0.99914076099E+00 -0.13717434013E+00  0.90007736230E+02  0.89999997548E+02 0.  0.
         12    1    1    2    0    0 -0.61312601242E+00  0.99914076099E+00  0.13717434013E+00  0.11802637701E+01  0.00000000000E+00 0. -1.
         11    1    3    3    0    0 -0.94999449861E+01  0.30217354769E+02 -0.16939126047E+02  0.35920349044E+02  0.51100000000E-03 0. -1.
        -11    1    3    3    0    0  0.11115189177E+01  0.36063818662E+01 -0.90418978368E+01  0.97978253312E+01  0.51100000000E-03 0.  1.
        -12    1    3    3    0    0  0.90015520808E+01 -0.34822877396E+02  0.25843849543E+02  0.44289561854E+02  0.00000000000E+00 0.  1.
</event>
<event>
 7    1  0.1971192E-015  0.9000782E+02  0.7816164E-02  0.1186339E+00
        -11   -1    0    0    0    0  0.00000000000E+00  0.00000000000E+00  0.45593999997E+02  0.45594000000E+02  0.51100000000E-03 0. -1.
         11   -1    0    0    0    0 -0.00000000000E+00 -0.00000000000E+00 -0.45593999997E+02  0.45594000000E+02  0.51100000000E-03 0.  1.
    9900012    2    1    2    0    0 -0.35741823440E+00  0.11118767440E+01 -0.16973642118E+00  0.90007818598E+02  0.90000081004E+02 0.  0.
         12    1    1    2    0    0  0.35741823440E+00 -0.11118767440E+01  0.16973642118E+00  0.11801814016E+01  0.00000000000E+00 0. -1.
         11    1    3    3    0    0 -0.59965539757E+01  0.39550360960E+01  0.67976512727E+01  0.98898449528E+01  0.51100000000E-03 0. -1.
        -11    1    3    3    0    0 -0.75923240494E+01 -0.37471213981E+02 -0.16808089674E+02  0.41764184901E+02  0.51100000000E-03 0.  1.
         12    1    3    3    0    0  0.13231459791E+02  0.34628054629E+02  0.98407019799E+01  0.38353788745E+02  0.00000000000E+00 0. -1.
</event>
<event>
 7    1  0.1971192E-015  0.9000770E+02  0.7816164E-02  0.1186339E+00
        -11   -1    0    0    0    0  0.00000000000E+00  0.00000000000E+00  0.45593999997E+02  0.45594000000E+02  0.51100000000E-03 0. -1.
         11   -1    0    0    0    0 -0.00000000000E+00 -0.00000000000E+00 -0.45593999997E+02  0.45594000000E+02  0.51100000000E-03 0.  1.
    9900012    2    1    2    0    0 -0.59843697581E+00 -0.94861689396E+00  0.36757943793E+00  0.90007696874E+02  0.89999957673E+02 0.  0.
         12    1    1    2    0    0  0.59843697581E+00  0.94861689396E+00 -0.36757943793E+00  0.11803031258E+01  0.00000000000E+00 0. -1.
         11    1    3    3    0    0  0.29109832406E+02 -0.24565577217E+02  0.22060843868E+02  0.44017391553E+02  0.51100000000E-03 0. -1.
        -11    1    3    3    0    0 -0.30869881513E+01  0.10046451572E+02 -0.38827389837E+01  0.11204300394E+02  0.51100000000E-03 0.  1.
        -12    1    3    3    0    0 -0.26621281231E+02  0.13570508751E+02 -0.17810525446E+02  0.34786004927E+02  0.00000000000E+00 0.  1.
</event>
<event>
 7    1  0.1971192E-015  0.9000769E+02  0.7816164E-02  0.1186339E+00
        -11   -1    0    0    0    0  0.00000000000E+00  0.00000000000E+00  0.45593999997E+02  0.45594000000E+02  0.51100000000E-03 0.  1.
         11   -1    0    0    0    0 -0.00000000000E+00 -0.00000000000E+00 -0.45593999997E+02  0.45594000000E+02  0.51100000000E-03 0. -1.
    9900012    2    1    2    0    0  0.63429650794E+00  0.18169933558E+00  0.97866941284E+00  0.90007686259E+02  0.89999946917E+02 0.  0.
         12    1    1    2    0    0 -0.63429650794E+00 -0.18169933558E+00 -0.97866941284E+00  0.11803137414E+01  0.00000000000E+00 0. -1.
         11    1    3    3    0    0  0.11819437374E+02 -0.27693260518E+02 -0.27376242797E+02  0.40694894617E+02  0.51100000000E-03 0. -1.
        -11    1    3    3    0    0 -0.92937734154E+01  0.41431432091E+01 -0.23660801388E+01  0.10446922773E+02  0.51100000000E-03 0.  1.
        -12    1    3    3    0    0 -0.18913674507E+01  0.23731816644E+02  0.30720992348E+02  0.38865868869E+02  0.00000000000E+00 0.  1.
</event>
<event>
 7    1  0.1971192E-015  0.9000770E+02  0.7816164E-02  0.1186339E+00
        -11   -1    0    0    0    0  0.00000000000E+00  0.00000000000E+00  0.45593999997E+02  0.45594000000E+02  0.51100000000E-03 0. -1.
         11   -1    0    0    0    0 -0.00000000000E+00 -0.00000000000E+00 -0.45593999997E+02  0.45594000000E+02  0.51100000000E-03 0.  1.
    9900012    2    1    2    0    0  0.75995149669E+00  0.20753749325E+00 -0.87891993326E+00  0.90007704131E+02  0.89999965026E+02 0.  0.
         12    1    1    2    0    0 -0.75995149669E+00 -0.20753749325E+00  0.87891993326E+00  0.11802958686E+01  0.00000000000E+00 0. -1.
         11    1    3    3    0    0 -0.25853482359E+01 -0.89610940317E+01  0.40957960966E+02  0.42006425681E+02  0.51100000000E-03 0. -1.
        -11    1    3    3    0    0  0.75004367236E+01  0.93089359226E+01 -0.91587355116E+01  0.15059723619E+02  0.51100000000E-03 0.  1.
        -12    1    3    3    0    0 -0.41551369910E+01 -0.14030439766E+00 -0.32678145387E+02  0.32941554831E+02  0.00000000000E+00 0.  1.
</event>
<event>
 7    1  0.2214644E-015  0.9000773E+02  0.7816164E-02  0.1186339E+00
        -11   -1    0    0    0    0  0.00000000000E+00  0.00000000000E+00  0.45593999997E+02  0.45594000000E+02  0.51100000000E-03 0.  1.
         11   -1    0    0    0    0 -0.00000000000E+00 -0.00000000000E+00 -0.45593999997E+02  0.45594000000E+02  0.51100000000E-03 0. -1.
    9900012    2    1    2    0    0 -0.11910912476E+00  0.77301356644E+00  0.88391025575E+00  0.90007731260E+02  0.89999992513E+02 0.  0.
         12    1    1    2    0    0  0.11910912476E+00 -0.77301356644E+00 -0.88391025575E+00  0.11802687396E+01  0.00000000000E+00 0. -1.
         11    1    3    3    0    0  0.17015485164E+02 -0.25391958555E+02 -0.18426278191E+02  0.35690419203E+02  0.51100000000E-03 0. -1.
        -11    1    3    3    0    0  0.76805296699E+01 -0.29936285951E+01 -0.43374428182E+01  0.93148139347E+01  0.51100000000E-03 0.  1.
        -12    1    3    3    0    0 -0.24815123958E+02  0.29158600717E+02  0.23647631265E+02  0.45002498123E+02  0.00000000000E+00 0.  1.
</event>
<event>
 7    1  0.1971192E-015  0.9000812E+02  0.7816164E-02  0.1186338E+00
        -11   -1    0    0    0    0  0.00000000000E+00  0.00000000000E+00  0.45593999997E+02  0.45594000000E+02  0.51100000000E-03 0.  1.
         11   -1    0    0    0    0 -0.00000000000E+00 -0.00000000000E+00 -0.45593999997E+02  0.45594000000E+02  0.51100000000E-03 0. -1.
    9900012    2    1    2    0    0 -0.95235431171E+00 -0.64823763620E+00 -0.25481864512E+00  0.90008117247E+02  0.90000383594E+02 0.  0.
         12    1    1    2    0    0  0.95235431171E+00  0.64823763620E+00  0.25481864512E+00  0.11798827526E+01  0.00000000000E+00 0. -1.
         11    1    3    3    0    0  0.23363333474E+02  0.18630488329E+02 -0.25896894251E+02  0.39542250550E+02  0.51100000000E-03 0. -1.
        -11    1    3    3    0    0  0.67164270427E+01 -0.25513786092E+01  0.57230084872E+00  0.72074581893E+01  0.51100000000E-03 0.  1.
        -12    1    3    3    0    0 -0.31032114828E+02 -0.16727347356E+02  0.25069774758E+02  0.43258408509E+02  0.00000000000E+00 0.  1.
</event>
<event>
 7    1  0.1971192E-015  0.9000793E+02  0.7816164E-02  0.1186339E+00
        -11   -1    0    0    0    0  0.00000000000E+00  0.00000000000E+00  0.45593999997E+02  0.45594000000E+02  0.51100000000E-03 0.  1.
         11   -1    0    0    0    0 -0.00000000000E+00 -0.00000000000E+00 -0.45593999997E+02  0.45594000000E+02  0.51100000000E-03 0. -1.
    9900012    2    1    2    0    0 -0.44092947258E+00 -0.82257683629E+00  0.72215857865E+00  0.90007930314E+02  0.90000194194E+02 0.  0.
         12    1    1    2    0    0  0.44092947258E+00  0.82257683629E+00 -0.72215857865E+00  0.11800696861E+01  0.00000000000E+00 0. -1.
         11    1    3    3    0    0  0.78607964287E+01  0.33077383616E+02  0.11954132949E+02  0.36038961170E+02  0.51100000000E-03 0. -1.
        -11    1    3    3    0    0  0.46504674696E+01  0.30652222035E+01  0.84599669402E+01  0.10128843751E+02  0.51100000000E-03 0.  1.
        -12    1    3    3    0    0 -0.12952193371E+02 -0.36965182656E+02 -0.19691941311E+02  0.43840125393E+02  0.00000000000E+00 0.  1.
</event>
<event>
 7    1  0.1971192E-015  0.9000778E+02  0.7816164E-02  0.1186339E+00
        -11   -1    0    0    0    0  0.00000000000E+00  0.00000000000E+00  0.45593999997E+02  0.45594000000E+02  0.51100000000E-03 0. -1.
         11   -1    0    0    0    0 -0.00000000000E+00 -0.00000000000E+00 -0.45593999997E+02  0.45594000000E+02  0.51100000000E-03 0.  1.
    9900012    2    1    2    0    0 -0.12072888753E+00  0.11739528263E+01  0.13168471704E-01  0.90007782176E+02  0.90000044101E+02 0.  0.
         12    1    1    2    0    0  0.12072888753E+00 -0.11739528263E+01 -0.13168471704E-01  0.11802178236E+01  0.00000000000E+00 0. -1.
         11    1    3    3    0    0  0.75616331556E+01 -0.28208790364E+01 -0.61906391111E+01  0.10171512542E+02  0.51100000000E-03 0. -1.
        -11    1    3    3    0    0 -0.21273413269E+02  0.14733700842E+02 -0.30050230302E+02  0.39656732015E+02  0.51100000000E-03 0.  1.
         12    1    3    3    0    0  0.13591051226E+02 -0.10738868979E+02  0.36254037885E+02  0.40179537620E+02  0.00000000000E+00 0. -1.
</event>
<event>
 7    1  0.1971192E-015  0.9000771E+02  0.7816164E-02  0.1186339E+00
        -11   -1    0    0    0    0  0.00000000000E+00  0.00000000000E+00  0.45593999997E+02  0.45594000000E+02  0.51100000000E-03 0. -1.
         11   -1    0    0    0    0 -0.00000000000E+00 -0.00000000000E+00 -0.45593999997E+02  0.45594000000E+02  0.51100000000E-03 0.  1.
    9900012    2    1    2    0    0  0.35182234908E+00 -0.81810536169E+00 -0.77460232798E+00  0.90007710157E+02  0.89999971131E+02 0.  0.
         12    1    1    2    0    0 -0.35182234908E+00  0.81810536169E+00  0.77460232798E+00  0.11802898435E+01  0.00000000000E+00 0. -1.
         11    1    3    3    0    0  0.15145455197E+02  0.28115977693E+02  0.33200092708E+01  0.32107872502E+02  0.51100000000E-03 0. -1.
        -11    1    3    3    0    0  0.54091131640E+01  0.36264544829E+01 -0.16406394507E+02  0.17651613476E+02  0.51100000000E-03 0.  1.
        -12    1    3    3    0    0 -0.20202746012E+02 -0.32560537538E+02  0.12311782908E+02  0.40248224179E+02  0.00000000000E+00 0.  1.
</event>
<event>
 7    1  0.1971192E-015  0.9000775E+02  0.7816164E-02  0.1186339E+00
        -11   -1    0    0    0    0  0.00000000000E+00  0.00000000000E+00  0.45593999997E+02  0.45594000000E+02  0.51100000000E-03 0.  1.
         11   -1    0    0    0    0 -0.00000000000E+00 -0.00000000000E+00 -0.45593999997E+02  0.45594000000E+02  0.51100000000E-03 0. -1.
    9900012    2    1    2    0    0  0.70849750765E+00  0.94013827825E+00  0.84587641533E-01  0.90007752666E+02  0.90000014201E+02 0.  0.
         12    1    1    2    0    0 -0.70849750765E+00 -0.94013827825E+00 -0.84587641533E-01  0.11802473341E+01  0.00000000000E+00 0. -1.
         11    1    3    3    0    0 -0.34693733966E+02  0.11265659592E+02 -0.24483344122E+02  0.43931815375E+02  0.51100000000E-03 0. -1.
        -11    1    3    3    0    0  0.11710210005E+02 -0.82739482653E+01  0.47031269050E+01  0.15089951663E+02  0.51100000000E-03 0.  1.
        -12    1    3    3    0    0  0.23692021468E+02 -0.20515730489E+01  0.19864804858E+02  0.30985985627E+02  0.00000000000E+00 0.  1.
</event>
<event>
 7    1  0.1971192E-015  0.9000781E+02  0.7816164E-02  0.1186339E+00
        -11   -1    0    0    0    0  0.00000000000E+00  0.00000000000E+00  0.45593999997E+02  0.45594000000E+02  0.51100000000E-03 0.  1.
         11   -1    0    0    0    0 -0.00000000000E+00 -0.00000000000E+00 -0.45593999997E+02  0.45594000000E+02  0.51100000000E-03 0. -1.
    9900012    2    1    2    0    0 -0.10373443750E+01 -0.53094827821E+00 -0.18669059871E+00  0.90007812385E+02  0.90000074709E+02 0.  0.
         12    1    1    2    0    0  0.10373443750E+01  0.53094827821E+00  0.18669059871E+00  0.11801876148E+01  0.00000000000E+00 0. -1.
         11    1    3    3    0    0  0.21330316051E+02  0.22753722613E+02 -0.21166209508E+02  0.37692475387E+02  0.51100000000E-03 0. -1.
        -11    1    3    3    0    0  0.50718538090E+01  0.55780632401E+01  0.64548131272E+01  0.99248729634E+01  0.51100000000E-03 0.  1.
        -12    1    3    3    0    0 -0.27439514235E+02 -0.28862734131E+02  0.14524705782E+02  0.42390464035E+02  0.00000000000E+00 0.  1.
</event>
<event>
 7    1  0.1971192E-015  0.9000778E+02  0.7816164E-02  0.1186339E+00
        -11   -1    0    0    0    0  0.00000000000E+00  0.00000000000E+00  0.45593999997E+02  0.45594000000E+02  0.51100000000E-03 0.  1.
         11   -1    0    0    0    0 -0.00000000000E+00 -0.00000000000E+00 -0.45593999997E+02  0.45594000000E+02  0.51100000000E-03 0. -1.
    9900012    2    1    2    0    0 -0.90901941569E+00 -0.51437072267E-01  0.75096322139E+00  0.90007784837E+02  0.90000046797E+02 0.  0.
         12    1    1    2    0    0  0.90901941569E+00  0.51437072267E-01 -0.75096322139E+00  0.11802151627E+01  0.00000000000E+00 0. -1.
         11    1    3    3    0    0  0.35654630951E+02 -0.49656450241E+01 -0.10683347464E+02  0.37550555948E+02  0.51100000000E-03 0. -1.
        -11    1    3    3    0    0  0.37792042736E+01  0.37435752784E+01 -0.64090164792E+01  0.83289995377E+01  0.51100000000E-03 0.  1.
        -12    1    3    3    0    0 -0.40342854640E+02  0.11706326735E+01  0.17843327165E+02  0.44128229351E+02  0.00000000000E+00 0.  1.
</event>
<event>
 7    1  0.1971192E-015  0.9000780E+02  0.7816164E-02  0.1186339E+00
        -11   -1    0    0    0    0  0.00000000000E+00  0.00000000000E+00  0.45593999997E+02  0.45594000000E+02  0.51100000000E-03 0. -1.
         11   -1    0    0    0    0 -0.00000000000E+00 -0.00000000000E+00 -0.45593999997E+02  0.45594000000E+02  0.51100000000E-03 0.  1.
    9900012    2    1    2    0    0 -0.64636764416E+00  0.81438738939E+00  0.55844693313E+00  0.90007796234E+02  0.90000058345E+02 0.  0.
         12    1    1    2    0    0  0.64636764416E+00 -0.81438738939E+00 -0.55844693313E+00  0.11802037657E+01  0.00000000000E+00 0. -1.
         11    1    3    3    0    0 -0.19904254479E+02  0.14236769989E+02  0.24954073558E+02  0.34950976431E+02  0.51100000000E-03 0. -1.
        -11    1    3    3    0    0 -0.84178149620E+00  0.10136901386E+02  0.58791755229E+01  0.11748619957E+02  0.51100000000E-03 0.  1.
        -12    1    3    3    0    0  0.20099668331E+02 -0.23559283985E+02 -0.30274802148E+02  0.43308199847E+02  0.00000000000E+00 0.  1.
</event>
<event>
 7    1  0.1971192E-015  0.9000777E+02  0.7816164E-02  0.1186339E+00
        -11   -1    0    0    0    0  0.00000000000E+00  0.00000000000E+00  0.45593999997E+02  0.45594000000E+02  0.51100000000E-03 0.  1.
         11   -1    0    0    0    0 -0.00000000000E+00 -0.00000000000E+00 -0.45593999997E+02  0.45594000000E+02  0.51100000000E-03 0. -1.
    9900012    2    1    2    0    0  0.11075965368E+00 -0.67991411591E+00  0.95833359887E+00  0.90007765196E+02  0.90000026897E+02 0.  0.
         12    1    1    2    0    0 -0.11075965368E+00  0.67991411591E+00 -0.95833359887E+00  0.11802348040E+01  0.00000000000E+00 0. -1.
         11    1    3    3    0    0  0.10075273585E+02 -0.36796370299E+01  0.44243546883E+01  0.11602835048E+02  0.51100000000E-03 0. -1.
        -11    1    3    3    0    0  0.28555912127E+02 -0.24602909978E+01  0.18123162950E+02  0.33910797466E+02  0.51100000000E-03 0.  1.
         12    1    3    3    0    0 -0.38520426058E+02  0.54600139118E+01 -0.21589184040E+02  0.44494132682E+02  0.00000000000E+00 0. -1.
</event>
<event>
 7    1  0.1971192E-015  0.9000770E+02  0.7816164E-02  0.1186339E+00
        -11   -1    0    0    0    0  0.00000000000E+00  0.00000000000E+00  0.45593999997E+02  0.45594000000E+02  0.51100000000E-03 0. -1.
         11   -1    0    0    0    0 -0.00000000000E+00 -0.00000000000E+00 -0.45593999997E+02  0.45594000000E+02  0.51100000000E-03 0.  1.
    9900012    2    1    2    0    0  0.11168491327E+01  0.18310494895E+00 -0.33501503105E+00  0.90007697294E+02  0.89999958098E+02 0.  0.
         12    1    1    2    0    0 -0.11168491327E+01 -0.18310494895E+00  0.33501503105E+00  0.11803027063E+01  0.00000000000E+00 0. -1.
         11    1    3    3    0    0 -0.13096326349E+02  0.29949773270E+02  0.29130568140E+01  0.32817504217E+02  0.51100000000E-03 0. -1.
        -11    1    3    3    0    0 -0.30259674645E+00  0.10438547951E+02 -0.93431325183E+01  0.14012457802E+02  0.51100000000E-03 0.  1.
        -12    1    3    3    0    0  0.14515772228E+02 -0.40205216272E+02  0.60950606733E+01  0.43177735275E+02  0.00000000000E+00 0.  1.
</event>
<event>
 7    1  0.1971192E-015  0.9000774E+02  0.7816164E-02  0.1186339E+00
        -11   -1    0    0    0    0  0.00000000000E+00  0.00000000000E+00  0.45593999997E+02  0.45594000000E+02  0.51100000000E-03 0. -1.
         11   -1    0    0    0    0 -0.00000000000E+00 -0.00000000000E+00 -0.45593999997E+02  0.45594000000E+02  0.51100000000E-03 0.  1.
    9900012    2    1    2    0    0 -0.58047173095E+00  0.14196827155E-02 -0.10276468367E+01  0.90007742627E+02  0.90000004030E+02 0.  0.
         12    1    1    2    0    0  0.58047173095E+00 -0.14196827155E-02  0.10276468367E+01  0.11802573731E+01  0.00000000000E+00 0. -1.
         11    1    3    3    0    0 -0.30010117136E+01 -0.17944936496E+00  0.22489717680E+02  0.22689770271E+02  0.51100000000E-03 0. -1.
        -11    1    3    3    0    0  0.13969900972E+02  0.22744673310E+02  0.70504316399E+01  0.27607732317E+02  0.51100000000E-03 0.  1.
        -12    1    3    3    0    0 -0.11549360989E+02 -0.22563804262E+02 -0.30567796156E+02  0.39710240038E+02  0.00000000000E+00 0.  1.
</event>
<event>
 7    1  0.1971192E-015  0.9000776E+02  0.7816164E-02  0.1186339E+00
        -11   -1    0    0    0    0  0.00000000000E+00  0.00000000000E+00  0.45593999997E+02  0.45594000000E+02  0.51100000000E-03 0.  1.
         11   -1    0    0    0    0 -0.00000000000E+00 -0.00000000000E+00 -0.45593999997E+02  0.45594000000E+02  0.51100000000E-03 0. -1.
    9900012    2    1    2    0    0 -0.17764852060E+00  0.88723041269E+00  0.75777750940E+00  0.90007761229E+02  0.90000022878E+02 0.  0.
         12    1    1    2    0    0  0.17764852060E+00 -0.88723041269E+00 -0.75777750940E+00  0.11802387707E+01  0.00000000000E+00 0. -1.
         11    1    3    3    0    0  0.72727869003E+01 -0.33877646003E+01  0.68814478211E+01  0.10569990665E+02  0.51100000000E-03 0. -1.
        -11    1    3    3    0    0 -0.26825539374E+02 -0.28679673995E+02 -0.11292970068E+02  0.40861527583E+02  0.51100000000E-03 0.  1.
         12    1    3    3    0    0  0.19375103953E+02  0.32954669008E+02  0.51692997565E+01  0.38576242982E+02  0.00000000000E+00 0. -1.
</event>
<event>
 7    1  0.1971192E-015  0.9000743E+02  0.7816164E-02  0.1186340E+00
        -11   -1    0    0    0    0  0.00000000000E+00  0.00000000000E+00  0.45593999997E+02  0.45594000000E+02  0.51100000000E-03 0.  1.
         11   -1    0    0    0    0 -0.00000000000E+00 -0.00000000000E+00 -0.45593999997E+02  0.45594000000E+02  0.51100000000E-03 0. -1.
    9900012    2    1    2    0    0 -0.34963899678E+00  0.95205083527E+00  0.60423807321E+00  0.90007427313E+02  0.89999684553E+02 0.  0.
         12    1    1    2    0    0  0.34963899678E+00 -0.95205083527E+00 -0.60423807321E+00  0.11805726874E+01  0.00000000000E+00 0. -1.
         11    1    3    3    0    0  0.18771542242E+02 -0.34723799109E+02 -0.35773561354E+01  0.39634713319E+02  0.51100000000E-03 0. -1.
        -11    1    3    3    0    0 -0.38008430208E+01 -0.18828598157E+01 -0.70994789987E+01  0.82700768478E+01  0.51100000000E-03 0.  1.
        -12    1    3    3    0    0 -0.15320338218E+02  0.37558709760E+02  0.11281073207E+02  0.42102637146E+02  0.00000000000E+00 0.  1.
</event>
<event>
 7    1  0.1971192E-015  0.9000775E+02  0.7816164E-02  0.1186339E+00
        -11   -1    0    0    0    0  0.00000000000E+00  0.00000000000E+00  0.45593999997E+02  0.45594000000E+02  0.51100000000E-03 0. -1.
         11   -1    0    0    0    0 -0.00000000000E+00 -0.00000000000E+00 -0.45593999997E+02  0.45594000000E+02  0.51100000000E-03 0.  1.
    9900012    2    1    2    0    0 -0.47590510615E+00  0.70860572274E+00 -0.81510061530E+00  0.90007747165E+02  0.90000008628E+02 0.  0.
         12    1    1    2    0    0  0.47590510615E+00 -0.70860572274E+00  0.81510061530E+00  0.11802528345E+01  0.00000000000E+00 0. -1.
         11    1    3    3    0    0  0.34453620542E+01  0.46417458220E+01 -0.76806370909E+01  0.96129345334E+01  0.51100000000E-03 0. -1.
        -11    1    3    3    0    0  0.25519237872E+02 -0.10176182119E+02 -0.24583153686E+02  0.36866212573E+02  0.51100000000E-03 0.  1.
         12    1    3    3    0    0 -0.29440505032E+02  0.62430420200E+01  0.31448690161E+02  0.43528600059E+02  0.00000000000E+00 0. -1.
</event>
<event>
 7    1  0.1971192E-015  0.9000776E+02  0.7816164E-02  0.1186339E+00
        -11   -1    0    0    0    0  0.00000000000E+00  0.00000000000E+00  0.45593999997E+02  0.45594000000E+02  0.51100000000E-03 0. -1.
         11   -1    0    0    0    0 -0.00000000000E+00 -0.00000000000E+00 -0.45593999997E+02  0.45594000000E+02  0.51100000000E-03 0.  1.
    9900012    2    1    2    0    0  0.25258312967E+00 -0.10680826010E+01 -0.43401643924E+00  0.90007758944E+02  0.90000020562E+02 0.  0.
         12    1    1    2    0    0 -0.25258312967E+00  0.10680826010E+01  0.43401643924E+00  0.11802410557E+01  0.00000000000E+00 0. -1.
         11    1    3    3    0    0 -0.26272970946E+01 -0.71990103787E+01 -0.35459937481E+01  0.84440815000E+01  0.51100000000E-03 0. -1.
        -11    1    3    3    0    0  0.32871346664E+02 -0.16456679109E+02 -0.15213457032E+02  0.39784381281E+02  0.51100000000E-03 0.  1.
         12    1    3    3    0    0 -0.29991466440E+02  0.22587606886E+02  0.18325434341E+02  0.41779296163E+02  0.00000000000E+00 0. -1.
</event>
<event>
 7    1  0.1971192E-015  0.9000784E+02  0.7816164E-02  0.1186339E+00
        -11   -1    0    0    0    0  0.00000000000E+00  0.00000000000E+00  0.45593999997E+02  0.45594000000E+02  0.51100000000E-03 0. -1.
         11   -1    0    0    0    0 -0.00000000000E+00 -0.00000000000E+00 -0.45593999997E+02  0.45594000000E+02  0.51100000000E-03 0.  1.
    9900012    2    1    2    0    0  0.89606651240E+00 -0.15002277939E+00 -0.75321401743E+00  0.90007841797E+02  0.90000104508E+02 0.  0.
         12    1    1    2    0    0 -0.89606651240E+00  0.15002277939E+00  0.75321401743E+00  0.11801582034E+01  0.00000000000E+00 0. -1.
         11    1    3    3    0    0 -0.52861266532E+01  0.37436003161E+01 -0.76688984152E+01  0.10038410307E+02  0.51100000000E-03 0. -1.
        -11    1    3    3    0    0  0.62457847385E+01 -0.25807456649E+02 -0.28100756640E+02  0.38661184277E+02  0.51100000000E-03 0.  1.
         12    1    3    3    0    0 -0.63591572850E-01  0.21913833554E+02  0.35016441037E+02  0.41308247213E+02  0.00000000000E+00 0. -1.
</event>
<event>
 7    1  0.1971192E-015  0.9000775E+02  0.7816164E-02  0.1186339E+00
        -11   -1    0    0    0    0  0.00000000000E+00  0.00000000000E+00  0.45593999997E+02  0.45594000000E+02  0.51100000000E-03 0.  1.
         11   -1    0    0    0    0 -0.00000000000E+00 -0.00000000000E+00 -0.45593999997E+02  0.45594000000E+02  0.51100000000E-03 0. -1.
    9900012    2    1    2    0    0 -0.57466905774E+00 -0.10271579159E+01  0.87656380713E-01  0.90007753606E+02  0.90000015153E+02 0.  0.
         12    1    1    2    0    0  0.57466905774E+00  0.10271579159E+01 -0.87656380713E-01  0.11802463943E+01  0.00000000000E+00 0. -1.
         11    1    3    3    0    0 -0.71562938917E+01 -0.48247860423E+01  0.38671275366E+01  0.94575778223E+01  0.51100000000E-03 0. -1.
        -11    1    3    3    0    0  0.26016862804E+02  0.22058050656E+02  0.24258043497E+02  0.41855554273E+02  0.51100000000E-03 0.  1.
         12    1    3    3    0    0 -0.19435237970E+02 -0.18260422530E+02 -0.28037514653E+02  0.38694621511E+02  0.00000000000E+00 0. -1.
</event>
<event>
 7    1  0.1971192E-015  0.9000742E+02  0.7816164E-02  0.1186340E+00
        -11   -1    0    0    0    0  0.00000000000E+00  0.00000000000E+00  0.45593999997E+02  0.45594000000E+02  0.51100000000E-03 0.  1.
         11   -1    0    0    0    0 -0.00000000000E+00 -0.00000000000E+00 -0.45593999997E+02  0.45594000000E+02  0.51100000000E-03 0. -1.
    9900012    2    1    2    0    0  0.10624572772E+01  0.55987224036E-01  0.51168921022E+00  0.90007417143E+02  0.89999674248E+02 0.  0.
         12    1    1    2    0    0 -0.10624572772E+01 -0.55987224036E-01 -0.51168921022E+00  0.11805828573E+01  0.00000000000E+00 0. -1.
         11    1    3    3    0    0 -0.24241991966E+01 -0.30622159850E+01  0.10163417715E+01  0.40356981231E+01  0.51100000000E-03 0. -1.
        -11    1    3    3    0    0 -0.19660885446E+02 -0.33857994554E+02  0.11352466013E+02  0.40765091642E+02  0.51100000000E-03 0.  1.
         12    1    3    3    0    0  0.23147541920E+02  0.36976197763E+02 -0.11857118574E+02  0.45206627377E+02  0.00000000000E+00 0. -1.
</event>
<event>
 7    1  0.1971192E-015  0.9000773E+02  0.7816164E-02  0.1186339E+00
        -11   -1    0    0    0    0  0.00000000000E+00  0.00000000000E+00  0.45593999997E+02  0.45594000000E+02  0.51100000000E-03 0.  1.
         11   -1    0    0    0    0 -0.00000000000E+00 -0.00000000000E+00 -0.45593999997E+02  0.45594000000E+02  0.51100000000E-03 0. -1.
    9900012    2    1    2    0    0 -0.29972655515E+00 -0.11321580118E+01 -0.14636089099E+00  0.90007729149E+02  0.89999990374E+02 0.  0.
         12    1    1    2    0    0  0.29972655515E+00  0.11321580118E+01  0.14636089099E+00  0.11802708511E+01  0.00000000000E+00 0. -1.
         11    1    3    3    0    0 -0.23455387737E+02  0.38501465313E+01 -0.27654133653E+02  0.36465462434E+02  0.51100000000E-03 0. -1.
        -11    1    3    3    0    0  0.13948617571E+00 -0.49569760806E+01 -0.90633315498E+01  0.10331265523E+02  0.51100000000E-03 0.  1.
        -12    1    3    3    0    0  0.23016175006E+02 -0.25328462555E-01  0.36571104311E+02  0.43211001192E+02  0.00000000000E+00 0.  1.
</event>
<event>
 7    1  0.1971192E-015  0.9000776E+02  0.7816164E-02  0.1186339E+00
        -11   -1    0    0    0    0  0.00000000000E+00  0.00000000000E+00  0.45593999997E+02  0.45594000000E+02  0.51100000000E-03 0.  1.
         11   -1    0    0    0    0 -0.00000000000E+00 -0.00000000000E+00 -0.45593999997E+02  0.45594000000E+02  0.51100000000E-03 0. -1.
    9900012    2    1    2    0    0  0.97377062713E+00  0.32344068226E+00  0.58320546006E+00  0.90007757772E+02  0.90000019374E+02 0.  0.
         12    1    1    2    0    0 -0.97377062713E+00 -0.32344068226E+00 -0.58320546006E+00  0.11802422285E+01  0.00000000000E+00 0. -1.
         11    1    3    3    0    0  0.21150477132E+02 -0.24303677394E+02  0.60633324962E+01  0.32783767614E+02  0.51100000000E-03 0. -1.
        -11    1    3    3    0    0  0.72724500214E+01 -0.10070576145E+02 -0.36362105677E+01  0.12943224511E+02  0.51100000000E-03 0.  1.
        -12    1    3    3    0    0 -0.27449156526E+02  0.34697694221E+02 -0.18439164685E+01  0.44280765646E+02  0.00000000000E+00 0.  1.
</event>
<event>
 7    1  0.1971192E-015  0.9000774E+02  0.7816164E-02  0.1186339E+00
        -11   -1    0    0    0    0  0.00000000000E+00  0.00000000000E+00  0.45593999997E+02  0.45594000000E+02  0.51100000000E-03 0. -1.
         11   -1    0    0    0    0 -0.00000000000E+00 -0.00000000000E+00 -0.45593999997E+02  0.45594000000E+02  0.51100000000E-03 0.  1.
    9900012    2    1    2    0    0 -0.82019756746E+00 -0.84049868467E+00 -0.11766990167E+00  0.90007742276E+02  0.90000003674E+02 0.  0.
         12    1    1    2    0    0  0.82019756746E+00  0.84049868467E+00  0.11766990167E+00  0.11802577237E+01  0.00000000000E+00 0. -1.
         11    1    3    3    0    0 -0.35950659326E+01 -0.33448273872E+01  0.65292172590E+01  0.81696418273E+01  0.51100000000E-03 0. -1.
        -11    1    3    3    0    0 -0.62253908539E+01 -0.37079176602E+02  0.84357045412E+01  0.38532868309E+02  0.51100000000E-03 0.  1.
         12    1    3    3    0    0  0.90002592191E+01  0.39583505305E+02 -0.15082591702E+02  0.43305232140E+02  0.00000000000E+00 0. -1.
</event>
<event>
 7    1  0.1971192E-015  0.9000800E+02  0.7816164E-02  0.1186339E+00
        -11   -1    0    0    0    0  0.00000000000E+00  0.00000000000E+00  0.45593999997E+02  0.45594000000E+02  0.51100000000E-03 0. -1.
         11   -1    0    0    0    0 -0.00000000000E+00 -0.00000000000E+00 -0.45593999997E+02  0.45594000000E+02  0.51100000000E-03 0.  1.
    9900012    2    1    2    0    0  0.57980442186E+00  0.37643067605E+00 -0.95630900555E+00  0.90007999943E+02  0.90000264741E+02 0.  0.
         12    1    1    2    0    0 -0.57980442186E+00 -0.37643067605E+00  0.95630900555E+00  0.11800000575E+01  0.00000000000E+00 0. -1.
         11    1    3    3    0    0 -0.25884954012E+01 -0.92355251642E+01  0.85056852759E+00  0.96290550202E+01  0.51100000000E-03 0. -1.
        -11    1    3    3    0    0 -0.36078652739E+02 -0.43288860260E+01  0.88255727740E+01  0.37393838700E+02  0.51100000000E-03 0.  1.
         12    1    3    3    0    0  0.39246952562E+02  0.13940841866E+02 -0.10632450307E+02  0.42985106222E+02  0.00000000000E+00 0. -1.
</event>
<event>
 7    1  0.1971192E-015  0.9000807E+02  0.7816164E-02  0.1186338E+00
        -11   -1    0    0    0    0  0.00000000000E+00  0.00000000000E+00  0.45593999997E+02  0.45594000000E+02  0.51100000000E-03 0.  1.
         11   -1    0    0    0    0 -0.00000000000E+00 -0.00000000000E+00 -0.45593999997E+02  0.45594000000E+02  0.51100000000E-03 0. -1.
    9900012    2    1    2    0    0  0.92347141092E+00 -0.46970128783E+00  0.56463097417E+00  0.90008073357E+02  0.90000339124E+02 0.  0.
         12    1    1    2    0    0 -0.92347141092E+00  0.46970128783E+00 -0.56463097417E+00  0.11799266433E+01  0.00000000000E+00 0. -1.
         11    1    3    3    0    0  0.19093114140E+02  0.25159440239E+02 -0.27379552310E+02  0.41799334034E+02  0.51100000000E-03 0. -1.
        -11    1    3    3    0    0  0.43670846903E+01 -0.12410054227E+02  0.94070779087E+01  0.16173249199E+02  0.51100000000E-03 0.  1.
        -12    1    3    3    0    0 -0.22536727419E+02 -0.13219087300E+02  0.18537105375E+02  0.32035490124E+02  0.00000000000E+00 0.  1.
</event>
<event>
 7    1  0.1971192E-015  0.9000795E+02  0.7816164E-02  0.1186339E+00
        -11   -1    0    0    0    0  0.00000000000E+00  0.00000000000E+00  0.45593999997E+02  0.45594000000E+02  0.51100000000E-03 0.  1.
         11   -1    0    0    0    0 -0.00000000000E+00 -0.00000000000E+00 -0.45593999997E+02  0.45594000000E+02  0.51100000000E-03 0. -1.
    9900012    2    1    2    0    0 -0.11284708295E+01  0.31019955563E+00  0.15117479258E+00  0.90007947461E+02  0.90000211567E+02 0.  0.
         12    1    1    2    0    0  0.11284708295E+01 -0.31019955563E+00 -0.15117479258E+00  0.11800525392E+01  0.00000000000E+00 0. -1.
         11    1    3    3    0    0 -0.22694626062E+01 -0.42455725878E+01  0.90201872942E+01  0.10224437696E+02  0.51100000000E-03 0. -1.
        -11    1    3    3    0    0 -0.10728501279E+02 -0.24702330579E+02  0.22635229767E+02  0.35180385197E+02  0.51100000000E-03 0.  1.
         12    1    3    3    0    0  0.11869493055E+02  0.29258102723E+02 -0.31504242268E+02  0.44603124568E+02  0.00000000000E+00 0. -1.
</event>
<event>
 7    1  0.1971192E-015  0.9000772E+02  0.7816164E-02  0.1186339E+00
        -11   -1    0    0    0    0  0.00000000000E+00  0.00000000000E+00  0.45593999997E+02  0.45594000000E+02  0.51100000000E-03 0.  1.
         11   -1    0    0    0    0 -0.00000000000E+00 -0.00000000000E+00 -0.45593999997E+02  0.45594000000E+02  0.51100000000E-03 0. -1.
    9900012    2    1    2    0    0 -0.38544825831E+00 -0.10204662497E+01  0.45071190245E+00  0.90007719124E+02  0.89999980217E+02 0.  0.
         12    1    1    2    0    0  0.38544825831E+00  0.10204662497E+01 -0.45071190245E+00  0.11802808757E+01  0.00000000000E+00 0. -1.
         11    1    3    3    0    0  0.66174681061E+01 -0.34444873792E+02  0.79156610883E+01  0.35956889540E+02  0.51100000000E-03 0. -1.
        -11    1    3    3    0    0  0.36676860045E+01 -0.74653219142E+01  0.53520962467E+01  0.98907980672E+01  0.51100000000E-03 0.  1.
        -12    1    3    3    0    0 -0.10670602369E+02  0.40889729457E+02 -0.12817045432E+02  0.44160031517E+02  0.00000000000E+00 0.  1.
</event>
<event>
 7    1  0.2461163E-015  0.9000774E+02  0.7816164E-02  0.1186339E+00
        -11   -1    0    0    0    0  0.00000000000E+00  0.00000000000E+00  0.45593999997E+02  0.45594000000E+02  0.51100000000E-03 0.  1.
         11   -1    0    0    0    0 -0.00000000000E+00 -0.00000000000E+00 -0.45593999997E+02  0.45594000000E+02  0.51100000000E-03 0. -1.
    9900012    2    1    2    0    0 -0.62216262796E+00 -0.43348994508E+00  0.90444571297E+00  0.90007736506E+02  0.89999997828E+02 0.  0.
         12    1    1    2    0    0  0.62216262796E+00  0.43348994508E+00 -0.90444571297E+00  0.11802634942E+01  0.00000000000E+00 0. -1.
         11    1    3    3    0    0  0.15346307819E+00  0.13165065778E+01 -0.38545190768E+02  0.38567972102E+02  0.51100000000E-03 0. -1.
        -11    1    3    3    0    0  0.82173393859E+01 -0.37100927362E+01 -0.17844127849E+01  0.91909511990E+01  0.51100000000E-03 0.  1.
        -12    1    3    3    0    0 -0.89929650921E+01  0.19600962134E+01  0.41234049266E+02  0.42248813204E+02  0.00000000000E+00 0.  1.
</event>
<event>
 7    1  0.1971192E-015  0.9000771E+02  0.7816164E-02  0.1186339E+00
        -11   -1    0    0    0    0  0.00000000000E+00  0.00000000000E+00  0.45593999997E+02  0.45594000000E+02  0.51100000000E-03 0.  1.
         11   -1    0    0    0    0 -0.00000000000E+00 -0.00000000000E+00 -0.45593999997E+02  0.45594000000E+02  0.51100000000E-03 0. -1.
    9900012    2    1    2    0    0  0.88477712620E+00  0.55620462852E+00 -0.54852512873E+00  0.90007714455E+02  0.89999975485E+02 0.  0.
         12    1    1    2    0    0 -0.88477712620E+00 -0.55620462852E+00  0.54852512873E+00  0.11802855454E+01  0.00000000000E+00 0. -1.
         11    1    3    3    0    0 -0.92036510594E+00  0.28009864211E+02 -0.24495802213E+02  0.37221551437E+02  0.51100000000E-03 0. -1.
        -11    1    3    3    0    0  0.13240689206E+02  0.11364588049E+01 -0.75379607940E+00  0.13310732439E+02  0.51100000000E-03 0.  1.
        -12    1    3    3    0    0 -0.11435546974E+02 -0.28590118387E+02  0.24701073164E+02  0.39475430579E+02  0.00000000000E+00 0.  1.
</event>
<event>
 7    1  0.1971192E-015  0.9000778E+02  0.7816164E-02  0.1186339E+00
        -11   -1    0    0    0    0  0.00000000000E+00  0.00000000000E+00  0.45593999997E+02  0.45594000000E+02  0.51100000000E-03 0. -1.
         11   -1    0    0    0    0 -0.00000000000E+00 -0.00000000000E+00 -0.45593999997E+02  0.45594000000E+02  0.51100000000E-03 0.  1.
    9900012    2    1    2    0    0 -0.67252004910E+00  0.52808620320E+00 -0.81348757922E+00  0.90007779556E+02  0.90000041446E+02 0.  0.
         12    1    1    2    0    0  0.67252004910E+00 -0.52808620320E+00  0.81348757922E+00  0.11802204438E+01  0.00000000000E+00 0. -1.
         11    1    3    3    0    0 -0.80077809021E+01  0.24559585289E+01 -0.47787788365E+01  0.96432885833E+01  0.51100000000E-03 0. -1.
        -11    1    3    3    0    0 -0.49950907307E+01  0.11579217011E+02 -0.35063966019E+02  0.37262728178E+02  0.51100000000E-03 0.  1.
         12    1    3    3    0    0  0.12330351584E+02 -0.13507089337E+02  0.39029257276E+02  0.43101762795E+02  0.00000000000E+00 0. -1.
</event>
<event>
 7    1  0.1971192E-015  0.9000776E+02  0.7816164E-02  0.1186339E+00
        -11   -1    0    0    0    0  0.00000000000E+00  0.00000000000E+00  0.45593999997E+02  0.45594000000E+02  0.51100000000E-03 0.  1.
         11   -1    0    0    0    0 -0.00000000000E+00 -0.00000000000E+00 -0.45593999997E+02  0.45594000000E+02  0.51100000000E-03 0. -1.
    9900012    2    1    2    0    0 -0.60628281011E+00  0.86932797373E+00  0.51928806016E+00  0.90007758473E+02  0.90000020085E+02 0.  0.
         12    1    1    2    0    0  0.60628281011E+00 -0.86932797373E+00 -0.51928806016E+00  0.11802415266E+01  0.00000000000E+00 0. -1.
         11    1    3    3    0    0  0.27420282775E+02 -0.42681327249E-01 -0.26889162361E+02  0.38404437008E+02  0.51100000000E-03 0. -1.
        -11    1    3    3    0    0 -0.40848358392E+01  0.58368533195E+01 -0.66070652246E+01  0.97163805838E+01  0.51100000000E-03 0.  1.
        -12    1    3    3    0    0 -0.23941729745E+02 -0.49248440185E+01  0.34015515646E+02  0.41886940882E+02  0.00000000000E+00 0.  1.
</event>
<event>
 7    1  0.1971192E-015  0.9000769E+02  0.7816164E-02  0.1186339E+00
        -11   -1    0    0    0    0  0.00000000000E+00  0.00000000000E+00  0.45593999997E+02  0.45594000000E+02  0.51100000000E-03 0.  1.
         11   -1    0    0    0    0 -0.00000000000E+00 -0.00000000000E+00 -0.45593999997E+02  0.45594000000E+02  0.51100000000E-03 0. -1.
    9900012    2    1    2    0    0  0.28315141896E+00 -0.15654547740E+00  0.11351013073E+01  0.90007688096E+02  0.89999948779E+02 0.  0.
         12    1    1    2    0    0 -0.28315141896E+00  0.15654547740E+00 -0.11351013073E+01  0.11803119038E+01  0.00000000000E+00 0. -1.
         11    1    3    3    0    0  0.31955784587E+01 -0.79726132363E+01  0.48933416831E+01  0.98852959788E+01  0.51100000000E-03 0. -1.
        -11    1    3    3    0    0  0.24388663135E+02  0.34241216254E+02 -0.20307915322E+01  0.42087906749E+02  0.51100000000E-03 0.  1.
         12    1    3    3    0    0 -0.27301090175E+02 -0.26425148495E+02 -0.17274488436E+01  0.38034485368E+02  0.00000000000E+00 0. -1.
</event>
<event>
 7    1  0.2173691E-015  0.9000773E+02  0.7816164E-02  0.1186339E+00
        -11   -1    0    0    0    0  0.00000000000E+00  0.00000000000E+00  0.45593999997E+02  0.45594000000E+02  0.51100000000E-03 0.  1.
         11   -1    0    0    0    0 -0.00000000000E+00 -0.00000000000E+00 -0.45593999997E+02  0.45594000000E+02  0.51100000000E-03 0. -1.
    9900012    2    1    2    0    0 -0.91873787395E+00 -0.92568584169E-01 -0.73511179408E+00  0.90007729873E+02  0.89999991107E+02 0.  0.
         12    1    1    2    0    0  0.91873787395E+00  0.92568584169E-01  0.73511179408E+00  0.11802701274E+01  0.00000000000E+00 0. -1.
         11    1    3    3    0    0  0.32019947314E+02  0.23538566196E+01  0.20656913870E+02  0.38177555683E+02  0.51100000000E-03 0. -1.
        -11    1    3    3    0    0 -0.12454625075E+01 -0.68921216413E+01  0.63669786634E+01  0.94652488154E+01  0.51100000000E-03 0.  1.
        -12    1    3    3    0    0 -0.31693222681E+02  0.44456964376E+01 -0.27759004328E+02  0.42364925374E+02  0.00000000000E+00 0.  1.
</event>
<event>
 7    1  0.1971192E-015  0.9000780E+02  0.7816164E-02  0.1186339E+00
        -11   -1    0    0    0    0  0.00000000000E+00  0.00000000000E+00  0.45593999997E+02  0.45594000000E+02  0.51100000000E-03 0.  1.
         11   -1    0    0    0    0 -0.00000000000E+00 -0.00000000000E+00 -0.45593999997E+02  0.45594000000E+02  0.51100000000E-03 0. -1.
    9900012    2    1    2    0    0 -0.49786574566E-01  0.54791747902E+00  0.10441144955E+01  0.90007801988E+02  0.90000064175E+02 0.  0.
         12    1    1    2    0    0  0.49786574566E-01 -0.54791747902E+00 -0.10441144955E+01  0.11801980116E+01  0.00000000000E+00 0. -1.
         11    1    3    3    0    0 -0.89441653119E+01  0.32581184920E+02 -0.95470104253E+01  0.35109501737E+02  0.51100000000E-03 0. -1.
        -11    1    3    3    0    0 -0.58125447180E+01  0.86694698259E+01  0.44787990226E+00  0.10447295336E+02  0.51100000000E-03 0.  1.
        -12    1    3    3    0    0  0.14706923455E+02 -0.40702737267E+02  0.10143245018E+02  0.44451004916E+02  0.00000000000E+00 0.  1.
</event>
<event>
 7    1  0.1971192E-015  0.9000774E+02  0.7816164E-02  0.1186339E+00
        -11   -1    0    0    0    0  0.00000000000E+00  0.00000000000E+00  0.45593999997E+02  0.45594000000E+02  0.51100000000E-03 0.  1.
         11   -1    0    0    0    0 -0.00000000000E+00 -0.00000000000E+00 -0.45593999997E+02  0.45594000000E+02  0.51100000000E-03 0. -1.
    9900012    2    1    2    0    0 -0.48527261696E-01 -0.13031448033E+00  0.11720371694E+01  0.90007742450E+02  0.90000003850E+02 0.  0.
         12    1    1    2    0    0  0.48527261696E-01  0.13031448033E+00 -0.11720371694E+01  0.11802575504E+01  0.00000000000E+00 0. -1.
         11    1    3    3    0    0  0.19379476578E+02  0.28599516538E+01 -0.69662653101E+01  0.20791158903E+02  0.51100000000E-03 0. -1.
        -11    1    3    3    0    0  0.11940710920E+02 -0.12734318529E+02  0.26388288755E+02  0.31639930931E+02  0.51100000000E-03 0.  1.
         12    1    3    3    0    0 -0.31368714759E+02  0.97440523948E+01 -0.18249986275E+02  0.37576652615E+02  0.00000000000E+00 0. -1.
</event>
<event>
 7    1  0.1971192E-015  0.9000766E+02  0.7816164E-02  0.1186339E+00
        -11   -1    0    0    0    0  0.00000000000E+00  0.00000000000E+00  0.45593999997E+02  0.45594000000E+02  0.51100000000E-03 0.  1.
         11   -1    0    0    0    0 -0.00000000000E+00 -0.00000000000E+00 -0.45593999997E+02  0.45594000000E+02  0.51100000000E-03 0. -1.
    9900012    2    1    2    0    0 -0.10992315613E+01 -0.36484557900E+00  0.22755385528E+00  0.90007659761E+02  0.89999920070E+02 0.  0.
         12    1    1    2    0    0  0.10992315613E+01  0.36484557900E+00 -0.22755385528E+00  0.11803402387E+01  0.00000000000E+00 0. -1.
         11    1    3    3    0    0  0.15238093280E+02 -0.15338238369E+01 -0.32050357267E+02  0.35521507620E+02  0.51100000000E-03 0. -1.
        -11    1    3    3    0    0  0.65770433289E+01  0.45364589995E+01 -0.58310377837E+01  0.98913073504E+01  0.51100000000E-03 0.  1.
        -12    1    3    3    0    0 -0.22914368170E+02 -0.33674807417E+01  0.38108948906E+02  0.44594844791E+02  0.00000000000E+00 0.  1.
</event>
<event>
 7    1  0.1971192E-015  0.9000822E+02  0.7816164E-02  0.1186338E+00
        -11   -1    0    0    0    0  0.00000000000E+00  0.00000000000E+00  0.45593999997E+02  0.45594000000E+02  0.51100000000E-03 0.  1.
         11   -1    0    0    0    0 -0.00000000000E+00 -0.00000000000E+00 -0.45593999997E+02  0.45594000000E+02  0.51100000000E-03 0. -1.
    9900012    2    1    2    0    0  0.64642726526E+00  0.83115334424E+00  0.53217018118E+00  0.90008216464E+02  0.90000484120E+02 0.  0.
         12    1    1    2    0    0 -0.64642726526E+00 -0.83115334424E+00 -0.53217018118E+00  0.11797835363E+01  0.00000000000E+00 0. -1.
         11    1    3    3    0    0 -0.58695712400E+01 -0.35648136021E+01  0.56834994708E+01  0.89141420818E+01  0.51100000000E-03 0. -1.
        -11    1    3    3    0    0 -0.19786005681E+02  0.14873844149E+02 -0.33085947760E+02  0.41320663112E+02  0.51100000000E-03 0.  1.
         12    1    3    3    0    0  0.26302004187E+02 -0.10477877202E+02  0.27934618471E+02  0.39773411269E+02  0.00000000000E+00 0. -1.
</event>
<event>
 7    1  0.1971192E-015  0.9000777E+02  0.7816164E-02  0.1186339E+00
        -11   -1    0    0    0    0  0.00000000000E+00  0.00000000000E+00  0.45593999997E+02  0.45594000000E+02  0.51100000000E-03 0. -1.
         11   -1    0    0    0    0 -0.00000000000E+00 -0.00000000000E+00 -0.45593999997E+02  0.45594000000E+02  0.51100000000E-03 0.  1.
    9900012    2    1    2    0    0  0.29233786312E+00  0.10908651713E+01  0.34278478469E+00  0.90007767118E+02  0.90000028844E+02 0.  0.
         12    1    1    2    0    0 -0.29233786312E+00 -0.10908651713E+01 -0.34278478469E+00  0.11802328824E+01  0.00000000000E+00 0. -1.
         11    1    3    3    0    0 -0.76259054614E+00  0.10846604226E+02 -0.49924762555E+00  0.10884834221E+02  0.51100000000E-03 0. -1.
        -11    1    3    3    0    0 -0.13389402133E+02 -0.17888216697E+02 -0.33915865574E+02  0.40614656517E+02  0.51100000000E-03 0.  1.
         12    1    3    3    0    0  0.14444330542E+02  0.81324776427E+01  0.34757897984E+02  0.38508276379E+02  0.00000000000E+00 0. -1.
</event>
<event>
 7    1  0.1971192E-015  0.9000768E+02  0.7816164E-02  0.1186339E+00
        -11   -1    0    0    0    0  0.00000000000E+00  0.00000000000E+00  0.45593999997E+02  0.45594000000E+02  0.51100000000E-03 0.  1.
         11   -1    0    0    0    0 -0.00000000000E+00 -0.00000000000E+00 -0.45593999997E+02  0.45594000000E+02  0.51100000000E-03 0. -1.
    9900012    2    1    2    0    0 -0.40609955000E-02  0.38768923730E+00  0.11148268618E+01  0.90007678701E+02  0.89999939260E+02 0.  0.
         12    1    1    2    0    0  0.40609955000E-02 -0.38768923730E+00 -0.11148268618E+01  0.11803212987E+01  0.00000000000E+00 0. -1.
         11    1    3    3    0    0 -0.79030780160E+01  0.30175060142E+01  0.72213409659E+01  0.11122578401E+02  0.51100000000E-03 0. -1.
        -11    1    3    3    0    0 -0.81407372117E+00 -0.18354437987E+02  0.31916310514E+02  0.36826607051E+02  0.51100000000E-03 0.  1.
         12    1    3    3    0    0  0.87130907417E+01  0.15724621210E+02 -0.38022824618E+02  0.42058493249E+02  0.00000000000E+00 0. -1.
</event>
<event>
 7    1  0.1971192E-015  0.9000768E+02  0.7816164E-02  0.1186339E+00
        -11   -1    0    0    0    0  0.00000000000E+00  0.00000000000E+00  0.45593999997E+02  0.45594000000E+02  0.51100000000E-03 0. -1.
         11   -1    0    0    0    0 -0.00000000000E+00 -0.00000000000E+00 -0.45593999997E+02  0.45594000000E+02  0.51100000000E-03 0.  1.
    9900012    2    1    2    0    0  0.82533161198E+00  0.20126966507E+00 -0.81943685161E+00  0.90007678645E+02  0.89999939203E+02 0.  0.
         12    1    1    2    0    0 -0.82533161198E+00 -0.20126966507E+00  0.81943685161E+00  0.11803213552E+01  0.00000000000E+00 0. -1.
         11    1    3    3    0    0 -0.33324108566E+01 -0.29803311238E+01 -0.80735674604E+01  0.92287500521E+01  0.51100000000E-03 0. -1.
        -11    1    3    3    0    0 -0.36056178938E+01 -0.19584348277E+02 -0.30254837776E+02  0.36220193083E+02  0.51100000000E-03 0.  1.
         12    1    3    3    0    0  0.77633603623E+01  0.22765949066E+02  0.37508968385E+02  0.44558735510E+02  0.00000000000E+00 0. -1.
</event>
<event>
 7    1  0.1971192E-015  0.9000774E+02  0.7816164E-02  0.1186339E+00
        -11   -1    0    0    0    0  0.00000000000E+00  0.00000000000E+00  0.45593999997E+02  0.45594000000E+02  0.51100000000E-03 0. -1.
         11   -1    0    0    0    0 -0.00000000000E+00 -0.00000000000E+00 -0.45593999997E+02  0.45594000000E+02  0.51100000000E-03 0.  1.
    9900012    2    1    2    0    0 -0.53317695682E+00 -0.98194492063E+00  0.38016286133E+00  0.90007738463E+02  0.89999999811E+02 0.  0.
         12    1    1    2    0    0  0.53317695682E+00  0.98194492063E+00 -0.38016286133E+00  0.11802615369E+01  0.00000000000E+00 0. -1.
         11    1    3    3    0    0 -0.51708347197E-01 -0.84869727268E+00 -0.11197118826E+02  0.11229355773E+02  0.51100000000E-03 0. -1.
        -11    1    3    3    0    0 -0.75157559703E+01  0.28173325236E+02 -0.20331804975E+02  0.35547224033E+02  0.51100000000E-03 0.  1.
         12    1    3    3    0    0  0.70342873607E+01 -0.28306572884E+02  0.31909086663E+02  0.43231158656E+02  0.00000000000E+00 0. -1.
</event>
<event>
 7    1  0.1971192E-015  0.9000767E+02  0.7816164E-02  0.1186339E+00
        -11   -1    0    0    0    0  0.00000000000E+00  0.00000000000E+00  0.45593999997E+02  0.45594000000E+02  0.51100000000E-03 0. -1.
         11   -1    0    0    0    0 -0.00000000000E+00 -0.00000000000E+00 -0.45593999997E+02  0.45594000000E+02  0.51100000000E-03 0.  1.
    9900012    2    1    2    0    0  0.80777125520E+00  0.84730161909E+00 -0.15086604476E+00  0.90007671657E+02  0.89999932123E+02 0.  0.
         12    1    1    2    0    0 -0.80777125520E+00 -0.84730161909E+00  0.15086604476E+00  0.11803283433E+01  0.00000000000E+00 0. -1.
         11    1    3    3    0    0  0.12436312723E+01 -0.96810906029E+01  0.35257417576E+01  0.10377908711E+02  0.51100000000E-03 0. -1.
        -11    1    3    3    0    0 -0.57441918597E+01 -0.59914135581E+01 -0.39213824480E+02  0.40082624754E+02  0.51100000000E-03 0.  1.
         12    1    3    3    0    0  0.53083318425E+01  0.16519805780E+02  0.35537216678E+02  0.39547138192E+02  0.00000000000E+00 0. -1.
</event>
<event>
 7    1  0.1971192E-015  0.9000770E+02  0.7816164E-02  0.1186339E+00
        -11   -1    0    0    0    0  0.00000000000E+00  0.00000000000E+00  0.45593999997E+02  0.45594000000E+02  0.51100000000E-03 0.  1.
         11   -1    0    0    0    0 -0.00000000000E+00 -0.00000000000E+00 -0.45593999997E+02  0.45594000000E+02  0.51100000000E-03 0. -1.
    9900012    2    1    2    0    0 -0.11637577152E+01  0.14509509712E+00 -0.13310355938E+00  0.90007702934E+02  0.89999963813E+02 0.  0.
         12    1    1    2    0    0  0.11637577152E+01 -0.14509509712E+00  0.13310355938E+00  0.11802970662E+01  0.00000000000E+00 0. -1.
         11    1    3    3    0    0 -0.11701028100E+01  0.29123016309E+02  0.19841941976E+02  0.35259351683E+02  0.51100000000E-03 0. -1.
        -11    1    3    3    0    0  0.21000739223E+00  0.83410340901E+01  0.51076984478E+01  0.97829206524E+01  0.51100000000E-03 0.  1.
        -12    1    3    3    0    0 -0.20366229744E+00 -0.37318955301E+02 -0.25082743983E+02  0.44965430598E+02  0.00000000000E+00 0.  1.
</event>
<event>
 7    1  0.1971192E-015  0.9000811E+02  0.7816164E-02  0.1186338E+00
        -11   -1    0    0    0    0  0.00000000000E+00  0.00000000000E+00  0.45593999997E+02  0.45594000000E+02  0.51100000000E-03 0.  1.
         11   -1    0    0    0    0 -0.00000000000E+00 -0.00000000000E+00 -0.45593999997E+02  0.45594000000E+02  0.51100000000E-03 0. -1.
    9900012    2    1    2    0    0  0.44174452073E-01 -0.11518857182E+01  0.25169675793E+00  0.90008108756E+02  0.90000374991E+02 0.  0.
         12    1    1    2    0    0 -0.44174452073E-01  0.11518857182E+01 -0.25169675793E+00  0.11798912441E+01  0.00000000000E+00 0. -1.
         11    1    3    3    0    0 -0.64873377256E+01 -0.24585474260E+02 -0.53809645354E+00  0.25432668822E+02  0.51100000000E-03 0. -1.
        -11    1    3    3    0    0 -0.64462650934E+01 -0.12008415684E+02 -0.17867711514E+02  0.22472460834E+02  0.51100000000E-03 0.  1.
         12    1    3    3    0    0  0.12977777271E+02  0.35442004227E+02  0.18657504726E+02  0.42102979100E+02  0.00000000000E+00 0. -1.
</event>
<event>
 7    1  0.1971192E-015  0.9000776E+02  0.7816164E-02  0.1186339E+00
        -11   -1    0    0    0    0  0.00000000000E+00  0.00000000000E+00  0.45593999997E+02  0.45594000000E+02  0.51100000000E-03 0. -1.
         11   -1    0    0    0    0 -0.00000000000E+00 -0.00000000000E+00 -0.45593999997E+02  0.45594000000E+02  0.51100000000E-03 0.  1.
    9900012    2    1    2    0    0 -0.11105405316E+00 -0.73959683682E+00 -0.91303420774E+00  0.90007759368E+02  0.90000020992E+02 0.  0.
         12    1    1    2    0    0  0.11105405316E+00  0.73959683682E+00  0.91303420774E+00  0.11802406315E+01  0.00000000000E+00 0. -1.
         11    1    3    3    0    0 -0.59033900517E+01  0.40641186754E+01  0.17224573692E+00  0.71691522208E+01  0.51100000000E-03 0. -1.
        -11    1    3    3    0    0 -0.20703844624E+02 -0.33841341764E+02  0.11935576237E+02  0.41428777136E+02  0.51100000000E-03 0.  1.
         12    1    3    3    0    0  0.26496180622E+02  0.29037626252E+02 -0.13020856182E+02  0.41409830012E+02  0.00000000000E+00 0. -1.
</event>
<event>
 7    1  0.1971192E-015  0.9000774E+02  0.7816164E-02  0.1186339E+00
        -11   -1    0    0    0    0  0.00000000000E+00  0.00000000000E+00  0.45593999997E+02  0.45594000000E+02  0.51100000000E-03 0. -1.
         11   -1    0    0    0    0 -0.00000000000E+00 -0.00000000000E+00 -0.45593999997E+02  0.45594000000E+02  0.51100000000E-03 0.  1.
    9900012    2    1    2    0    0 -0.23682879710E-01  0.97512624461E+00 -0.66451201996E+00  0.90007742275E+02  0.90000003673E+02 0.  0.
         12    1    1    2    0    0  0.23682879710E-01 -0.97512624461E+00  0.66451201996E+00  0.11802577246E+01  0.00000000000E+00 0. -1.
         11    1    3    3    0    0  0.36181782248E+02 -0.10498282819E+02  0.91238622569E+01  0.38763129022E+02  0.51100000000E-03 0. -1.
        -11    1    3    3    0    0 -0.74029778073E+00 -0.17936697244E+01  0.88361268799E+01  0.90466806279E+01  0.51100000000E-03 0.  1.
        -12    1    3    3    0    0 -0.35465167347E+02  0.13267078788E+02 -0.18624501157E+02  0.42197932626E+02  0.00000000000E+00 0.  1.
</event>
<event>
 7    1  0.1971192E-015  0.9000769E+02  0.7816164E-02  0.1186339E+00
        -11   -1    0    0    0    0  0.00000000000E+00  0.00000000000E+00  0.45593999997E+02  0.45594000000E+02  0.51100000000E-03 0. -1.
         11   -1    0    0    0    0 -0.00000000000E+00 -0.00000000000E+00 -0.45593999997E+02  0.45594000000E+02  0.51100000000E-03 0.  1.
    9900012    2    1    2    0    0 -0.87386732687E+00  0.40244337484E+00  0.68375303985E+00  0.90007693686E+02  0.89999954443E+02 0.  0.
         12    1    1    2    0    0  0.87386732687E+00 -0.40244337484E+00 -0.68375303985E+00  0.11803063138E+01  0.00000000000E+00 0. -1.
         11    1    3    3    0    0 -0.28415259051E+01 -0.86262326438E+01  0.32310615819E+01  0.96398090387E+01  0.51100000000E-03 0. -1.
        -11    1    3    3    0    0 -0.30747541717E+02  0.26700024933E+02  0.84564620892E+01  0.41591037549E+02  0.51100000000E-03 0.  1.
         12    1    3    3    0    0  0.32715200295E+02 -0.17671348914E+02 -0.11003770631E+02  0.38776847099E+02  0.00000000000E+00 0. -1.
</event>
<event>
 7    1  0.1971192E-015  0.9000774E+02  0.7816164E-02  0.1186339E+00
        -11   -1    0    0    0    0  0.00000000000E+00  0.00000000000E+00  0.45593999997E+02  0.45594000000E+02  0.51100000000E-03 0. -1.
         11   -1    0    0    0    0 -0.00000000000E+00 -0.00000000000E+00 -0.45593999997E+02  0.45594000000E+02  0.51100000000E-03 0.  1.
    9900012    2    1    2    0    0  0.10743927921E+01  0.48847861869E+00  0.84896200501E-02  0.90007744389E+02  0.90000005815E+02 0.  0.
         12    1    1    2    0    0 -0.10743927921E+01 -0.48847861869E+00 -0.84896200501E-02  0.11802556106E+01  0.00000000000E+00 0. -1.
         11    1    3    3    0    0  0.76331955426E+01  0.36655923300E+01 -0.55171747832E+00  0.84856722632E+01  0.51100000000E-03 0. -1.
        -11    1    3    3    0    0 -0.35321105042E+01  0.28782537795E+02 -0.26691311210E+02  0.39412388673E+02  0.51100000000E-03 0.  1.
         12    1    3    3    0    0 -0.30266922463E+01 -0.31959651507E+02  0.27251518309E+02  0.42109683453E+02  0.00000000000E+00 0. -1.
</event>
<event>
 7    1  0.1971192E-015  0.9000776E+02  0.7816164E-02  0.1186339E+00
        -11   -1    0    0    0    0  0.00000000000E+00  0.00000000000E+00  0.45593999997E+02  0.45594000000E+02  0.51100000000E-03 0.  1.
         11   -1    0    0    0    0 -0.00000000000E+00 -0.00000000000E+00 -0.45593999997E+02  0.45594000000E+02  0.51100000000E-03 0. -1.
    9900012    2    1    2    0    0  0.12978532134E+00 -0.99175770650E+00  0.62652412992E+00  0.90007762709E+02  0.90000024377E+02 0.  0.
         12    1    1    2    0    0 -0.12978532134E+00  0.99175770650E+00 -0.62652412992E+00  0.11802372911E+01  0.00000000000E+00 0. -1.
         11    1    3    3    0    0  0.89847078796E+01 -0.49564757025E+01 -0.21855046664E+00  0.10263498022E+02  0.51100000000E-03 0. -1.
        -11    1    3    3    0    0 -0.73769409132E+01 -0.27381308470E+02 -0.25980987608E+02  0.38459940563E+02  0.51100000000E-03 0.  1.
         12    1    3    3    0    0 -0.14779816450E+01  0.31346026466E+02  0.26826062204E+02  0.41284324124E+02  0.00000000000E+00 0. -1.
</event>
<event>
 7    1  0.1971192E-015  0.9000757E+02  0.7816164E-02  0.1186339E+00
        -11   -1    0    0    0    0  0.00000000000E+00  0.00000000000E+00  0.45593999997E+02  0.45594000000E+02  0.51100000000E-03 0. -1.
         11   -1    0    0    0    0 -0.00000000000E+00 -0.00000000000E+00 -0.45593999997E+02  0.45594000000E+02  0.51100000000E-03 0.  1.
    9900012    2    1    2    0    0 -0.10571557570E+01 -0.46922768468E-01  0.52309857421E+00  0.90007571197E+02  0.89999830337E+02 0.  0.
         12    1    1    2    0    0  0.10571557570E+01  0.46922768468E-01 -0.52309857421E+00  0.11804288030E+01  0.00000000000E+00 0. -1.
         11    1    3    3    0    0 -0.13286977131E+02  0.14027311302E+02  0.31292395703E+02  0.36776667232E+02  0.51100000000E-03 0. -1.
        -11    1    3    3    0    0 -0.75173550729E+01  0.82414457200E+01 -0.17171560858E+02  0.20476683262E+02  0.51100000000E-03 0.  1.
        -12    1    3    3    0    0  0.19747176447E+02 -0.22315679791E+02 -0.13597736270E+02  0.32754220702E+02  0.00000000000E+00 0.  1.
</event>
<event>
 7    1  0.1971192E-015  0.9000776E+02  0.7816164E-02  0.1186339E+00
        -11   -1    0    0    0    0  0.00000000000E+00  0.00000000000E+00  0.45593999997E+02  0.45594000000E+02  0.51100000000E-03 0. -1.
         11   -1    0    0    0    0 -0.00000000000E+00 -0.00000000000E+00 -0.45593999997E+02  0.45594000000E+02  0.51100000000E-03 0.  1.
    9900012    2    1    2    0    0  0.25272459385E+00 -0.57668787639E+00 -0.99826775490E+00  0.90007755476E+02  0.90000017048E+02 0.  0.
         12    1    1    2    0    0 -0.25272459385E+00  0.57668787639E+00  0.99826775490E+00  0.11802445245E+01  0.00000000000E+00 0. -1.
         11    1    3    3    0    0  0.57728398377E+01 -0.90425249076E+01 -0.26665715779E+01  0.11054571034E+02  0.51100000000E-03 0. -1.
        -11    1    3    3    0    0 -0.24534260071E+02  0.10873681014E+02 -0.31046726824E+02  0.41037374462E+02  0.51100000000E-03 0.  1.
         12    1    3    3    0    0  0.19014144827E+02 -0.24078439830E+01  0.32715030647E+02  0.37915809979E+02  0.00000000000E+00 0. -1.
</event>
<event>
 7    1  0.1971192E-015  0.9000771E+02  0.7816164E-02  0.1186339E+00
        -11   -1    0    0    0    0  0.00000000000E+00  0.00000000000E+00  0.45593999997E+02  0.45594000000E+02  0.51100000000E-03 0. -1.
         11   -1    0    0    0    0 -0.00000000000E+00 -0.00000000000E+00 -0.45593999997E+02  0.45594000000E+02  0.51100000000E-03 0.  1.
    9900012    2    1    2    0    0  0.10027588818E+01 -0.27449439794E+00  0.55876259634E+00  0.90007708431E+02  0.89999969382E+02 0.  0.
         12    1    1    2    0    0 -0.10027588818E+01  0.27449439794E+00 -0.55876259634E+00  0.11802915693E+01  0.00000000000E+00 0. -1.
         11    1    3    3    0    0  0.46836687419E+01  0.87929148393E+01 -0.46086407364E+00  0.99731890692E+01  0.51100000000E-03 0. -1.
        -11    1    3    3    0    0  0.26214791895E+02  0.24283655558E+01 -0.26830711006E+02  0.37589883303E+02  0.51100000000E-03 0.  1.
         12    1    3    3    0    0 -0.29895701755E+02 -0.11495774793E+02  0.27850337676E+02  0.42444636059E+02  0.00000000000E+00 0. -1.
</event>
<event>
 7    1  0.1971192E-015  0.9000775E+02  0.7816164E-02  0.1186339E+00
        -11   -1    0    0    0    0  0.00000000000E+00  0.00000000000E+00  0.45593999997E+02  0.45594000000E+02  0.51100000000E-03 0.  1.
         11   -1    0    0    0    0 -0.00000000000E+00 -0.00000000000E+00 -0.45593999997E+02  0.45594000000E+02  0.51100000000E-03 0. -1.
    9900012    2    1    2    0    0  0.68296912738E+00  0.61208083962E+00 -0.74290102108E+00  0.90007749302E+02  0.90000010793E+02 0.  0.
         12    1    1    2    0    0 -0.68296912738E+00 -0.61208083962E+00  0.74290102108E+00  0.11802506981E+01  0.00000000000E+00 0. -1.
         11    1    3    3    0    0  0.75680991345E+01  0.55401351217E+01 -0.43087604728E+01  0.10321561837E+02  0.51100000000E-03 0. -1.
        -11    1    3    3    0    0  0.20535678042E+02  0.24720901487E+02  0.17956073758E+02  0.36813823872E+02  0.51100000000E-03 0.  1.
         12    1    3    3    0    0 -0.27420808050E+02 -0.29648955769E+02 -0.14390214307E+02  0.42872363593E+02  0.00000000000E+00 0. -1.
</event>
<event>
 7    1  0.1971192E-015  0.9000766E+02  0.7816164E-02  0.1186339E+00
        -11   -1    0    0    0    0  0.00000000000E+00  0.00000000000E+00  0.45593999997E+02  0.45594000000E+02  0.51100000000E-03 0. -1.
         11   -1    0    0    0    0 -0.00000000000E+00 -0.00000000000E+00 -0.45593999997E+02  0.45594000000E+02  0.51100000000E-03 0.  1.
    9900012    2    1    2    0    0  0.91822714977E+00  0.33544312215E+00  0.66146606443E+00  0.90007660836E+02  0.89999921159E+02 0.  0.
         12    1    1    2    0    0 -0.91822714977E+00 -0.33544312215E+00 -0.66146606443E+00  0.11803391636E+01  0.00000000000E+00 0. -1.
         11    1    3    3    0    0 -0.33454440711E+02  0.20914360117E+02  0.74697785329E+01  0.40154796151E+02  0.51100000000E-03 0. -1.
        -11    1    3    3    0    0  0.60814565845E+01  0.70906464212E+01  0.13775314349E+01  0.94424029767E+01  0.51100000000E-03 0.  1.
        -12    1    3    3    0    0  0.28291211276E+02 -0.27669563416E+02 -0.81858439034E+01  0.40410461708E+02  0.00000000000E+00 0.  1.
</event>
<event>
 7    1  0.1971192E-015  0.9000769E+02  0.7816164E-02  0.1186339E+00
        -11   -1    0    0    0    0  0.00000000000E+00  0.00000000000E+00  0.45593999997E+02  0.45594000000E+02  0.51100000000E-03 0.  1.
         11   -1    0    0    0    0 -0.00000000000E+00 -0.00000000000E+00 -0.45593999997E+02  0.45594000000E+02  0.51100000000E-03 0. -1.
    9900012    2    1    2    0    0 -0.75927392735E+00  0.80685370100E+00  0.40695380318E+00  0.90007694451E+02  0.89999955218E+02 0.  0.
         12    1    1    2    0    0  0.75927392735E+00 -0.80685370100E+00 -0.40695380318E+00  0.11803055492E+01  0.00000000000E+00 0. -1.
         11    1    3    3    0    0  0.27205730797E+02  0.44931131192E+01 -0.24954204624E+02  0.37189409546E+02  0.51100000000E-03 0. -1.
        -11    1    3    3    0    0 -0.10134749707E+02  0.44445757006E+01 -0.83239554383E+01  0.13847586042E+02  0.51100000000E-03 0.  1.
        -12    1    3    3    0    0 -0.17830255017E+02 -0.81308351188E+01  0.33685113866E+02  0.38970698863E+02  0.00000000000E+00 0.  1.
</event>
<event>
 7    1  0.1971192E-015  0.9000774E+02  0.7816164E-02  0.1186339E+00
        -11   -1    0    0    0    0  0.00000000000E+00  0.00000000000E+00  0.45593999997E+02  0.45594000000E+02  0.51100000000E-03 0.  1.
         11   -1    0    0    0    0 -0.00000000000E+00 -0.00000000000E+00 -0.45593999997E+02  0.45594000000E+02  0.51100000000E-03 0. -1.
    9900012    2    1    2    0    0  0.62903169847E+00  0.85498932819E+00  0.51605649226E+00  0.90007744972E+02  0.90000006405E+02 0.  0.
         12    1    1    2    0    0 -0.62903169847E+00 -0.85498932819E+00 -0.51605649226E+00  0.11802550285E+01  0.00000000000E+00 0. -1.
         11    1    3    3    0    0  0.24113581784E+01 -0.97025840826E+01  0.71222155263E+01  0.12275208365E+02  0.51100000000E-03 0. -1.
        -11    1    3    3    0    0  0.66212481883E+01  0.40566732813E+02  0.10166242652E+02  0.42342097593E+02  0.51100000000E-03 0.  1.
         12    1    3    3    0    0 -0.84035746682E+01 -0.30009159402E+02 -0.16772401686E+02  0.35390439013E+02  0.00000000000E+00 0. -1.
</event>
<event>
 7    1  0.1971192E-015  0.9000781E+02  0.7816164E-02  0.1186339E+00
        -11   -1    0    0    0    0  0.00000000000E+00  0.00000000000E+00  0.45593999997E+02  0.45594000000E+02  0.51100000000E-03 0. -1.
         11   -1    0    0    0    0 -0.00000000000E+00 -0.00000000000E+00 -0.45593999997E+02  0.45594000000E+02  0.51100000000E-03 0.  1.
    9900012    2    1    2    0    0 -0.11777094263E+01 -0.58303896294E-01  0.49394931693E-01  0.90007814126E+02  0.90000076473E+02 0.  0.
         12    1    1    2    0    0  0.11777094263E+01  0.58303896294E-01 -0.49394931693E-01  0.11801858736E+01  0.00000000000E+00 0. -1.
         11    1    3    3    0    0 -0.12023911374E+02  0.25397329339E+02  0.14808951457E+02  0.31763246462E+02  0.51100000000E-03 0. -1.
        -11    1    3    3    0    0 -0.18557586205E+02 -0.31884324515E+01 -0.92701340828E+00  0.18852306526E+02  0.51100000000E-03 0.  1.
        -12    1    3    3    0    0  0.29403788153E+02 -0.22267200784E+02 -0.13832543117E+02  0.39392261138E+02  0.00000000000E+00 0.  1.
</event>
<event>
 7    1  0.1971192E-015  0.9000780E+02  0.7816164E-02  0.1186339E+00
        -11   -1    0    0    0    0  0.00000000000E+00  0.00000000000E+00  0.45593999997E+02  0.45594000000E+02  0.51100000000E-03 0. -1.
         11   -1    0    0    0    0 -0.00000000000E+00 -0.00000000000E+00 -0.45593999997E+02  0.45594000000E+02  0.51100000000E-03 0.  1.
    9900012    2    1    2    0    0 -0.10072555614E+00 -0.41988003111E+00 -0.10983792452E+01  0.90007795846E+02  0.90000057951E+02 0.  0.
         12    1    1    2    0    0  0.10072555614E+00  0.41988003111E+00  0.10983792452E+01  0.11802041537E+01  0.00000000000E+00 0. -1.
         11    1    3    3    0    0 -0.71571735748E+01 -0.15768482487E+02  0.26585492548E+02  0.31727883443E+02  0.51100000000E-03 0. -1.
        -11    1    3    3    0    0 -0.12015897473E+01 -0.65822717560E+01  0.11103109322E+02  0.12963377502E+02  0.51100000000E-03 0.  1.
        -12    1    3    3    0    0  0.82580377660E+01  0.21930874211E+02 -0.38786981115E+02  0.45316534901E+02  0.00000000000E+00 0.  1.
</event>
<event>
 7    1  0.1971192E-015  0.9000786E+02  0.7816164E-02  0.1186339E+00
        -11   -1    0    0    0    0  0.00000000000E+00  0.00000000000E+00  0.45593999997E+02  0.45594000000E+02  0.51100000000E-03 0.  1.
         11   -1    0    0    0    0 -0.00000000000E+00 -0.00000000000E+00 -0.45593999997E+02  0.45594000000E+02  0.51100000000E-03 0. -1.
    9900012    2    1    2    0    0  0.90464668494E+00  0.63931041304E+00  0.40695927596E+00  0.90007864719E+02  0.90000127733E+02 0.  0.
         12    1    1    2    0    0 -0.90464668494E+00 -0.63931041304E+00 -0.40695927596E+00  0.11801352808E+01  0.00000000000E+00 0. -1.
         11    1    3    3    0    0  0.36718362473E+01  0.84774029131E+01 -0.29068395856E+00  0.92430102782E+01  0.51100000000E-03 0. -1.
        -11    1    3    3    0    0 -0.38563220835E+02 -0.36653901340E+01  0.15608699605E+02  0.41763483926E+02  0.51100000000E-03 0.  1.
         12    1    3    3    0    0  0.35796031273E+02 -0.41727023660E+01 -0.14911056371E+02  0.39001370515E+02  0.00000000000E+00 0. -1.
</event>
<event>
 7    1  0.1971192E-015  0.9000767E+02  0.7816164E-02  0.1186339E+00
        -11   -1    0    0    0    0  0.00000000000E+00  0.00000000000E+00  0.45593999997E+02  0.45594000000E+02  0.51100000000E-03 0.  1.
         11   -1    0    0    0    0 -0.00000000000E+00 -0.00000000000E+00 -0.45593999997E+02  0.45594000000E+02  0.51100000000E-03 0. -1.
    9900012    2    1    2    0    0 -0.36614825794E+00 -0.82445139299E+00  0.76118060762E+00  0.90007669299E+02  0.89999929734E+02 0.  0.
         12    1    1    2    0    0  0.36614825794E+00  0.82445139299E+00 -0.76118060762E+00  0.11803307010E+01  0.00000000000E+00 0. -1.
         11    1    3    3    0    0  0.23646237390E+01  0.99474161354E+01  0.27679671675E+01  0.10592647247E+02  0.51100000000E-03 0. -1.
        -11    1    3    3    0    0 -0.36509004736E+02 -0.85671233822E+01  0.16347594002E+02  0.40909007074E+02  0.51100000000E-03 0.  1.
         12    1    3    3    0    0  0.33778232739E+02 -0.22047441462E+01 -0.18354380562E+02  0.38506014978E+02  0.00000000000E+00 0. -1.
</event>
<event>
 7    1  0.1971192E-015  0.9000792E+02  0.7816164E-02  0.1186339E+00
        -11   -1    0    0    0    0  0.00000000000E+00  0.00000000000E+00  0.45593999997E+02  0.45594000000E+02  0.51100000000E-03 0.  1.
         11   -1    0    0    0    0 -0.00000000000E+00 -0.00000000000E+00 -0.45593999997E+02  0.45594000000E+02  0.51100000000E-03 0. -1.
    9900012    2    1    2    0    0  0.78930719447E-01  0.68050041151E+00 -0.96087035801E+00  0.90007922582E+02  0.90000186359E+02 0.  0.
         12    1    1    2    0    0 -0.78930719447E-01 -0.68050041151E+00  0.96087035801E+00  0.11800774184E+01  0.00000000000E+00 0. -1.
         11    1    3    3    0    0  0.36089192747E+02 -0.10371197223E+02 -0.60724063975E+01  0.38037687689E+02  0.51100000000E-03 0. -1.
        -11    1    3    3    0    0  0.48317495344E+01 -0.50550137186E+01  0.39934558719E+01  0.80527422236E+01  0.51100000000E-03 0.  1.
        -12    1    3    3    0    0 -0.40842011562E+02  0.16106711353E+02  0.11180801677E+01  0.43917492669E+02  0.00000000000E+00 0.  1.
</event>
<event>
 7    1  0.1971192E-015  0.9000779E+02  0.7816164E-02  0.1186339E+00
        -11   -1    0    0    0    0  0.00000000000E+00  0.00000000000E+00  0.45593999997E+02  0.45594000000E+02  0.51100000000E-03 0.  1.
         11   -1    0    0    0    0 -0.00000000000E+00 -0.00000000000E+00 -0.45593999997E+02  0.45594000000E+02  0.51100000000E-03 0. -1.
    9900012    2    1    2    0    0 -0.20727841943E+00  0.56217083356E+00  0.10168007395E+01  0.90007794877E+02  0.90000056969E+02 0.  0.
         12    1    1    2    0    0  0.20727841943E+00 -0.56217083356E+00 -0.10168007395E+01  0.11802051233E+01  0.00000000000E+00 0. -1.
         11    1    3    3    0    0  0.54592496166E+01  0.40202181945E+01  0.77384563831E+01  0.10288307352E+02  0.51100000000E-03 0. -1.
        -11    1    3    3    0    0 -0.13599117161E+02  0.36361598451E+02 -0.39811458563E+01  0.39025009316E+02  0.51100000000E-03 0.  1.
         12    1    3    3    0    0  0.79325891253E+01 -0.39819645812E+02 -0.27405097873E+01  0.40694478209E+02  0.00000000000E+00 0. -1.
</event>
<event>
 7    1  0.1971192E-015  0.9000771E+02  0.7816164E-02  0.1186339E+00
        -11   -1    0    0    0    0  0.00000000000E+00  0.00000000000E+00  0.45593999997E+02  0.45594000000E+02  0.51100000000E-03 0.  1.
         11   -1    0    0    0    0 -0.00000000000E+00 -0.00000000000E+00 -0.45593999997E+02  0.45594000000E+02  0.51100000000E-03 0. -1.
    9900012    2    1    2    0    0  0.25602293848E+00 -0.71585429500E-01  0.11499592959E+01  0.90007712492E+02  0.89999973497E+02 0.  0.
         12    1    1    2    0    0 -0.25602293848E+00  0.71585429500E-01 -0.11499592959E+01  0.11802875078E+01  0.00000000000E+00 0. -1.
         11    1    3    3    0    0  0.16010082205E+02  0.43303871357E+01 -0.22304080856E+01  0.16734685699E+02  0.51100000000E-03 0. -1.
        -11    1    3    3    0    0 -0.83809845980E+01  0.88173409002E+00  0.37259478587E+02  0.38200616522E+02  0.51100000000E-03 0.  1.
         12    1    3    3    0    0 -0.73730746690E+01 -0.52837066552E+01 -0.33879111206E+02  0.35072410270E+02  0.00000000000E+00 0. -1.
</event>
<event>
 7    1  0.1971192E-015  0.9000775E+02  0.7816164E-02  0.1186339E+00
        -11   -1    0    0    0    0  0.00000000000E+00  0.00000000000E+00  0.45593999997E+02  0.45594000000E+02  0.51100000000E-03 0.  1.
         11   -1    0    0    0    0 -0.00000000000E+00 -0.00000000000E+00 -0.45593999997E+02  0.45594000000E+02  0.51100000000E-03 0. -1.
    9900012    2    1    2    0    0 -0.14552951408E+00 -0.21743449588E+00  0.11508850041E+01  0.90007748801E+02  0.90000010285E+02 0.  0.
         12    1    1    2    0    0  0.14552951408E+00  0.21743449588E+00 -0.11508850041E+01  0.11802511988E+01  0.00000000000E+00 0. -1.
         11    1    3    3    0    0  0.23313255713E+00 -0.13704593240E+02  0.20110305741E+01  0.13853319851E+02  0.51100000000E-03 0. -1.
        -11    1    3    3    0    0  0.19227385865E+02 -0.24790342118E+02 -0.84324913628E+01  0.32486310045E+02  0.51100000000E-03 0.  1.
         12    1    3    3    0    0 -0.19606047937E+02  0.38277500861E+02  0.75723457928E+01  0.43668118905E+02  0.00000000000E+00 0. -1.
</event>
<event>
 7    1  0.1971192E-015  0.9000781E+02  0.7816164E-02  0.1186339E+00
        -11   -1    0    0    0    0  0.00000000000E+00  0.00000000000E+00  0.45593999997E+02  0.45594000000E+02  0.51100000000E-03 0.  1.
         11   -1    0    0    0    0 -0.00000000000E+00 -0.00000000000E+00 -0.45593999997E+02  0.45594000000E+02  0.51100000000E-03 0. -1.
    9900012    2    1    2    0    0  0.11323035734E+01  0.15320062581E+00  0.29538998781E+00  0.90007814820E+02  0.90000077176E+02 0.  0.
         12    1    1    2    0    0 -0.11323035734E+01 -0.15320062581E+00 -0.29538998781E+00  0.11801851799E+01  0.00000000000E+00 0. -1.
         11    1    3    3    0    0 -0.78944138309E+01  0.24612182124E+01  0.36144055711E+01  0.90245937702E+01  0.51100000000E-03 0. -1.
        -11    1    3    3    0    0  0.16746066756E+02  0.37086976127E+02 -0.34547513562E+01  0.40838827814E+02  0.51100000000E-03 0.  1.
         12    1    3    3    0    0 -0.77193493514E+01 -0.39394993713E+02  0.13573577290E+00  0.40144393236E+02  0.00000000000E+00 0. -1.
</event>
<event>
 7    1  0.1971192E-015  0.9000777E+02  0.7816164E-02  0.1186339E+00
        -11   -1    0    0    0    0  0.00000000000E+00  0.00000000000E+00  0.45593999997E+02  0.45594000000E+02  0.51100000000E-03 0.  1.
         11   -1    0    0    0    0 -0.00000000000E+00 -0.00000000000E+00 -0.45593999997E+02  0.45594000000E+02  0.51100000000E-03 0. -1.
    9900012    2    1    2    0    0  0.22518450674E+00  0.10068942407E+01 -0.57305798274E+00  0.90007771410E+02  0.90000033192E+02 0.  0.
         12    1    1    2    0    0 -0.22518450674E+00 -0.10068942407E+01  0.57305798274E+00  0.11802285904E+01  0.00000000000E+00 0. -1.
         11    1    3    3    0    0  0.37476055630E+02  0.49773668099E+01 -0.19776531471E+02  0.42665444134E+02  0.51100000000E-03 0. -1.
        -11    1    3    3    0    0 -0.72941858842E+01 -0.10106285724E+02  0.78190873064E+01  0.14713269025E+02  0.51100000000E-03 0.  1.
        -12    1    3    3    0    0 -0.29956685239E+02  0.61358131544E+01  0.11384386182E+02  0.32629058250E+02  0.00000000000E+00 0.  1.
</event>
<event>
 7    1  0.1971192E-015  0.9000784E+02  0.7816164E-02  0.1186339E+00
        -11   -1    0    0    0    0  0.00000000000E+00  0.00000000000E+00  0.45593999997E+02  0.45594000000E+02  0.51100000000E-03 0.  1.
         11   -1    0    0    0    0 -0.00000000000E+00 -0.00000000000E+00 -0.45593999997E+02  0.45594000000E+02  0.51100000000E-03 0. -1.
    9900012    2    1    2    0    0 -0.47463829203E-01 -0.86484662452E+00 -0.80160610360E+00  0.90007836942E+02  0.90000099589E+02 0.  0.
         12    1    1    2    0    0  0.47463829203E-01  0.86484662452E+00  0.80160610360E+00  0.11801630584E+01  0.00000000000E+00 0. -1.
         11    1    3    3    0    0  0.35163468933E+02  0.68238293063E+01 -0.94586486892E+01  0.37047270198E+02  0.51100000000E-03 0. -1.
        -11    1    3    3    0    0  0.50800507317E+01  0.10343626568E+01 -0.71309519656E+01  0.88163086231E+01  0.51100000000E-03 0.  1.
        -12    1    3    3    0    0 -0.40290983494E+02 -0.87230385876E+01  0.15787994551E+02  0.44144258121E+02  0.00000000000E+00 0.  1.
</event>
<event>
 7    1  0.2095981E-015  0.9000772E+02  0.7816164E-02  0.1186339E+00
        -11   -1    0    0    0    0  0.00000000000E+00  0.00000000000E+00  0.45593999997E+02  0.45594000000E+02  0.51100000000E-03 0. -1.
         11   -1    0    0    0    0 -0.00000000000E+00 -0.00000000000E+00 -0.45593999997E+02  0.45594000000E+02  0.51100000000E-03 0.  1.
    9900012    2    1    2    0    0  0.25600025168E+00 -0.92333593333E-01 -0.11484724953E+01  0.90007724315E+02  0.89999985475E+02 0.  0.
         12    1    1    2    0    0 -0.25600025168E+00  0.92333593333E-01  0.11484724953E+01  0.11802756855E+01  0.00000000000E+00 0. -1.
         11    1    3    3    0    0  0.33356687210E+02  0.90942498082E+01  0.15213475179E+02  0.37773321120E+02  0.51100000000E-03 0. -1.
        -11    1    3    3    0    0  0.56301614864E+01 -0.83435025008E+01  0.28422521600E+00  0.10069435763E+02  0.51100000000E-03 0.  1.
        -12    1    3    3    0    0 -0.38730848444E+02 -0.84308090078E+00 -0.16646172890E+02  0.42164967432E+02  0.00000000000E+00 0.  1.
</event>
<event>
 7    1  0.1971192E-015  0.9000768E+02  0.7816164E-02  0.1186339E+00
        -11   -1    0    0    0    0  0.00000000000E+00  0.00000000000E+00  0.45593999997E+02  0.45594000000E+02  0.51100000000E-03 0. -1.
         11   -1    0    0    0    0 -0.00000000000E+00 -0.00000000000E+00 -0.45593999997E+02  0.45594000000E+02  0.51100000000E-03 0.  1.
    9900012    2    1    2    0    0 -0.36605626350E+00  0.10747499412E+01 -0.32260306713E+00  0.90007679127E+02  0.89999939691E+02 0.  0.
         12    1    1    2    0    0  0.36605626350E+00 -0.10747499412E+01  0.32260306713E+00  0.11803208730E+01  0.00000000000E+00 0. -1.
         11    1    3    3    0    0  0.50296538385E+01  0.62750784603E+01 -0.53591732064E+01  0.96640967056E+01  0.51100000000E-03 0. -1.
        -11    1    3    3    0    0  0.47646670518E+01  0.36216041930E+02  0.86753179804E+01  0.37544172484E+02  0.51100000000E-03 0.  1.
         12    1    3    3    0    0 -0.10160377154E+02 -0.41416370449E+02 -0.36387478411E+01  0.42799409937E+02  0.00000000000E+00 0. -1.
</event>
<event>
 7    1  0.1971192E-015  0.9000792E+02  0.7816164E-02  0.1186339E+00
        -11   -1    0    0    0    0  0.00000000000E+00  0.00000000000E+00  0.45593999997E+02  0.45594000000E+02  0.51100000000E-03 0. -1.
         11   -1    0    0    0    0 -0.00000000000E+00 -0.00000000000E+00 -0.45593999997E+02  0.45594000000E+02  0.51100000000E-03 0.  1.
    9900012    2    1    2    0    0 -0.34928287771E+00  0.87613653690E+00 -0.70920929553E+00  0.90007918823E+02  0.90000182551E+02 0.  0.
         12    1    1    2    0    0  0.34928287771E+00 -0.87613653690E+00  0.70920929553E+00  0.11800811772E+01  0.00000000000E+00 0. -1.
         11    1    3    3    0    0  0.38577132337E+01 -0.50280595564E+01 -0.62769272806E+01  0.89198178593E+01  0.51100000000E-03 0. -1.
        -11    1    3    3    0    0  0.14816906431E+02  0.18556779389E+02 -0.30339980419E+02  0.38528031219E+02  0.51100000000E-03 0.  1.
         12    1    3    3    0    0 -0.19023902543E+02 -0.12652583296E+02  0.35907698404E+02  0.42560069745E+02  0.00000000000E+00 0. -1.
</event>
<event>
 7    1  0.1971192E-015  0.9000775E+02  0.7816164E-02  0.1186339E+00
        -11   -1    0    0    0    0  0.00000000000E+00  0.00000000000E+00  0.45593999997E+02  0.45594000000E+02  0.51100000000E-03 0. -1.
         11   -1    0    0    0    0 -0.00000000000E+00 -0.00000000000E+00 -0.45593999997E+02  0.45594000000E+02  0.51100000000E-03 0.  1.
    9900012    2    1    2    0    0 -0.97904123205E+00  0.44360722473E+00 -0.48753278997E+00  0.90007746923E+02  0.90000008383E+02 0.  0.
         12    1    1    2    0    0  0.97904123205E+00 -0.44360722473E+00  0.48753278997E+00  0.11802530767E+01  0.00000000000E+00 0. -1.
         11    1    3    3    0    0 -0.42501903071E+01 -0.77591226090E+01 -0.11380630802E+01  0.89198256229E+01  0.51100000000E-03 0. -1.
        -11    1    3    3    0    0  0.24391415153E+02 -0.29105453922E+02  0.34120971807E+01  0.38127562060E+02  0.51100000000E-03 0.  1.
         12    1    3    3    0    0 -0.21120266078E+02  0.37308183756E+02 -0.27615668905E+01  0.42960359241E+02  0.00000000000E+00 0. -1.
</event>
<event>
 7    1  0.1971192E-015  0.9000773E+02  0.7816164E-02  0.1186339E+00
        -11   -1    0    0    0    0  0.00000000000E+00  0.00000000000E+00  0.45593999997E+02  0.45594000000E+02  0.51100000000E-03 0. -1.
         11   -1    0    0    0    0 -0.00000000000E+00 -0.00000000000E+00 -0.45593999997E+02  0.45594000000E+02  0.51100000000E-03 0.  1.
    9900012    2    1    2    0    0  0.75628842744E+00 -0.18801150508E+00 -0.88641140688E+00  0.90007726433E+02  0.89999987622E+02 0.  0.
         12    1    1    2    0    0 -0.75628842744E+00  0.18801150508E+00  0.88641140688E+00  0.11802735673E+01  0.00000000000E+00 0. -1.
         11    1    3    3    0    0 -0.27038816413E+01  0.75525516112E+00 -0.10882584028E+02  0.11238862117E+02  0.51100000000E-03 0. -1.
        -11    1    3    3    0    0 -0.21532173187E+02 -0.42579986522E+01 -0.26501246708E+02  0.34410479683E+02  0.51100000000E-03 0.  1.
         12    1    3    3    0    0  0.24992343256E+02  0.33147319860E+01  0.36497419329E+02  0.44358384633E+02  0.00000000000E+00 0. -1.
</event>
<event>
 7    1  0.1971192E-015  0.9000804E+02  0.7816164E-02  0.1186338E+00
        -11   -1    0    0    0    0  0.00000000000E+00  0.00000000000E+00  0.45593999997E+02  0.45594000000E+02  0.51100000000E-03 0. -1.
         11   -1    0    0    0    0 -0.00000000000E+00 -0.00000000000E+00 -0.45593999997E+02  0.45594000000E+02  0.51100000000E-03 0.  1.
    9900012    2    1    2    0    0  0.89149631637E+00 -0.59612587584E-02 -0.77298641933E+00  0.90008038465E+02  0.90000303773E+02 0.  0.
         12    1    1    2    0    0 -0.89149631637E+00  0.59612587584E-02  0.77298641933E+00  0.11799615346E+01  0.00000000000E+00 0. -1.
         11    1    3    3    0    0 -0.80166866706E+01  0.28969967857E+02  0.23181871337E+01  0.30147973309E+02  0.51100000000E-03 0. -1.
        -11    1    3    3    0    0 -0.12152940508E+02  0.98200268756E+01 -0.29047947205E+00  0.15627260458E+02  0.51100000000E-03 0.  1.
        -12    1    3    3    0    0  0.21061123495E+02 -0.38795955991E+02 -0.28006940810E+01  0.44232804698E+02  0.00000000000E+00 0.  1.
</event>
<event>
 7    1  0.1971192E-015  0.9000774E+02  0.7816164E-02  0.1186339E+00
        -11   -1    0    0    0    0  0.00000000000E+00  0.00000000000E+00  0.45593999997E+02  0.45594000000E+02  0.51100000000E-03 0.  1.
         11   -1    0    0    0    0 -0.00000000000E+00 -0.00000000000E+00 -0.45593999997E+02  0.45594000000E+02  0.51100000000E-03 0. -1.
    9900012    2    1    2    0    0 -0.28972523601E+00  0.49778288735E+00  0.10301817316E+01  0.90007744555E+02  0.90000005983E+02 0.  0.
         12    1    1    2    0    0  0.28972523601E+00 -0.49778288735E+00 -0.10301817316E+01  0.11802554450E+01  0.00000000000E+00 0. -1.
         11    1    3    3    0    0  0.33782714060E+02  0.76837417799E+01 -0.17017217281E+02  0.38599188350E+02  0.51100000000E-03 0. -1.
        -11    1    3    3    0    0 -0.32659661387E+01  0.43348365598E-01 -0.91297680283E+01  0.96964466900E+01  0.51100000000E-03 0.  1.
        -12    1    3    3    0    0 -0.30806473158E+02 -0.72293072581E+01  0.27177167041E+02  0.41712109515E+02  0.00000000000E+00 0.  1.
</event>
<event>
 7    1  0.1971192E-015  0.9000780E+02  0.7816164E-02  0.1186339E+00
        -11   -1    0    0    0    0  0.00000000000E+00  0.00000000000E+00  0.45593999997E+02  0.45594000000E+02  0.51100000000E-03 0.  1.
         11   -1    0    0    0    0 -0.00000000000E+00 -0.00000000000E+00 -0.45593999997E+02  0.45594000000E+02  0.51100000000E-03 0. -1.
    9900012    2    1    2    0    0  0.44690509577E+00  0.89022760469E+00 -0.63296789330E+00  0.90007797599E+02  0.90000059728E+02 0.  0.
         12    1    1    2    0    0 -0.44690509577E+00 -0.89022760469E+00  0.63296789330E+00  0.11802024007E+01  0.00000000000E+00 0. -1.
         11    1    3    3    0    0  0.23792158370E+01  0.22285204596E+02 -0.37438542073E+02  0.43634108731E+02  0.51100000000E-03 0. -1.
        -11    1    3    3    0    0 -0.49596347310E+01 -0.85564899277E+01  0.33998405610E+01  0.10458031012E+02  0.51100000000E-03 0.  1.
        -12    1    3    3    0    0  0.30273239898E+01 -0.12838487064E+02  0.33405733619E+02  0.35915657856E+02  0.00000000000E+00 0.  1.
</event>
<event>
 7    1  0.1971192E-015  0.9000770E+02  0.7816164E-02  0.1186339E+00
        -11   -1    0    0    0    0  0.00000000000E+00  0.00000000000E+00  0.45593999997E+02  0.45594000000E+02  0.51100000000E-03 0. -1.
         11   -1    0    0    0    0 -0.00000000000E+00 -0.00000000000E+00 -0.45593999997E+02  0.45594000000E+02  0.51100000000E-03 0.  1.
    9900012    2    1    2    0    0  0.91931894309E+00  0.71485000282E+00 -0.19219867629E+00  0.90007704199E+02  0.89999965095E+02 0.  0.
         12    1    1    2    0    0 -0.91931894309E+00 -0.71485000282E+00  0.19219867629E+00  0.11802958006E+01  0.00000000000E+00 0. -1.
         11    1    3    3    0    0 -0.25037363794E+02 -0.28619466381E+02  0.10426349832E+02  0.39429078264E+02  0.51100000000E-03 0. -1.
        -11    1    3    3    0    0  0.31547347577E+01  0.14773414328E+01  0.89504289697E+01  0.96044296084E+01  0.51100000000E-03 0.  1.
        -12    1    3    3    0    0  0.22801947980E+02  0.27856974951E+02 -0.19568977478E+02  0.40974196327E+02  0.00000000000E+00 0.  1.
</event>
<event>
 7    1  0.1971192E-015  0.9000772E+02  0.7816164E-02  0.1186339E+00
        -11   -1    0    0    0    0  0.00000000000E+00  0.00000000000E+00  0.45593999997E+02  0.45594000000E+02  0.51100000000E-03 0.  1.
         11   -1    0    0    0    0 -0.00000000000E+00 -0.00000000000E+00 -0.45593999997E+02  0.45594000000E+02  0.51100000000E-03 0. -1.
    9900012    2    1    2    0    0  0.11410562011E+01 -0.35212304441E-01  0.29968558479E+00  0.90007720114E+02  0.89999981219E+02 0.  0.
         12    1    1    2    0    0 -0.11410562011E+01  0.35212304441E-01 -0.29968558479E+00  0.11802798864E+01  0.00000000000E+00 0. -1.
         11    1    3    3    0    0 -0.50408782986E-01  0.14779757558E+02 -0.41012117593E+01  0.15338308664E+02  0.51100000000E-03 0. -1.
        -11    1    3    3    0    0  0.36621970173E+01 -0.30369932706E+02 -0.26184954993E+02  0.40266566377E+02  0.51100000000E-03 0.  1.
         12    1    3    3    0    0 -0.24707320332E+01  0.15554962844E+02  0.30585852337E+02  0.34402845072E+02  0.00000000000E+00 0. -1.
</event>
<event>
 7    1  0.1971192E-015  0.9000773E+02  0.7816164E-02  0.1186339E+00
        -11   -1    0    0    0    0  0.00000000000E+00  0.00000000000E+00  0.45593999997E+02  0.45594000000E+02  0.51100000000E-03 0.  1.
         11   -1    0    0    0    0 -0.00000000000E+00 -0.00000000000E+00 -0.45593999997E+02  0.45594000000E+02  0.51100000000E-03 0. -1.
    9900012    2    1    2    0    0 -0.65658496503E+00  0.74645758325E+00  0.63619356060E+00  0.90007726732E+02  0.89999987925E+02 0.  0.
         12    1    1    2    0    0  0.65658496503E+00 -0.74645758325E+00 -0.63619356060E+00  0.11802732677E+01  0.00000000000E+00 0. -1.
         11    1    3    3    0    0 -0.57695948292E+01 -0.57372501756E+01 -0.21073968539E+01  0.84050809533E+01  0.51100000000E-03 0. -1.
        -11    1    3    3    0    0  0.35202392934E+02 -0.20394513002E+02  0.60079048094E+01  0.41124682969E+02  0.51100000000E-03 0.  1.
         12    1    3    3    0    0 -0.30089383070E+02  0.26878220761E+02 -0.32643143949E+01  0.40477962810E+02  0.00000000000E+00 0. -1.
</event>
<event>
 7    1  0.1971192E-015  0.9000769E+02  0.7816164E-02  0.1186339E+00
        -11   -1    0    0    0    0  0.00000000000E+00  0.00000000000E+00  0.45593999997E+02  0.45594000000E+02  0.51100000000E-03 0.  1.
         11   -1    0    0    0    0 -0.00000000000E+00 -0.00000000000E+00 -0.45593999997E+02  0.45594000000E+02  0.51100000000E-03 0. -1.
    9900012    2    1    2    0    0 -0.16018220471E+00 -0.10518619045E+01  0.51094194764E+00  0.90007689245E+02  0.89999949943E+02 0.  0.
         12    1    1    2    0    0  0.16018220471E+00  0.10518619045E+01 -0.51094194764E+00  0.11803107552E+01  0.00000000000E+00 0. -1.
         11    1    3    3    0    0  0.90152501776E+01  0.78636469693E+00  0.11973815259E+01  0.91283529720E+01  0.51100000000E-03 0. -1.
        -11    1    3    3    0    0 -0.40123356913E+01  0.15689874345E+02  0.36231837320E+02  0.39686484230E+02  0.51100000000E-03 0.  1.
         12    1    3    3    0    0 -0.51630966910E+01 -0.17528100947E+02 -0.36918276899E+02  0.41192852043E+02  0.00000000000E+00 0. -1.
</event>
<event>
 7    1  0.1971192E-015  0.9000812E+02  0.7816164E-02  0.1186338E+00
        -11   -1    0    0    0    0  0.00000000000E+00  0.00000000000E+00  0.45593999997E+02  0.45594000000E+02  0.51100000000E-03 0.  1.
         11   -1    0    0    0    0 -0.00000000000E+00 -0.00000000000E+00 -0.45593999997E+02  0.45594000000E+02  0.51100000000E-03 0. -1.
    9900012    2    1    2    0    0 -0.18277756651E+00  0.11381521401E+01 -0.25164080708E+00  0.90008118214E+02  0.90000384574E+02 0.  0.
         12    1    1    2    0    0  0.18277756651E+00 -0.11381521401E+01  0.25164080708E+00  0.11798817858E+01  0.00000000000E+00 0. -1.
         11    1    3    3    0    0 -0.73741211328E+01  0.45419002099E+01  0.48594605662E+01  0.99308044615E+01  0.51100000000E-03 0. -1.
        -11    1    3    3    0    0 -0.16772517759E+02  0.29174674793E+02  0.12590132000E+02  0.35930355207E+02  0.51100000000E-03 0.  1.
         12    1    3    3    0    0  0.23963861326E+02 -0.32578422863E+02 -0.17701233374E+02  0.44146958545E+02  0.00000000000E+00 0. -1.
</event>
<event>
 7    1  0.1971192E-015  0.9000772E+02  0.7816164E-02  0.1186339E+00
        -11   -1    0    0    0    0  0.00000000000E+00  0.00000000000E+00  0.45593999997E+02  0.45594000000E+02  0.51100000000E-03 0. -1.
         11   -1    0    0    0    0 -0.00000000000E+00 -0.00000000000E+00 -0.45593999997E+02  0.45594000000E+02  0.51100000000E-03 0.  1.
    9900012    2    1    2    0    0  0.15530868483E+00 -0.73551544252E+00 -0.90991710412E+00  0.90007723384E+02  0.89999984533E+02 0.  0.
         12    1    1    2    0    0 -0.15530868483E+00  0.73551544252E+00  0.90991710412E+00  0.11802766159E+01  0.00000000000E+00 0. -1.
         11    1    3    3    0    0 -0.24153750282E+02 -0.16254692692E+02 -0.20957246216E+02  0.35872341106E+02  0.51100000000E-03 0. -1.
        -11    1    3    3    0    0 -0.63459769964E+01  0.67660190943E+01 -0.75570192753E+01  0.11964906143E+02  0.51100000000E-03 0.  1.
        -12    1    3    3    0    0  0.30655035963E+02  0.87531581548E+01  0.27604348387E+02  0.42170476135E+02  0.00000000000E+00 0.  1.
</event>
<event>
 7    1  0.1971192E-015  0.9000775E+02  0.7816164E-02  0.1186339E+00
        -11   -1    0    0    0    0  0.00000000000E+00  0.00000000000E+00  0.45593999997E+02  0.45594000000E+02  0.51100000000E-03 0.  1.
         11   -1    0    0    0    0 -0.00000000000E+00 -0.00000000000E+00 -0.45593999997E+02  0.45594000000E+02  0.51100000000E-03 0. -1.
    9900012    2    1    2    0    0 -0.21096881449E+00 -0.10893731613E+01  0.40216903603E+00  0.90007753560E+02  0.90000015107E+02 0.  0.
         12    1    1    2    0    0  0.21096881449E+00  0.10893731613E+01 -0.40216903603E+00  0.11802464398E+01  0.00000000000E+00 0. -1.
         11    1    3    3    0    0  0.23664332309E+02 -0.32614710511E+02  0.16157416560E+01  0.40327789261E+02  0.51100000000E-03 0. -1.
        -11    1    3    3    0    0  0.53909833007E+01  0.50094826701E+01  0.60486313088E+01  0.95259413467E+01  0.51100000000E-03 0.  1.
        -12    1    3    3    0    0 -0.29266284424E+02  0.26515854679E+02 -0.72622039288E+01  0.40154022952E+02  0.00000000000E+00 0.  1.
</event>
<event>
 7    1  0.1971192E-015  0.9000760E+02  0.7816164E-02  0.1186339E+00
        -11   -1    0    0    0    0  0.00000000000E+00  0.00000000000E+00  0.45593999997E+02  0.45594000000E+02  0.51100000000E-03 0. -1.
         11   -1    0    0    0    0 -0.00000000000E+00 -0.00000000000E+00 -0.45593999997E+02  0.45594000000E+02  0.51100000000E-03 0.  1.
    9900012    2    1    2    0    0  0.53227097698E-01  0.11789056089E+01  0.26373240238E-01  0.90007598752E+02  0.89999858255E+02 0.  0.
         12    1    1    2    0    0 -0.53227097698E-01 -0.11789056089E+01 -0.26373240238E-01  0.11804012481E+01  0.00000000000E+00 0. -1.
         11    1    3    3    0    0 -0.12816773913E+02 -0.45865931032E+01  0.36972827691E+02  0.39399194377E+02  0.51100000000E-03 0. -1.
        -11    1    3    3    0    0 -0.24765954704E+01  0.78691185054E+01  0.21753116327E+01  0.85316195495E+01  0.51100000000E-03 0.  1.
        -12    1    3    3    0    0  0.15346596481E+02 -0.21036197934E+01 -0.39121766083E+02  0.42076784826E+02  0.00000000000E+00 0.  1.
</event>
<event>
 7    1  0.1971192E-015  0.9000770E+02  0.7816164E-02  0.1186339E+00
        -11   -1    0    0    0    0  0.00000000000E+00  0.00000000000E+00  0.45593999997E+02  0.45594000000E+02  0.51100000000E-03 0.  1.
         11   -1    0    0    0    0 -0.00000000000E+00 -0.00000000000E+00 -0.45593999997E+02  0.45594000000E+02  0.51100000000E-03 0. -1.
    9900012    2    1    2    0    0  0.10464117861E+01 -0.52876741052E+00 -0.13611441622E+00  0.90007703539E+02  0.89999964426E+02 0.  0.
         12    1    1    2    0    0 -0.10464117861E+01  0.52876741052E+00  0.13611441622E+00  0.11802964606E+01  0.00000000000E+00 0. -1.
         11    1    3    3    0    0 -0.36627055904E+01 -0.38461638593E+01  0.82598393814E+01  0.98200476345E+01  0.51100000000E-03 0. -1.
        -11    1    3    3    0    0 -0.10082427323E+02 -0.11322865668E+02  0.31629166647E+02  0.35075159454E+02  0.51100000000E-03 0.  1.
         12    1    3    3    0    0  0.14791544700E+02  0.14640262117E+02 -0.40025120444E+02  0.45112496451E+02  0.00000000000E+00 0. -1.
</event>
<event>
 7    1  0.1971192E-015  0.9000773E+02  0.7816164E-02  0.1186339E+00
        -11   -1    0    0    0    0  0.00000000000E+00  0.00000000000E+00  0.45593999997E+02  0.45594000000E+02  0.51100000000E-03 0.  1.
         11   -1    0    0    0    0 -0.00000000000E+00 -0.00000000000E+00 -0.45593999997E+02  0.45594000000E+02  0.51100000000E-03 0. -1.
    9900012    2    1    2    0    0 -0.86736464438E+00  0.73067962150E+00  0.32684347118E+00  0.90007728510E+02  0.89999989726E+02 0.  0.
         12    1    1    2    0    0  0.86736464438E+00 -0.73067962150E+00 -0.32684347118E+00  0.11802714901E+01  0.00000000000E+00 0. -1.
         11    1    3    3    0    0  0.11786385790E+02  0.14887742066E+02  0.81548449593E+01  0.20665557103E+02  0.51100000000E-03 0. -1.
        -11    1    3    3    0    0 -0.16453693895E+02  0.23055221943E+02  0.68812031024E+01  0.29148211918E+02  0.51100000000E-03 0.  1.
         12    1    3    3    0    0  0.37999434604E+01 -0.37212284388E+02 -0.14709204590E+02  0.40193959488E+02  0.00000000000E+00 0. -1.
</event>
<event>
 7    1  0.1971192E-015  0.9000783E+02  0.7816164E-02  0.1186339E+00
        -11   -1    0    0    0    0  0.00000000000E+00  0.00000000000E+00  0.45593999997E+02  0.45594000000E+02  0.51100000000E-03 0. -1.
         11   -1    0    0    0    0 -0.00000000000E+00 -0.00000000000E+00 -0.45593999997E+02  0.45594000000E+02  0.51100000000E-03 0.  1.
    9900012    2    1    2    0    0 -0.16855145052E+00 -0.11636107512E+01  0.10197886833E+00  0.90007830834E+02  0.90000093401E+02 0.  0.
         12    1    1    2    0    0  0.16855145052E+00  0.11636107512E+01 -0.10197886833E+00  0.11801691664E+01  0.00000000000E+00 0. -1.
         11    1    3    3    0    0  0.10180070347E+02  0.16821869491E+02  0.33455889253E+02  0.38806000198E+02  0.51100000000E-03 0. -1.
        -11    1    3    3    0    0 -0.34724910812E+01 -0.57306698460E+01  0.62597286472E+01  0.91696768858E+01  0.51100000000E-03 0.  1.
        -12    1    3    3    0    0 -0.68761307163E+01 -0.12254810396E+02 -0.39613639032E+02  0.42032153749E+02  0.00000000000E+00 0.  1.
</event>
<event>
 7    1  0.1971192E-015  0.9000769E+02  0.7816164E-02  0.1186339E+00
        -11   -1    0    0    0    0  0.00000000000E+00  0.00000000000E+00  0.45593999997E+02  0.45594000000E+02  0.51100000000E-03 0.  1.
         11   -1    0    0    0    0 -0.00000000000E+00 -0.00000000000E+00 -0.45593999997E+02  0.45594000000E+02  0.51100000000E-03 0. -1.
    9900012    2    1    2    0    0  0.42048164442E-01  0.82991316338E+00  0.83821066340E+00  0.90007694521E+02  0.89999955289E+02 0.  0.
         12    1    1    2    0    0 -0.42048164442E-01 -0.82991316338E+00 -0.83821066340E+00  0.11803054787E+01  0.00000000000E+00 0. -1.
         11    1    3    3    0    0 -0.34041529855E+01 -0.79899536403E+01 -0.55196950761E+01  0.10290512656E+02  0.51100000000E-03 0. -1.
        -11    1    3    3    0    0  0.15096105391E+02 -0.32193892512E+02 -0.41676143905E+01  0.35800951426E+02  0.51100000000E-03 0.  1.
         12    1    3    3    0    0 -0.11649904241E+02  0.41013759316E+02  0.10525520130E+02  0.43916230440E+02  0.00000000000E+00 0. -1.
</event>
<event>
 7    1  0.1971192E-015  0.9000771E+02  0.7816164E-02  0.1186339E+00
        -11   -1    0    0    0    0  0.00000000000E+00  0.00000000000E+00  0.45593999997E+02  0.45594000000E+02  0.51100000000E-03 0.  1.
         11   -1    0    0    0    0 -0.00000000000E+00 -0.00000000000E+00 -0.45593999997E+02  0.45594000000E+02  0.51100000000E-03 0. -1.
    9900012    2    1    2    0    0  0.15025254694E+00  0.11373595324E+01  0.27732949984E+00  0.90007714363E+02  0.89999975392E+02 0.  0.
         12    1    1    2    0    0 -0.15025254694E+00 -0.11373595324E+01 -0.27732949984E+00  0.11802856371E+01  0.00000000000E+00 0. -1.
         11    1    3    3    0    0  0.25749686173E+01 -0.72466167964E+01  0.44788187698E+01  0.88996480946E+01  0.51100000000E-03 0. -1.
        -11    1    3    3    0    0 -0.35063752994E+02  0.14702634803E+02  0.17030633928E+02  0.41661453844E+02  0.51100000000E-03 0.  1.
         12    1    3    3    0    0  0.32639036924E+02 -0.63186584744E+01 -0.21232123198E+02  0.39446612424E+02  0.00000000000E+00 0. -1.
</event>
<event>
 7    1  0.1971192E-015  0.9000776E+02  0.7816164E-02  0.1186339E+00
        -11   -1    0    0    0    0  0.00000000000E+00  0.00000000000E+00  0.45593999997E+02  0.45594000000E+02  0.51100000000E-03 0.  1.
         11   -1    0    0    0    0 -0.00000000000E+00 -0.00000000000E+00 -0.45593999997E+02  0.45594000000E+02  0.51100000000E-03 0. -1.
    9900012    2    1    2    0    0 -0.62526767930E+00  0.10007556495E+01 -0.22300352375E-01  0.90007758988E+02  0.90000020607E+02 0.  0.
         12    1    1    2    0    0  0.62526767930E+00 -0.10007556495E+01  0.22300352375E-01  0.11802410120E+01  0.00000000000E+00 0. -1.
         11    1    3    3    0    0 -0.12849865459E+02 -0.10913392590E+02 -0.35899583092E+02  0.39661079745E+02  0.51100000000E-03 0. -1.
        -11    1    3    3    0    0  0.22442727154E+01 -0.73370406156E+01 -0.82537393343E+00  0.77168754951E+01  0.51100000000E-03 0.  1.
        -12    1    3    3    0    0  0.99803250643E+01  0.19251188855E+02  0.36702656673E+02  0.42629803748E+02  0.00000000000E+00 0.  1.
</event>
<event>
 7    1  0.1971192E-015  0.9000781E+02  0.7816164E-02  0.1186339E+00
        -11   -1    0    0    0    0  0.00000000000E+00  0.00000000000E+00  0.45593999997E+02  0.45594000000E+02  0.51100000000E-03 0.  1.
         11   -1    0    0    0    0 -0.00000000000E+00 -0.00000000000E+00 -0.45593999997E+02  0.45594000000E+02  0.51100000000E-03 0. -1.
    9900012    2    1    2    0    0 -0.64074219048E-01 -0.35790827500E+00  0.11227856791E+01  0.90007808693E+02  0.90000070968E+02 0.  0.
         12    1    1    2    0    0  0.64074219048E-01  0.35790827500E+00 -0.11227856791E+01  0.11801913066E+01  0.00000000000E+00 0. -1.
         11    1    3    3    0    0 -0.18318926412E+02  0.31542962530E+02  0.56437902409E+01  0.36910620675E+02  0.51100000000E-03 0. -1.
        -11    1    3    3    0    0  0.23897026800E+01  0.85279207374E+01 -0.38621497310E+01  0.96619000103E+01  0.51100000000E-03 0.  1.
        -12    1    3    3    0    0  0.15865149512E+02 -0.40428791543E+02 -0.65885483081E+00  0.43435288008E+02  0.00000000000E+00 0.  1.
</event>
<event>
 7    1  0.1971192E-015  0.9000829E+02  0.7816164E-02  0.1186338E+00
        -11   -1    0    0    0    0  0.00000000000E+00  0.00000000000E+00  0.45593999997E+02  0.45594000000E+02  0.51100000000E-03 0.  1.
         11   -1    0    0    0    0 -0.00000000000E+00 -0.00000000000E+00 -0.45593999997E+02  0.45594000000E+02  0.51100000000E-03 0. -1.
    9900012    2    1    2    0    0 -0.77941472883E+00 -0.95526917784E-01  0.88040591842E+00  0.90008285080E+02  0.90000553641E+02 0.  0.
         12    1    1    2    0    0  0.77941472883E+00  0.95526917784E-01 -0.88040591842E+00  0.11797149201E+01  0.00000000000E+00 0. -1.
         11    1    3    3    0    0  0.23183710718E+02 -0.67214809189E+01  0.28407412335E+01  0.24304990422E+02  0.51100000000E-03 0. -1.
        -11    1    3    3    0    0  0.13969281208E+02  0.20629445051E+02 -0.39223587070E+01  0.25221017400E+02  0.51100000000E-03 0.  1.
         12    1    3    3    0    0 -0.37932406655E+02 -0.14003491050E+02  0.19620233919E+01  0.40482277258E+02  0.00000000000E+00 0. -1.
</event>
<event>
 7    1  0.1971192E-015  0.9000868E+02  0.7816164E-02  0.1186337E+00
        -11   -1    0    0    0    0  0.00000000000E+00  0.00000000000E+00  0.45593999997E+02  0.45594000000E+02  0.51100000000E-03 0. -1.
         11   -1    0    0    0    0 -0.00000000000E+00 -0.00000000000E+00 -0.45593999997E+02  0.45594000000E+02  0.51100000000E-03 0.  1.
    9900012    2    1    2    0    0 -0.71822555815E+00 -0.93471008615E+00  0.35556844673E-01  0.90008680202E+02  0.90000953975E+02 0.  0.
         12    1    1    2    0    0  0.71822555815E+00  0.93471008615E+00 -0.35556844673E-01  0.11793197983E+01  0.00000000000E+00 0. -1.
         11    1    3    3    0    0  0.32954712353E+01 -0.61515619281E+01 -0.81181541336E+01  0.10705431874E+02  0.51100000000E-03 0. -1.
        -11    1    3    3    0    0  0.67336707328E+00 -0.83764538987E+01 -0.33865200054E+02  0.34892265305E+02  0.51100000000E-03 0.  1.
         12    1    3    3    0    0 -0.46870638667E+01  0.13593305741E+02  0.42018911033E+02  0.44410983022E+02  0.00000000000E+00 0. -1.
</event>
<event>
 7    1  0.1971192E-015  0.9000777E+02  0.7816164E-02  0.1186339E+00
        -11   -1    0    0    0    0  0.00000000000E+00  0.00000000000E+00  0.45593999997E+02  0.45594000000E+02  0.51100000000E-03 0.  1.
         11   -1    0    0    0    0 -0.00000000000E+00 -0.00000000000E+00 -0.45593999997E+02  0.45594000000E+02  0.51100000000E-03 0. -1.
    9900012    2    1    2    0    0  0.10843810126E+01  0.16668895670E+00  0.43507099830E+00  0.90007765209E+02  0.90000026910E+02 0.  0.
         12    1    1    2    0    0 -0.10843810126E+01 -0.16668895670E+00 -0.43507099830E+00  0.11802347912E+01  0.00000000000E+00 0. -1.
         11    1    3    3    0    0 -0.96831215778E+01 -0.10952513923E+01 -0.28047038321E+01  0.10140452798E+02  0.51100000000E-03 0. -1.
        -11    1    3    3    0    0 -0.16399257462E+02  0.24306258672E+02 -0.21617107702E+02  0.36428412011E+02  0.51100000000E-03 0.  1.
         12    1    3    3    0    0  0.27166760053E+02 -0.23044318323E+02  0.24856882533E+02  0.43438900400E+02  0.00000000000E+00 0. -1.
</event>
<event>
 7    1  0.1971192E-015  0.9000773E+02  0.7816164E-02  0.1186339E+00
        -11   -1    0    0    0    0  0.00000000000E+00  0.00000000000E+00  0.45593999997E+02  0.45594000000E+02  0.51100000000E-03 0.  1.
         11   -1    0    0    0    0 -0.00000000000E+00 -0.00000000000E+00 -0.45593999997E+02  0.45594000000E+02  0.51100000000E-03 0. -1.
    9900012    2    1    2    0    0  0.62813819253E+00  0.99724194238E+00 -0.63096537261E-01  0.90007732974E+02  0.89999994249E+02 0.  0.
         12    1    1    2    0    0 -0.62813819253E+00 -0.99724194238E+00  0.63096537261E-01  0.11802670264E+01  0.00000000000E+00 0. -1.
         11    1    3    3    0    0 -0.11915175065E+02  0.16260346116E+02 -0.67996702071E+00  0.20170091920E+02  0.51100000000E-03 0. -1.
        -11    1    3    3    0    0  0.26335747628E+02  0.18808416614E+02 -0.46854296601E+01  0.32699868349E+02  0.51100000000E-03 0.  1.
        -12    1    3    3    0    0 -0.13792434371E+02 -0.34071520788E+02  0.53023001435E+01  0.37137772705E+02  0.00000000000E+00 0.  1.
</event>
<event>
 7    1  0.1971192E-015  0.9000760E+02  0.7816164E-02  0.1186339E+00
        -11   -1    0    0    0    0  0.00000000000E+00  0.00000000000E+00  0.45593999997E+02  0.45594000000E+02  0.51100000000E-03 0.  1.
         11   -1    0    0    0    0 -0.00000000000E+00 -0.00000000000E+00 -0.45593999997E+02  0.45594000000E+02  0.51100000000E-03 0. -1.
    9900012    2    1    2    0    0 -0.30138899973E+00 -0.71671526969E+00  0.88815339762E+00  0.90007604912E+02  0.89999864496E+02 0.  0.
         12    1    1    2    0    0  0.30138899973E+00  0.71671526969E+00 -0.88815339762E+00  0.11803950884E+01  0.00000000000E+00 0. -1.
         11    1    3    3    0    0 -0.11262901557E+01  0.56841141251E+01 -0.67641623955E+01  0.89068274978E+01  0.51100000000E-03 0. -1.
        -11    1    3    3    0    0  0.22696104752E+02  0.12422315164E+02  0.33522542129E+02  0.42346049592E+02  0.51100000000E-03 0.  1.
         12    1    3    3    0    0 -0.21871203596E+02 -0.18823144559E+02 -0.25870226336E+02  0.38754727822E+02  0.00000000000E+00 0. -1.
</event>
<event>
 7    1  0.1971192E-015  0.9000775E+02  0.7816164E-02  0.1186339E+00
        -11   -1    0    0    0    0  0.00000000000E+00  0.00000000000E+00  0.45593999997E+02  0.45594000000E+02  0.51100000000E-03 0.  1.
         11   -1    0    0    0    0 -0.00000000000E+00 -0.00000000000E+00 -0.45593999997E+02  0.45594000000E+02  0.51100000000E-03 0. -1.
    9900012    2    1    2    0    0  0.25992285159E+00  0.11512291411E+01  0.96886664348E-02  0.90007753291E+02  0.90000014834E+02 0.  0.
         12    1    1    2    0    0 -0.25992285159E+00 -0.11512291411E+01 -0.96886664348E-02  0.11802467091E+01  0.00000000000E+00 0. -1.
         11    1    3    3    0    0  0.13839975390E+02 -0.15069318777E+01  0.18731840659E+01  0.14047226818E+02  0.51100000000E-03 0. -1.
        -11    1    3    3    0    0  0.17977671474E+02 -0.10538008895E+02  0.24943002862E+02  0.32502302921E+02  0.51100000000E-03 0.  1.
         12    1    3    3    0    0 -0.31557724013E+02  0.13196169914E+02 -0.26806498261E+02  0.43458223552E+02  0.00000000000E+00 0. -1.
</event>
<event>
 7    1  0.1971192E-015  0.9000773E+02  0.7816164E-02  0.1186339E+00
        -11   -1    0    0    0    0  0.00000000000E+00  0.00000000000E+00  0.45593999997E+02  0.45594000000E+02  0.51100000000E-03 0. -1.
         11   -1    0    0    0    0 -0.00000000000E+00 -0.00000000000E+00 -0.45593999997E+02  0.45594000000E+02  0.51100000000E-03 0.  1.
    9900012    2    1    2    0    0 -0.38604928186E+00  0.33581130458E+00  0.10635978561E+01  0.90007727286E+02  0.89999988486E+02 0.  0.
         12    1    1    2    0    0  0.38604928186E+00 -0.33581130458E+00 -0.10635978561E+01  0.11802727141E+01  0.00000000000E+00 0. -1.
         11    1    3    3    0    0 -0.12584349250E+02 -0.31615463529E+02  0.18553211287E+02  0.38757257766E+02  0.51100000000E-03 0. -1.
        -11    1    3    3    0    0  0.26434511163E+01 -0.72714178546E+01 -0.38243823955E+01  0.86305997700E+01  0.51100000000E-03 0.  1.
        -12    1    3    3    0    0  0.95548488520E+01  0.39222692688E+02 -0.13665231035E+02  0.42619869750E+02  0.00000000000E+00 0.  1.
</event>
<event>
 7    1  0.1971192E-015  0.9000804E+02  0.7816164E-02  0.1186338E+00
        -11   -1    0    0    0    0  0.00000000000E+00  0.00000000000E+00  0.45593999997E+02  0.45594000000E+02  0.51100000000E-03 0.  1.
         11   -1    0    0    0    0 -0.00000000000E+00 -0.00000000000E+00 -0.45593999997E+02  0.45594000000E+02  0.51100000000E-03 0. -1.
    9900012    2    1    2    0    0  0.10597892731E+01  0.18855592846E+00  0.48332881473E+00  0.90008036702E+02  0.90000301986E+02 0.  0.
         12    1    1    2    0    0 -0.10597892731E+01 -0.18855592846E+00 -0.48332881473E+00  0.11799632980E+01  0.00000000000E+00 0. -1.
         11    1    3    3    0    0 -0.29482550165E+02 -0.13757094881E+02 -0.12378869945E+02  0.34809694701E+02  0.51100000000E-03 0. -1.
        -11    1    3    3    0    0 -0.48397132483E+01 -0.75278791977E+01 -0.48500903939E+01  0.10179153532E+02  0.51100000000E-03 0.  1.
        -12    1    3    3    0    0  0.35382052687E+02  0.21473530007E+02  0.17712289154E+02  0.45019188469E+02  0.00000000000E+00 0.  1.
</event>
<event>
 7    1  0.1971192E-015  0.9000776E+02  0.7816164E-02  0.1186339E+00
        -11   -1    0    0    0    0  0.00000000000E+00  0.00000000000E+00  0.45593999997E+02  0.45594000000E+02  0.51100000000E-03 0.  1.
         11   -1    0    0    0    0 -0.00000000000E+00 -0.00000000000E+00 -0.45593999997E+02  0.45594000000E+02  0.51100000000E-03 0. -1.
    9900012    2    1    2    0    0 -0.10593160103E+01 -0.10564604301E+00  0.50957345778E+00  0.90007755701E+02  0.90000017276E+02 0.  0.
         12    1    1    2    0    0  0.10593160103E+01  0.10564604301E+00 -0.50957345778E+00  0.11802442989E+01  0.00000000000E+00 0. -1.
         11    1    3    3    0    0  0.10334633406E+01  0.24392453970E+02 -0.31513373516E+02  0.39864176497E+02  0.51100000000E-03 0. -1.
        -11    1    3    3    0    0 -0.10297087901E+02 -0.15789297276E+01  0.65525900681E+00  0.10438026775E+02  0.51100000000E-03 0.  1.
        -12    1    3    3    0    0  0.82043085502E+01 -0.22919170286E+02  0.31367687967E+02  0.39705552429E+02  0.00000000000E+00 0.  1.
</event>
<event>
 7    1  0.1971192E-015  0.9000773E+02  0.7816164E-02  0.1186339E+00
        -11   -1    0    0    0    0  0.00000000000E+00  0.00000000000E+00  0.45593999997E+02  0.45594000000E+02  0.51100000000E-03 0.  1.
         11   -1    0    0    0    0 -0.00000000000E+00 -0.00000000000E+00 -0.45593999997E+02  0.45594000000E+02  0.51100000000E-03 0. -1.
    9900012    2    1    2    0    0  0.71236608069E+00  0.64514231673E+00  0.68509777809E+00  0.90007731807E+02  0.89999993067E+02 0.  0.
         12    1    1    2    0    0 -0.71236608069E+00 -0.64514231673E+00 -0.68509777809E+00  0.11802681930E+01  0.00000000000E+00 0. -1.
         11    1    3    3    0    0 -0.37426855946E+01  0.14001730509E+01  0.90639141970E+01  0.99056913370E+01  0.51100000000E-03 0. -1.
        -11    1    3    3    0    0  0.40110088572E+02  0.24098991482E+01  0.76125580792E+01  0.40897162003E+02  0.51100000000E-03 0.  1.
         12    1    3    3    0    0 -0.35655036897E+02 -0.31649298824E+01 -0.15991374498E+02  0.39204878467E+02  0.00000000000E+00 0. -1.
</event>
<event>
 7    1  0.1971192E-015  0.9000757E+02  0.7816164E-02  0.1186339E+00
        -11   -1    0    0    0    0  0.00000000000E+00  0.00000000000E+00  0.45593999997E+02  0.45594000000E+02  0.51100000000E-03 0. -1.
         11   -1    0    0    0    0 -0.00000000000E+00 -0.00000000000E+00 -0.45593999997E+02  0.45594000000E+02  0.51100000000E-03 0.  1.
    9900012    2    1    2    0    0  0.99487032105E+00 -0.37343954901E+00 -0.51399781866E+00  0.90007568803E+02  0.89999827911E+02 0.  0.
         12    1    1    2    0    0 -0.99487032105E+00  0.37343954901E+00  0.51399781866E+00  0.11804311967E+01  0.00000000000E+00 0. -1.
         11    1    3    3    0    0 -0.54678548237E+01 -0.48828256335E+01 -0.78603126072E+01  0.10748206226E+02  0.51100000000E-03 0. -1.
        -11    1    3    3    0    0  0.39678025026E+01  0.11881556800E+02 -0.34495681183E+02  0.36699684865E+02  0.51100000000E-03 0.  1.
         12    1    3    3    0    0  0.24949226422E+01 -0.73721707154E+01  0.41841995971E+02  0.42559677712E+02  0.00000000000E+00 0. -1.
</event>
<event>
 7    1  0.1971192E-015  0.9000773E+02  0.7816164E-02  0.1186339E+00
        -11   -1    0    0    0    0  0.00000000000E+00  0.00000000000E+00  0.45593999997E+02  0.45594000000E+02  0.51100000000E-03 0. -1.
         11   -1    0    0    0    0 -0.00000000000E+00 -0.00000000000E+00 -0.45593999997E+02  0.45594000000E+02  0.51100000000E-03 0.  1.
    9900012    2    1    2    0    0  0.15772951281E+00  0.11691573008E+01 -0.35029886264E-01  0.90007731181E+02  0.89999992432E+02 0.  0.
         12    1    1    2    0    0 -0.15772951281E+00 -0.11691573008E+01  0.35029886264E-01  0.11802688194E+01  0.00000000000E+00 0. -1.
         11    1    3    3    0    0 -0.11525420529E+02  0.15311727894E+02 -0.23618719116E+02  0.30415920542E+02  0.51100000000E-03 0. -1.
        -11    1    3    3    0    0  0.47526912748E+00  0.18652355707E+02  0.20050787058E+01  0.18765835847E+02  0.51100000000E-03 0.  1.
        -12    1    3    3    0    0  0.11207880914E+02 -0.32794926300E+02  0.21578610523E+02  0.40825974792E+02  0.00000000000E+00 0.  1.
</event>
<event>
 7    1  0.1971192E-015  0.9000749E+02  0.7816164E-02  0.1186340E+00
        -11   -1    0    0    0    0  0.00000000000E+00  0.00000000000E+00  0.45593999997E+02  0.45594000000E+02  0.51100000000E-03 0. -1.
         11   -1    0    0    0    0 -0.00000000000E+00 -0.00000000000E+00 -0.45593999997E+02  0.45594000000E+02  0.51100000000E-03 0.  1.
    9900012    2    1    2    0    0 -0.56549652354E+00 -0.47696122744E+00 -0.91996060958E+00  0.90007489156E+02  0.89999747212E+02 0.  0.
         12    1    1    2    0    0  0.56549652354E+00  0.47696122744E+00  0.91996060958E+00  0.11805108444E+01  0.00000000000E+00 0. -1.
         11    1    3    3    0    0 -0.29919354249E+02  0.15459163144E+02 -0.20378485619E+02  0.39362877946E+02  0.51100000000E-03 0. -1.
        -11    1    3    3    0    0 -0.29708187900E+01 -0.89289873894E+01 -0.38646941549E+01  0.10172926878E+02  0.51100000000E-03 0.  1.
        -12    1    3    3    0    0  0.32324676515E+02 -0.70071369825E+01  0.23323219165E+02  0.40471684332E+02  0.00000000000E+00 0.  1.
</event>
<event>
 7    1  0.1971192E-015  0.9000768E+02  0.7816164E-02  0.1186339E+00
        -11   -1    0    0    0    0  0.00000000000E+00  0.00000000000E+00  0.45593999997E+02  0.45594000000E+02  0.51100000000E-03 0. -1.
         11   -1    0    0    0    0 -0.00000000000E+00 -0.00000000000E+00 -0.45593999997E+02  0.45594000000E+02  0.51100000000E-03 0.  1.
    9900012    2    1    2    0    0  0.50489984672E-01  0.11315948183E+01 -0.33181952728E+00  0.90007677896E+02  0.89999938444E+02 0.  0.
         12    1    1    2    0    0 -0.50489984672E-01 -0.11315948183E+01  0.33181952728E+00  0.11803221044E+01  0.00000000000E+00 0. -1.
         11    1    3    3    0    0  0.27816389018E+01  0.23062161275E+02  0.26780298967E+02  0.35451166563E+02  0.51100000000E-03 0. -1.
        -11    1    3    3    0    0 -0.45764007304E+00  0.55817683655E+01  0.80784240898E+01  0.98298783593E+01  0.51100000000E-03 0.  1.
        -12    1    3    3    0    0 -0.22735088441E+01 -0.27512334822E+02 -0.35190542584E+02  0.44726632974E+02  0.00000000000E+00 0.  1.
</event>
<event>
 7    1  0.1971192E-015  0.9000778E+02  0.7816164E-02  0.1186339E+00
        -11   -1    0    0    0    0  0.00000000000E+00  0.00000000000E+00  0.45593999997E+02  0.45594000000E+02  0.51100000000E-03 0.  1.
         11   -1    0    0    0    0 -0.00000000000E+00 -0.00000000000E+00 -0.45593999997E+02  0.45594000000E+02  0.51100000000E-03 0. -1.
    9900012    2    1    2    0    0  0.36962026942E+00 -0.10395792160E+01  0.41900508089E+00  0.90007784194E+02  0.90000046146E+02 0.  0.
         12    1    1    2    0    0 -0.36962026942E+00  0.10395792160E+01 -0.41900508089E+00  0.11802158056E+01  0.00000000000E+00 0. -1.
         11    1    3    3    0    0  0.23660946136E+02  0.32093727298E+02 -0.16696638963E+01  0.39907837347E+02  0.51100000000E-03 0. -1.
        -11    1    3    3    0    0  0.54192692441E+01 -0.34849721708E+01  0.57907380298E+01  0.86629185245E+01  0.51100000000E-03 0.  1.
        -12    1    3    3    0    0 -0.28710595111E+02 -0.29648334344E+02 -0.37020690526E+01  0.41437028323E+02  0.00000000000E+00 0.  1.
</event>
<event>
 7    1  0.1971192E-015  0.9000779E+02  0.7816164E-02  0.1186339E+00
        -11   -1    0    0    0    0  0.00000000000E+00  0.00000000000E+00  0.45593999997E+02  0.45594000000E+02  0.51100000000E-03 0.  1.
         11   -1    0    0    0    0 -0.00000000000E+00 -0.00000000000E+00 -0.45593999997E+02  0.45594000000E+02  0.51100000000E-03 0. -1.
    9900012    2    1    2    0    0 -0.22629483238E+00  0.50871163211E+00  0.10406190664E+01  0.90007794545E+02  0.90000056633E+02 0.  0.
         12    1    1    2    0    0  0.22629483238E+00 -0.50871163211E+00 -0.10406190664E+01  0.11802054555E+01  0.00000000000E+00 0. -1.
         11    1    3    3    0    0  0.35590224211E+02 -0.24334854981E+01 -0.44908610971E+01  0.35954884852E+02  0.51100000000E-03 0. -1.
        -11    1    3    3    0    0  0.74912435171E+01 -0.57632897007E+01 -0.52157228175E+00  0.94660591332E+01  0.51100000000E-03 0.  1.
        -12    1    3    3    0    0 -0.43307762560E+02  0.87054868309E+01  0.60530524452E+01  0.44586850560E+02  0.00000000000E+00 0.  1.
</event>
<event>
 7    1  0.1971192E-015  0.9000770E+02  0.7816164E-02  0.1186339E+00
        -11   -1    0    0    0    0  0.00000000000E+00  0.00000000000E+00  0.45593999997E+02  0.45594000000E+02  0.51100000000E-03 0.  1.
         11   -1    0    0    0    0 -0.00000000000E+00 -0.00000000000E+00 -0.45593999997E+02  0.45594000000E+02  0.51100000000E-03 0. -1.
    9900012    2    1    2    0    0 -0.91792449813E+00  0.48783541619E+00  0.55905987038E+00  0.90007696346E+02  0.89999957138E+02 0.  0.
         12    1    1    2    0    0  0.91792449813E+00 -0.48783541619E+00 -0.55905987038E+00  0.11803036542E+01  0.00000000000E+00 0. -1.
         11    1    3    3    0    0  0.63850338721E+01  0.61034948174E+01 -0.39170785093E+01  0.96625468094E+01  0.51100000000E-03 0. -1.
        -11    1    3    3    0    0 -0.40859341827E+02 -0.31674257093E+01 -0.12246959512E+02  0.42772729837E+02  0.51100000000E-03 0.  1.
         12    1    3    3    0    0  0.33556383457E+02 -0.24482336919E+01  0.16723097892E+02  0.37572419699E+02  0.00000000000E+00 0. -1.
</event>
<event>
 7    1  0.1971192E-015  0.9000747E+02  0.7816164E-02  0.1186340E+00
        -11   -1    0    0    0    0  0.00000000000E+00  0.00000000000E+00  0.45593999997E+02  0.45594000000E+02  0.51100000000E-03 0. -1.
         11   -1    0    0    0    0 -0.00000000000E+00 -0.00000000000E+00 -0.45593999997E+02  0.45594000000E+02  0.51100000000E-03 0.  1.
    9900012    2    1    2    0    0  0.15345536493E+00 -0.11703989429E+01 -0.16575370273E-01  0.90007467503E+02  0.89999725273E+02 0.  0.
         12    1    1    2    0    0 -0.15345536493E+00  0.11703989429E+01  0.16575370273E-01  0.11805324974E+01  0.00000000000E+00 0. -1.
         11    1    3    3    0    0 -0.94735014585E-01 -0.39772586194E+01 -0.85198136744E+01  0.94029137057E+01  0.51100000000E-03 0. -1.
        -11    1    3    3    0    0 -0.10912456799E+02 -0.22619250117E+02 -0.26111382793E+02  0.36228669599E+02  0.51100000000E-03 0.  1.
         12    1    3    3    0    0  0.11160647179E+02  0.25426109793E+02  0.34614621097E+02  0.44375884198E+02  0.00000000000E+00 0. -1.
</event>
<event>
 7    1  0.1971192E-015  0.9000777E+02  0.7816164E-02  0.1186339E+00
        -11   -1    0    0    0    0  0.00000000000E+00  0.00000000000E+00  0.45593999997E+02  0.45594000000E+02  0.51100000000E-03 0.  1.
         11   -1    0    0    0    0 -0.00000000000E+00 -0.00000000000E+00 -0.45593999997E+02  0.45594000000E+02  0.51100000000E-03 0. -1.
    9900012    2    1    2    0    0  0.54964102770E+00  0.82615953618E+00  0.63899110868E+00  0.90007765076E+02  0.90000026775E+02 0.  0.
         12    1    1    2    0    0 -0.54964102770E+00 -0.82615953618E+00 -0.63899110868E+00  0.11802349239E+01  0.00000000000E+00 0. -1.
         11    1    3    3    0    0  0.24978641521E+02 -0.26119405528E+02 -0.19374462025E+02  0.41006409942E+02  0.51100000000E-03 0. -1.
        -11    1    3    3    0    0 -0.68984043031E+01 -0.47348618289E+01  0.53876992669E+01  0.99515929438E+01  0.51100000000E-03 0.  1.
        -12    1    3    3    0    0 -0.17530596190E+02  0.31680426893E+02  0.14625753867E+02  0.39049762190E+02  0.00000000000E+00 0.  1.
</event>
<event>
 7    1  0.1971192E-015  0.9000776E+02  0.7816164E-02  0.1186339E+00
        -11   -1    0    0    0    0  0.00000000000E+00  0.00000000000E+00  0.45593999997E+02  0.45594000000E+02  0.51100000000E-03 0.  1.
         11   -1    0    0    0    0 -0.00000000000E+00 -0.00000000000E+00 -0.45593999997E+02  0.45594000000E+02  0.51100000000E-03 0. -1.
    9900012    2    1    2    0    0 -0.11733064318E+01 -0.11216530730E+00  0.61216534788E-01  0.90007755744E+02  0.90000017320E+02 0.  0.
         12    1    1    2    0    0  0.11733064318E+01  0.11216530730E+00 -0.61216534788E-01  0.11802442558E+01  0.00000000000E+00 0. -1.
         11    1    3    3    0    0 -0.93819062005E+01  0.60285851097E+01  0.99957676194E+01  0.14975959834E+02  0.51100000000E-03 0. -1.
        -11    1    3    3    0    0 -0.18791266347E+02 -0.24184072266E+02  0.14987426647E+02  0.34096979340E+02  0.51100000000E-03 0.  1.
         12    1    3    3    0    0  0.26999866116E+02  0.18043321849E+02 -0.24921977732E+02  0.40934816571E+02  0.00000000000E+00 0. -1.
</event>
<event>
 7    1  0.1971192E-015  0.9000824E+02  0.7816164E-02  0.1186338E+00
        -11   -1    0    0    0    0  0.00000000000E+00  0.00000000000E+00  0.45593999997E+02  0.45594000000E+02  0.51100000000E-03 0. -1.
         11   -1    0    0    0    0 -0.00000000000E+00 -0.00000000000E+00 -0.45593999997E+02  0.45594000000E+02  0.51100000000E-03 0.  1.
    9900012    2    1    2    0    0  0.17201766348E+00  0.54743584335E+00 -0.10308026334E+01  0.90008241487E+02  0.90000509474E+02 0.  0.
         12    1    1    2    0    0 -0.17201766348E+00 -0.54743584335E+00  0.10308026334E+01  0.11797585126E+01  0.00000000000E+00 0. -1.
         11    1    3    3    0    0  0.13829357801E+01  0.24594122703E+02  0.23231466431E+02  0.33859775778E+02  0.51100000000E-03 0. -1.
        -11    1    3    3    0    0  0.20159958683E+01 -0.73696555923E+01  0.13066632139E+02  0.15136477087E+02  0.51100000000E-03 0.  1.
        -12    1    3    3    0    0 -0.32269139850E+01 -0.16677031268E+02 -0.37328901203E+02  0.41011988623E+02  0.00000000000E+00 0.  1.
</event>
<event>
 7    1  0.1971192E-015  0.9000782E+02  0.7816164E-02  0.1186339E+00
        -11   -1    0    0    0    0  0.00000000000E+00  0.00000000000E+00  0.45593999997E+02  0.45594000000E+02  0.51100000000E-03 0. -1.
         11   -1    0    0    0    0 -0.00000000000E+00 -0.00000000000E+00 -0.45593999997E+02  0.45594000000E+02  0.51100000000E-03 0.  1.
    9900012    2    1    2    0    0  0.10725476845E+01 -0.15111909579E+00 -0.46865700538E+00  0.90007815732E+02  0.90000078100E+02 0.  0.
         12    1    1    2    0    0 -0.10725476845E+01  0.15111909579E+00  0.46865700538E+00  0.11801842676E+01  0.00000000000E+00 0. -1.
         11    1    3    3    0    0  0.11488094620E+02  0.31456564143E+01 -0.13451198900E+01  0.11986693458E+02  0.51100000000E-03 0. -1.
        -11    1    3    3    0    0  0.32963322183E+02 -0.32599519960E+01  0.79614146505E+01  0.34067462774E+02  0.51100000000E-03 0.  1.
         12    1    3    3    0    0 -0.43378869118E+02 -0.36823513994E-01 -0.70849517659E+01  0.43953659501E+02  0.00000000000E+00 0. -1.
</event>
<event>
 7    1  0.1971192E-015  0.9000775E+02  0.7816164E-02  0.1186339E+00
        -11   -1    0    0    0    0  0.00000000000E+00  0.00000000000E+00  0.45593999997E+02  0.45594000000E+02  0.51100000000E-03 0.  1.
         11   -1    0    0    0    0 -0.00000000000E+00 -0.00000000000E+00 -0.45593999997E+02  0.45594000000E+02  0.51100000000E-03 0. -1.
    9900012    2    1    2    0    0  0.71986332470E+00 -0.27780191343E+00  0.89309495724E+00  0.90007747607E+02  0.90000009075E+02 0.  0.
         12    1    1    2    0    0 -0.71986332470E+00  0.27780191343E+00 -0.89309495724E+00  0.11802523933E+01  0.00000000000E+00 0. -1.
         11    1    3    3    0    0 -0.33558796577E+02  0.16651690107E+02  0.13003497812E+02  0.39655549003E+02  0.51100000000E-03 0. -1.
        -11    1    3    3    0    0  0.44533536735E+01  0.56767254730E+01  0.54212823097E+01  0.90248475433E+01  0.51100000000E-03 0.  1.
        -12    1    3    3    0    0  0.29825306228E+02 -0.22606217494E+02 -0.17531685164E+02  0.41327351060E+02  0.00000000000E+00 0.  1.
</event>
<event>
 7    1  0.1971192E-015  0.9000766E+02  0.7816164E-02  0.1186339E+00
        -11   -1    0    0    0    0  0.00000000000E+00  0.00000000000E+00  0.45593999997E+02  0.45594000000E+02  0.51100000000E-03 0.  1.
         11   -1    0    0    0    0 -0.00000000000E+00 -0.00000000000E+00 -0.45593999997E+02  0.45594000000E+02  0.51100000000E-03 0. -1.
    9900012    2    1    2    0    0  0.59414796673E+00  0.17732838348E+00  0.10043598071E+01  0.90007662852E+02  0.89999923201E+02 0.  0.
         12    1    1    2    0    0 -0.59414796673E+00 -0.17732838348E+00 -0.10043598071E+01  0.11803371485E+01  0.00000000000E+00 0. -1.
         11    1    3    3    0    0  0.16879615692E+02  0.36642236582E+02  0.22242343268E+01  0.40404481760E+02  0.51100000000E-03 0. -1.
        -11    1    3    3    0    0  0.12930710152E+01 -0.15556076136E+01  0.89831231674E+01  0.92080643894E+01  0.51100000000E-03 0.  1.
        -12    1    3    3    0    0 -0.17578538740E+02 -0.34909300585E+02 -0.10202997687E+02  0.40395116702E+02  0.00000000000E+00 0.  1.
</event>
<event>
 7    1  0.1971192E-015  0.9000775E+02  0.7816164E-02  0.1186339E+00
        -11   -1    0    0    0    0  0.00000000000E+00  0.00000000000E+00  0.45593999997E+02  0.45594000000E+02  0.51100000000E-03 0. -1.
         11   -1    0    0    0    0 -0.00000000000E+00 -0.00000000000E+00 -0.45593999997E+02  0.45594000000E+02  0.51100000000E-03 0.  1.
    9900012    2    1    2    0    0  0.21654882670E+00 -0.99898674621E+00 -0.59000963898E+00  0.90007754565E+02  0.90000016125E+02 0.  0.
         12    1    1    2    0    0 -0.21654882670E+00  0.99898674621E+00  0.59000963898E+00  0.11802454353E+01  0.00000000000E+00 0. -1.
         11    1    3    3    0    0 -0.74823093187E+01  0.57712245966E+01  0.28511978137E+01  0.98702236712E+01  0.51100000000E-03 0. -1.
        -11    1    3    3    0    0 -0.13695430147E+01  0.33108502377E+02  0.13617294609E+02  0.35825679204E+02  0.51100000000E-03 0.  1.
         12    1    3    3    0    0  0.90684011601E+01 -0.39878713720E+02 -0.17058502061E+02  0.44311851689E+02  0.00000000000E+00 0. -1.
</event>
<event>
 7    1  0.1971192E-015  0.9000771E+02  0.7816164E-02  0.1186339E+00
        -11   -1    0    0    0    0  0.00000000000E+00  0.00000000000E+00  0.45593999997E+02  0.45594000000E+02  0.51100000000E-03 0.  1.
         11   -1    0    0    0    0 -0.00000000000E+00 -0.00000000000E+00 -0.45593999997E+02  0.45594000000E+02  0.51100000000E-03 0. -1.
    9900012    2    1    2    0    0  0.11698410067E+01  0.15176295717E+00 -0.39114100373E-01  0.90007707710E+02  0.89999968652E+02 0.  0.
         12    1    1    2    0    0 -0.11698410067E+01 -0.15176295717E+00  0.39114100373E-01  0.11802922896E+01  0.00000000000E+00 0. -1.
         11    1    3    3    0    0  0.30943786845E+00 -0.27143938227E+02 -0.14655200189E+02  0.30849052288E+02  0.51100000000E-03 0. -1.
        -11    1    3    3    0    0  0.99783353210E+01 -0.84773543766E+01 -0.84920346147E+01  0.15606004138E+02  0.51100000000E-03 0.  1.
        -12    1    3    3    0    0 -0.91179321828E+01  0.35773055561E+02  0.23108120703E+02  0.43552651284E+02  0.00000000000E+00 0.  1.
</event>
<event>
 7    1  0.1971192E-015  0.9000768E+02  0.7816164E-02  0.1186339E+00
        -11   -1    0    0    0    0  0.00000000000E+00  0.00000000000E+00  0.45593999997E+02  0.45594000000E+02  0.51100000000E-03 0.  1.
         11   -1    0    0    0    0 -0.00000000000E+00 -0.00000000000E+00 -0.45593999997E+02  0.45594000000E+02  0.51100000000E-03 0. -1.
    9900012    2    1    2    0    0 -0.44960821444E+00  0.10879407055E+01  0.85914569173E-01  0.90007684856E+02  0.89999945496E+02 0.  0.
         12    1    1    2    0    0  0.44960821444E+00 -0.10879407055E+01 -0.85914569173E-01  0.11803151437E+01  0.00000000000E+00 0. -1.
         11    1    3    3    0    0 -0.12014022163E+02  0.29114103262E+02  0.22382453558E+02  0.38638607180E+02  0.51100000000E-03 0. -1.
        -11    1    3    3    0    0  0.31885831313E+01 -0.20613153039E+00  0.84699399606E+01  0.90525927662E+01  0.51100000000E-03 0.  1.
        -12    1    3    3    0    0  0.83758308171E+01 -0.27820031026E+02 -0.30766478950E+02  0.42316484910E+02  0.00000000000E+00 0.  1.
</event>
<event>
 7    1  0.1971192E-015  0.9000758E+02  0.7816164E-02  0.1186339E+00
        -11   -1    0    0    0    0  0.00000000000E+00  0.00000000000E+00  0.45593999997E+02  0.45594000000E+02  0.51100000000E-03 0. -1.
         11   -1    0    0    0    0 -0.00000000000E+00 -0.00000000000E+00 -0.45593999997E+02  0.45594000000E+02  0.51100000000E-03 0.  1.
    9900012    2    1    2    0    0  0.10830092975E+01  0.12693365604E+00 -0.45206140904E+00  0.90007584476E+02  0.89999843791E+02 0.  0.
         12    1    1    2    0    0 -0.10830092975E+01 -0.12693365604E+00  0.45206140904E+00  0.11804155239E+01  0.00000000000E+00 0. -1.
         11    1    3    3    0    0 -0.77635656942E+01  0.79902279145E+01  0.82254221811E+01  0.13848258545E+02  0.51100000000E-03 0. -1.
        -11    1    3    3    0    0  0.28209244136E+02  0.38261071248E+01  0.23440853497E+02  0.36876471677E+02  0.51100000000E-03 0.  1.
         12    1    3    3    0    0 -0.19362669144E+02 -0.11689401383E+02 -0.32118337087E+02  0.39282854254E+02  0.00000000000E+00 0. -1.
</event>
<event>
 7    1  0.1971192E-015  0.9000769E+02  0.7816164E-02  0.1186339E+00
        -11   -1    0    0    0    0  0.00000000000E+00  0.00000000000E+00  0.45593999997E+02  0.45594000000E+02  0.51100000000E-03 0.  1.
         11   -1    0    0    0    0 -0.00000000000E+00 -0.00000000000E+00 -0.45593999997E+02  0.45594000000E+02  0.51100000000E-03 0. -1.
    9900012    2    1    2    0    0  0.38819240297E+00  0.58397772208E+00  0.94942552159E+00  0.90007689811E+02  0.89999950516E+02 0.  0.
         12    1    1    2    0    0 -0.38819240297E+00 -0.58397772208E+00 -0.94942552159E+00  0.11803101892E+01  0.00000000000E+00 0. -1.
         11    1    3    3    0    0  0.85553538763E+01  0.29742906880E+02 -0.23901316453E+02  0.39103804394E+02  0.51100000000E-03 0. -1.
        -11    1    3    3    0    0 -0.96570475166E+01  0.32588674295E+01  0.27398757524E+00  0.10195776239E+02  0.51100000000E-03 0.  1.
        -12    1    3    3    0    0  0.14898860433E+01 -0.32417796587E+02  0.24576754400E+02  0.40708109178E+02  0.00000000000E+00 0.  1.
</event>
<event>
 7    1  0.1971192E-015  0.9000763E+02  0.7816164E-02  0.1186339E+00
        -11   -1    0    0    0    0  0.00000000000E+00  0.00000000000E+00  0.45593999997E+02  0.45594000000E+02  0.51100000000E-03 0.  1.
         11   -1    0    0    0    0 -0.00000000000E+00 -0.00000000000E+00 -0.45593999997E+02  0.45594000000E+02  0.51100000000E-03 0. -1.
    9900012    2    1    2    0    0  0.41154055607E+00  0.11254836041E+00  0.11005654597E+01  0.90007628409E+02  0.89999888304E+02 0.  0.
         12    1    1    2    0    0 -0.41154055607E+00 -0.11254836041E+00 -0.11005654597E+01  0.11803715914E+01  0.00000000000E+00 0. -1.
         11    1    3    3    0    0 -0.33545436339E+02  0.24390026807E+02 -0.87213468508E+00  0.41484097266E+02  0.51100000000E-03 0. -1.
        -11    1    3    3    0    0  0.42045632380E+01 -0.80635118269E+00  0.90139981897E+01  0.99790138730E+01  0.51100000000E-03 0.  1.
        -12    1    3    3    0    0  0.29752413657E+02 -0.23471127263E+02 -0.70412980449E+01  0.38544517270E+02  0.00000000000E+00 0.  1.
</event>
<event>
 7    1  0.1971192E-015  0.9000778E+02  0.7816164E-02  0.1186339E+00
        -11   -1    0    0    0    0  0.00000000000E+00  0.00000000000E+00  0.45593999997E+02  0.45594000000E+02  0.51100000000E-03 0. -1.
         11   -1    0    0    0    0 -0.00000000000E+00 -0.00000000000E+00 -0.45593999997E+02  0.45594000000E+02  0.51100000000E-03 0.  1.
    9900012    2    1    2    0    0 -0.68611564814E+00 -0.17242336589E+00 -0.94468683070E+00  0.90007780653E+02  0.90000042557E+02 0.  0.
         12    1    1    2    0    0  0.68611564814E+00  0.17242336589E+00  0.94468683070E+00  0.11802193473E+01  0.00000000000E+00 0. -1.
         11    1    3    3    0    0 -0.15294006196E+02  0.35187576388E+02 -0.62009306370E+00  0.38372603160E+02  0.51100000000E-03 0. -1.
        -11    1    3    3    0    0 -0.56370927704E+00  0.35596469101E+01  0.82402926196E+01  0.89939578046E+01  0.51100000000E-03 0.  1.
        -12    1    3    3    0    0  0.15171599824E+02 -0.38919646664E+02 -0.85648863866E+01  0.42641219688E+02  0.00000000000E+00 0.  1.
</event>
<event>
 7    1  0.1971192E-015  0.9000774E+02  0.7816164E-02  0.1186339E+00
        -11   -1    0    0    0    0  0.00000000000E+00  0.00000000000E+00  0.45593999997E+02  0.45594000000E+02  0.51100000000E-03 0.  1.
         11   -1    0    0    0    0 -0.00000000000E+00 -0.00000000000E+00 -0.45593999997E+02  0.45594000000E+02  0.51100000000E-03 0. -1.
    9900012    2    1    2    0    0 -0.94077352773E+00  0.25276507952E+00  0.66637840775E+00  0.90007743588E+02  0.90000005003E+02 0.  0.
         12    1    1    2    0    0  0.94077352773E+00 -0.25276507952E+00 -0.66637840775E+00  0.11802564121E+01  0.00000000000E+00 0. -1.
         11    1    3    3    0    0  0.74493578472E+01  0.24714231300E+01 -0.50959701030E+01  0.93578724171E+01  0.51100000000E-03 0. -1.
        -11    1    3    3    0    0  0.91483471700E+01  0.33340307081E+02  0.18233079795E+02  0.39085976146E+02  0.51100000000E-03 0.  1.
         12    1    3    3    0    0 -0.17538478545E+02 -0.35558965131E+02 -0.12470731284E+02  0.41563895025E+02  0.00000000000E+00 0. -1.
</event>
<event>
 7    1  0.1971192E-015  0.9000777E+02  0.7816164E-02  0.1186339E+00
        -11   -1    0    0    0    0  0.00000000000E+00  0.00000000000E+00  0.45593999997E+02  0.45594000000E+02  0.51100000000E-03 0.  1.
         11   -1    0    0    0    0 -0.00000000000E+00 -0.00000000000E+00 -0.45593999997E+02  0.45594000000E+02  0.51100000000E-03 0. -1.
    9900012    2    1    2    0    0 -0.10024687076E+00 -0.69288883113E+00  0.95016050224E+00  0.90007767249E+02  0.90000028976E+02 0.  0.
         12    1    1    2    0    0  0.10024687076E+00  0.69288883113E+00 -0.95016050224E+00  0.11802327514E+01  0.00000000000E+00 0. -1.
         11    1    3    3    0    0 -0.65189092925E+01  0.47198743075E+01 -0.45304756788E+00  0.80609332091E+01  0.51100000000E-03 0. -1.
        -11    1    3    3    0    0 -0.30040141157E+02  0.19793542441E+02  0.87362762946E+01  0.37020493336E+02  0.51100000000E-03 0.  1.
         12    1    3    3    0    0  0.36458803579E+02 -0.25206305580E+02 -0.73330682244E+01  0.44926340703E+02  0.00000000000E+00 0. -1.
</event>
<event>
 7    1  0.1971192E-015  0.9000770E+02  0.7816164E-02  0.1186339E+00
        -11   -1    0    0    0    0  0.00000000000E+00  0.00000000000E+00  0.45593999997E+02  0.45594000000E+02  0.51100000000E-03 0.  1.
         11   -1    0    0    0    0 -0.00000000000E+00 -0.00000000000E+00 -0.45593999997E+02  0.45594000000E+02  0.51100000000E-03 0. -1.
    9900012    2    1    2    0    0  0.49414001111E+00  0.10262162475E+01  0.30951929141E+00  0.90007704982E+02  0.89999965888E+02 0.  0.
         12    1    1    2    0    0 -0.49414001111E+00 -0.10262162475E+01 -0.30951929141E+00  0.11802950178E+01  0.00000000000E+00 0. -1.
         11    1    3    3    0    0 -0.48802352197E+01  0.40795801591E+01 -0.59041385340E+00  0.63881342232E+01  0.51100000000E-03 0. -1.
        -11    1    3    3    0    0 -0.12818436754E+02  0.18236026539E+02  0.33754079213E+02  0.40450004308E+02  0.51100000000E-03 0.  1.
         12    1    3    3    0    0  0.18192811985E+02 -0.21289390451E+02 -0.32854146068E+02  0.43169566451E+02  0.00000000000E+00 0. -1.
</event>
<event>
 7    1  0.1971192E-015  0.9000770E+02  0.7816164E-02  0.1186339E+00
        -11   -1    0    0    0    0  0.00000000000E+00  0.00000000000E+00  0.45593999997E+02  0.45594000000E+02  0.51100000000E-03 0. -1.
         11   -1    0    0    0    0 -0.00000000000E+00 -0.00000000000E+00 -0.45593999997E+02  0.45594000000E+02  0.51100000000E-03 0.  1.
    9900012    2    1    2    0    0  0.81842251879E+00  0.85040928240E+00  0.93223548628E-02  0.90007704159E+02  0.89999965054E+02 0.  0.
         12    1    1    2    0    0 -0.81842251879E+00 -0.85040928240E+00 -0.93223548628E-02  0.11802958414E+01  0.00000000000E+00 0. -1.
         11    1    3    3    0    0  0.19363680103E+02 -0.25336443014E+02  0.18935126222E+02  0.37086742335E+02  0.51100000000E-03 0. -1.
        -11    1    3    3    0    0  0.95262092685E+01 -0.16645970458E+01 -0.18407796011E+01  0.98441869219E+01  0.51100000000E-03 0.  1.
        -12    1    3    3    0    0 -0.28071466853E+02  0.27851449342E+02 -0.17085024266E+02  0.43076774901E+02  0.00000000000E+00 0.  1.
</event>
<event>
 7    1  0.1971192E-015  0.9000779E+02  0.7816164E-02  0.1186339E+00
        -11   -1    0    0    0    0  0.00000000000E+00  0.00000000000E+00  0.45593999997E+02  0.45594000000E+02  0.51100000000E-03 0. -1.
         11   -1    0    0    0    0 -0.00000000000E+00 -0.00000000000E+00 -0.45593999997E+02  0.45594000000E+02  0.51100000000E-03 0.  1.
    9900012    2    1    2    0    0 -0.11753938006E+01 -0.96832007752E-01  0.44277611375E-01  0.90007793437E+02  0.90000055510E+02 0.  0.
         12    1    1    2    0    0  0.11753938006E+01  0.96832007752E-01 -0.44277611375E-01  0.11802065629E+01  0.00000000000E+00 0. -1.
         11    1    3    3    0    0  0.46767015864E+01 -0.43876918740E+01  0.15756521681E+02  0.17011506501E+02  0.51100000000E-03 0. -1.
        -11    1    3    3    0    0 -0.30803088006E+02  0.60484122051E+00 -0.30834403777E+02  0.43588490685E+02  0.51100000000E-03 0.  1.
         12    1    3    3    0    0  0.24950992619E+02  0.36860186457E+01  0.15122159708E+02  0.29407796251E+02  0.00000000000E+00 0. -1.
</event>
<event>
 7    1  0.1971192E-015  0.9000735E+02  0.7816164E-02  0.1186340E+00
        -11   -1    0    0    0    0  0.00000000000E+00  0.00000000000E+00  0.45593999997E+02  0.45594000000E+02  0.51100000000E-03 0.  1.
         11   -1    0    0    0    0 -0.00000000000E+00 -0.00000000000E+00 -0.45593999997E+02  0.45594000000E+02  0.51100000000E-03 0. -1.
    9900012    2    1    2    0    0  0.35626478165E+00  0.10225969232E+01  0.47042748412E+00  0.90007351416E+02  0.89999607653E+02 0.  0.
         12    1    1    2    0    0 -0.35626478165E+00 -0.10225969232E+01 -0.47042748412E+00  0.11806485844E+01  0.00000000000E+00 0. -1.
         11    1    3    3    0    0  0.38545493989E+01  0.84082236471E+01 -0.82403518360E+01  0.12387864005E+02  0.51100000000E-03 0. -1.
        -11    1    3    3    0    0  0.14657015797E+02  0.15541198326E+02  0.33197483156E+02  0.39476953348E+02  0.51100000000E-03 0.  1.
         12    1    3    3    0    0 -0.18155300414E+02 -0.22926825049E+02 -0.24486703836E+02  0.38142534063E+02  0.00000000000E+00 0. -1.
</event>
<event>
 7    1  0.1971192E-015  0.9000729E+02  0.7816164E-02  0.1186340E+00
        -11   -1    0    0    0    0  0.00000000000E+00  0.00000000000E+00  0.45593999997E+02  0.45594000000E+02  0.51100000000E-03 0. -1.
         11   -1    0    0    0    0 -0.00000000000E+00 -0.00000000000E+00 -0.45593999997E+02  0.45594000000E+02  0.51100000000E-03 0.  1.
    9900012    2    1    2    0    0  0.14781432791E+00  0.11215735833E+01  0.33806680788E+00  0.90007294472E+02  0.89999549957E+02 0.  0.
         12    1    1    2    0    0 -0.14781432791E+00 -0.11215735833E+01 -0.33806680788E+00  0.11807055284E+01  0.00000000000E+00 0. -1.
         11    1    3    3    0    0  0.24343000069E+02  0.20404750268E+02  0.17243584786E+02  0.36142450144E+02  0.51100000000E-03 0. -1.
        -11    1    3    3    0    0 -0.19022885593E+01  0.33292265439E+01  0.10964239526E+02  0.11615377729E+02  0.51100000000E-03 0.  1.
        -12    1    3    3    0    0 -0.22292897182E+02 -0.22612403228E+02 -0.27869757504E+02  0.42249466599E+02  0.00000000000E+00 0.  1.
</event>
<event>
 7    1  0.1971192E-015  0.9000779E+02  0.7816164E-02  0.1186339E+00
        -11   -1    0    0    0    0  0.00000000000E+00  0.00000000000E+00  0.45593999997E+02  0.45594000000E+02  0.51100000000E-03 0.  1.
         11   -1    0    0    0    0 -0.00000000000E+00 -0.00000000000E+00 -0.45593999997E+02  0.45594000000E+02  0.51100000000E-03 0. -1.
    9900012    2    1    2    0    0 -0.10343115638E+00 -0.11119332965E+01  0.38182974366E+00  0.90007793402E+02  0.90000055475E+02 0.  0.
         12    1    1    2    0    0  0.10343115638E+00  0.11119332965E+01 -0.38182974366E+00  0.11802065977E+01  0.00000000000E+00 0. -1.
         11    1    3    3    0    0 -0.42131624951E+01 -0.88903676890E+01  0.25680355892E+01  0.10167801282E+02  0.51100000000E-03 0. -1.
        -11    1    3    3    0    0 -0.24323104961E+02 -0.17817170705E+02  0.19458826814E+02  0.35884689606E+02  0.51100000000E-03 0.  1.
         12    1    3    3    0    0  0.28432836299E+02  0.25595605098E+02 -0.21645032659E+02  0.43955302515E+02  0.00000000000E+00 0. -1.
</event>
<event>
 7    1  0.1971192E-015  0.9000774E+02  0.7816164E-02  0.1186339E+00
        -11   -1    0    0    0    0  0.00000000000E+00  0.00000000000E+00  0.45593999997E+02  0.45594000000E+02  0.51100000000E-03 0.  1.
         11   -1    0    0    0    0 -0.00000000000E+00 -0.00000000000E+00 -0.45593999997E+02  0.45594000000E+02  0.51100000000E-03 0. -1.
    9900012    2    1    2    0    0 -0.91673230828E+00  0.69677007640E+00  0.25907701491E+00  0.90007742586E+02  0.90000003988E+02 0.  0.
         12    1    1    2    0    0  0.91673230828E+00 -0.69677007640E+00 -0.25907701491E+00  0.11802574143E+01  0.00000000000E+00 0. -1.
         11    1    3    3    0    0 -0.93815278698E+01 -0.34970701761E+00  0.51607839442E+00  0.94022176821E+01  0.51100000000E-03 0. -1.
        -11    1    3    3    0    0  0.31981193876E+02 -0.10095167784E+02  0.26901095537E+02  0.42992768179E+02  0.51100000000E-03 0.  1.
         12    1    3    3    0    0 -0.23516398315E+02  0.11141644879E+02 -0.27158096917E+02  0.37612756725E+02  0.00000000000E+00 0. -1.
</event>
<event>
 7    1  0.1971192E-015  0.9000792E+02  0.7816164E-02  0.1186339E+00
        -11   -1    0    0    0    0  0.00000000000E+00  0.00000000000E+00  0.45593999997E+02  0.45594000000E+02  0.51100000000E-03 0. -1.
         11   -1    0    0    0    0 -0.00000000000E+00 -0.00000000000E+00 -0.45593999997E+02  0.45594000000E+02  0.51100000000E-03 0.  1.
    9900012    2    1    2    0    0 -0.61373682314E+00  0.70474934045E+00 -0.72059330860E+00  0.90007915580E+02  0.90000179266E+02 0.  0.
         12    1    1    2    0    0  0.61373682314E+00 -0.70474934045E+00  0.72059330860E+00  0.11800844196E+01  0.00000000000E+00 0. -1.
         11    1    3    3    0    0 -0.93971704896E+01  0.12155389526E+01 -0.26645882854E+01  0.98429862922E+01  0.51100000000E-03 0. -1.
        -11    1    3    3    0    0  0.78672624577E+00 -0.39894574921E+02 -0.46942300721E+00  0.39905092463E+02  0.51100000000E-03 0.  1.
         12    1    3    3    0    0  0.79967074207E+01  0.39383785309E+02  0.24134179840E+01  0.40259836825E+02  0.00000000000E+00 0. -1.
</event>
<event>
 7    1  0.2544141E-015  0.9000789E+02  0.7816164E-02  0.1186339E+00
        -11   -1    0    0    0    0  0.00000000000E+00  0.00000000000E+00  0.45593999997E+02  0.45594000000E+02  0.51100000000E-03 0. -1.
         11   -1    0    0    0    0 -0.00000000000E+00 -0.00000000000E+00 -0.45593999997E+02  0.45594000000E+02  0.51100000000E-03 0.  1.
    9900012    2    1    2    0    0 -0.23723837428E+00  0.10413231679E+01 -0.50201231899E+00  0.90007893075E+02  0.90000156463E+02 0.  0.
         12    1    1    2    0    0  0.23723837428E+00 -0.10413231679E+01  0.50201231899E+00  0.11801069251E+01  0.00000000000E+00 0. -1.
         11    1    3    3    0    0  0.19954645753E+02 -0.60299380551E+01  0.36082639281E+02  0.41671391839E+02  0.51100000000E-03 0. -1.
        -11    1    3    3    0    0  0.47809780498E+01 -0.12607805577E+01 -0.85638074250E+01  0.98886862930E+01  0.51100000000E-03 0.  1.
        -12    1    3    3    0    0 -0.24972862177E+02  0.83320417807E+01 -0.28020844175E+02  0.38447814942E+02  0.00000000000E+00 0.  1.
</event>
<event>
 7    1  0.1971192E-015  0.9000780E+02  0.7816164E-02  0.1186339E+00
        -11   -1    0    0    0    0  0.00000000000E+00  0.00000000000E+00  0.45593999997E+02  0.45594000000E+02  0.51100000000E-03 0.  1.
         11   -1    0    0    0    0 -0.00000000000E+00 -0.00000000000E+00 -0.45593999997E+02  0.45594000000E+02  0.51100000000E-03 0. -1.
    9900012    2    1    2    0    0 -0.75436453644E+00 -0.36146743672E+00  0.83255357333E+00  0.90007800858E+02  0.90000063030E+02 0.  0.
         12    1    1    2    0    0  0.75436453644E+00  0.36146743672E+00 -0.83255357333E+00  0.11801991417E+01  0.00000000000E+00 0. -1.
         11    1    3    3    0    0  0.55961225169E+01 -0.60912785318E+01  0.62833014457E+01  0.10387499155E+02  0.51100000000E-03 0. -1.
        -11    1    3    3    0    0 -0.15021308176E+02  0.74823267404E+01  0.34679550361E+02  0.38526563904E+02  0.51100000000E-03 0.  1.
         12    1    3    3    0    0  0.86708211231E+01 -0.17525156453E+01 -0.40130298233E+02  0.41093737799E+02  0.00000000000E+00 0. -1.
</event>
<event>
 7    1  0.1971192E-015  0.9000776E+02  0.7816164E-02  0.1186339E+00
        -11   -1    0    0    0    0  0.00000000000E+00  0.00000000000E+00  0.45593999997E+02  0.45594000000E+02  0.51100000000E-03 0. -1.
         11   -1    0    0    0    0 -0.00000000000E+00 -0.00000000000E+00 -0.45593999997E+02  0.45594000000E+02  0.51100000000E-03 0.  1.
    9900012    2    1    2    0    0  0.19021630598E+00 -0.94697095755E+00 -0.67824799142E+00  0.90007764187E+02  0.90000025874E+02 0.  0.
         12    1    1    2    0    0 -0.19021630598E+00  0.94697095755E+00  0.67824799142E+00  0.11802358135E+01  0.00000000000E+00 0. -1.
         11    1    3    3    0    0  0.14040892096E+02 -0.46920597003E+01  0.36580460168E+01  0.15249372971E+02  0.51100000000E-03 0. -1.
        -11    1    3    3    0    0  0.15326026631E+02 -0.13275592082E+02 -0.27231985395E+02  0.33951575313E+02  0.51100000000E-03 0.  1.
         12    1    3    3    0    0 -0.29176702422E+02  0.17020680825E+02  0.22895691387E+02  0.40806815902E+02  0.00000000000E+00 0. -1.
</event>
<event>
 7    1  0.1971192E-015  0.9000778E+02  0.7816164E-02  0.1186339E+00
        -11   -1    0    0    0    0  0.00000000000E+00  0.00000000000E+00  0.45593999997E+02  0.45594000000E+02  0.51100000000E-03 0.  1.
         11   -1    0    0    0    0 -0.00000000000E+00 -0.00000000000E+00 -0.45593999997E+02  0.45594000000E+02  0.51100000000E-03 0. -1.
    9900012    2    1    2    0    0 -0.82907558038E+00 -0.46495168346E+00  0.69955174086E+00  0.90007780095E+02  0.90000041992E+02 0.  0.
         12    1    1    2    0    0  0.82907558038E+00  0.46495168346E+00 -0.69955174086E+00  0.11802199050E+01  0.00000000000E+00 0. -1.
         11    1    3    3    0    0  0.21106838279E+02  0.85204864081E+01 -0.31126228062E+02  0.38560853004E+02  0.51100000000E-03 0. -1.
        -11    1    3    3    0    0  0.39719745366E+01 -0.95553016647E+01 -0.73434491003E-01  0.10348225186E+02  0.51100000000E-03 0.  1.
        -12    1    3    3    0    0 -0.25907888396E+02  0.56986357312E+00  0.31899214294E+02  0.41098701904E+02  0.00000000000E+00 0.  1.
</event>
<event>
 7    1  0.1971192E-015  0.9000774E+02  0.7816164E-02  0.1186339E+00
        -11   -1    0    0    0    0  0.00000000000E+00  0.00000000000E+00  0.45593999997E+02  0.45594000000E+02  0.51100000000E-03 0.  1.
         11   -1    0    0    0    0 -0.00000000000E+00 -0.00000000000E+00 -0.45593999997E+02  0.45594000000E+02  0.51100000000E-03 0. -1.
    9900012    2    1    2    0    0 -0.33206145860E+00 -0.94104508023E+00  0.63023002035E+00  0.90007737091E+02  0.89999998421E+02 0.  0.
         12    1    1    2    0    0  0.33206145860E+00  0.94104508023E+00 -0.63023002035E+00  0.11802629088E+01  0.00000000000E+00 0. -1.
         11    1    3    3    0    0  0.20861375748E+01  0.89242599100E+01 -0.50288831137E+00  0.91786318064E+01  0.51100000000E-03 0. -1.
        -11    1    3    3    0    0  0.12550176387E+02  0.20593986768E+02  0.28425735604E+02  0.37277897785E+02  0.51100000000E-03 0.  1.
         12    1    3    3    0    0 -0.14968375421E+02 -0.30459291758E+02 -0.27292617272E+02  0.43551207500E+02  0.00000000000E+00 0. -1.
</event>
<event>
 7    1  0.1971192E-015  0.9000772E+02  0.7816164E-02  0.1186339E+00
        -11   -1    0    0    0    0  0.00000000000E+00  0.00000000000E+00  0.45593999997E+02  0.45594000000E+02  0.51100000000E-03 0.  1.
         11   -1    0    0    0    0 -0.00000000000E+00 -0.00000000000E+00 -0.45593999997E+02  0.45594000000E+02  0.51100000000E-03 0. -1.
    9900012    2    1    2    0    0 -0.91191441059E+00 -0.58940593599E+00 -0.46267250166E+00  0.90007723298E+02  0.89999984445E+02 0.  0.
         12    1    1    2    0    0  0.91191441059E+00  0.58940593599E+00  0.46267250166E+00  0.11802767021E+01  0.00000000000E+00 0. -1.
         11    1    3    3    0    0  0.86291753923E+01 -0.30586709566E+01 -0.50022679394E+01  0.10432680421E+02  0.51100000000E-03 0. -1.
        -11    1    3    3    0    0  0.18271680034E+02 -0.30768742380E+02  0.56109599235E+01  0.36222267605E+02  0.51100000000E-03 0.  1.
         12    1    3    3    0    0 -0.27812769837E+02  0.33238007400E+02 -0.10713644857E+01  0.43352775272E+02  0.00000000000E+00 0. -1.
</event>
<event>
 7    1  0.1971192E-015  0.9000763E+02  0.7816164E-02  0.1186339E+00
        -11   -1    0    0    0    0  0.00000000000E+00  0.00000000000E+00  0.45593999997E+02  0.45594000000E+02  0.51100000000E-03 0. -1.
         11   -1    0    0    0    0 -0.00000000000E+00 -0.00000000000E+00 -0.45593999997E+02  0.45594000000E+02  0.51100000000E-03 0.  1.
    9900012    2    1    2    0    0  0.60791219608E+00 -0.97456580172E+00 -0.27191806028E+00  0.90007629223E+02  0.89999889129E+02 0.  0.
         12    1    1    2    0    0 -0.60791219608E+00  0.97456580172E+00  0.27191806028E+00  0.11803707771E+01  0.00000000000E+00 0. -1.
         11    1    3    3    0    0  0.12187012403E+02 -0.29634198591E+02 -0.23247725954E+02  0.39587444471E+02  0.51100000000E-03 0. -1.
        -11    1    3    3    0    0  0.88393626068E+01 -0.69555625906E-02  0.92421358820E+00  0.88875503201E+01  0.51100000000E-03 0.  1.
        -12    1    3    3    0    0 -0.20418462814E+02  0.28666588352E+02  0.22051594306E+02  0.41532634432E+02  0.00000000000E+00 0.  1.
</event>
<event>
 7    1  0.1971192E-015  0.9000765E+02  0.7816164E-02  0.1186339E+00
        -11   -1    0    0    0    0  0.00000000000E+00  0.00000000000E+00  0.45593999997E+02  0.45594000000E+02  0.51100000000E-03 0. -1.
         11   -1    0    0    0    0 -0.00000000000E+00 -0.00000000000E+00 -0.45593999997E+02  0.45594000000E+02  0.51100000000E-03 0.  1.
    9900012    2    1    2    0    0 -0.25678768639E+00 -0.86721538901E+00  0.75844060738E+00  0.90007646408E+02  0.89999906541E+02 0.  0.
         12    1    1    2    0    0  0.25678768639E+00  0.86721538901E+00 -0.75844060738E+00  0.11803535918E+01  0.00000000000E+00 0. -1.
         11    1    3    3    0    0  0.10840420825E+02 -0.30986095916E+02  0.24089626380E+02  0.40718091349E+02  0.51100000000E-03 0. -1.
        -11    1    3    3    0    0  0.45237176111E+00 -0.39198850709E+01 -0.10343023744E+02  0.11070152646E+02  0.51100000000E-03 0.  1.
        -12    1    3    3    0    0 -0.11549580272E+02  0.34038765598E+02 -0.12988162028E+02  0.38219402412E+02  0.00000000000E+00 0.  1.
</event>
<event>
 7    1  0.1971192E-015  0.9000780E+02  0.7816164E-02  0.1186339E+00
        -11   -1    0    0    0    0  0.00000000000E+00  0.00000000000E+00  0.45593999997E+02  0.45594000000E+02  0.51100000000E-03 0. -1.
         11   -1    0    0    0    0 -0.00000000000E+00 -0.00000000000E+00 -0.45593999997E+02  0.45594000000E+02  0.51100000000E-03 0.  1.
    9900012    2    1    2    0    0 -0.43017572789E+00 -0.86751456258E+00 -0.67470809409E+00  0.90007803539E+02  0.90000065746E+02 0.  0.
         12    1    1    2    0    0  0.43017572789E+00  0.86751456258E+00  0.67470809409E+00  0.11801964605E+01  0.00000000000E+00 0. -1.
         11    1    3    3    0    0 -0.28106694338E+01  0.41208838962E+01 -0.88961095021E+01  0.10199132869E+02  0.51100000000E-03 0. -1.
        -11    1    3    3    0    0 -0.52193549060E+01  0.30307789822E+01 -0.34836727793E+02  0.35355691062E+02  0.51100000000E-03 0.  1.
         12    1    3    3    0    0  0.75998486119E+01 -0.80191774409E+01  0.43058129201E+02  0.44452979608E+02  0.00000000000E+00 0. -1.
</event>
<event>
 7    1  0.1971192E-015  0.9000773E+02  0.7816164E-02  0.1186339E+00
        -11   -1    0    0    0    0  0.00000000000E+00  0.00000000000E+00  0.45593999997E+02  0.45594000000E+02  0.51100000000E-03 0.  1.
         11   -1    0    0    0    0 -0.00000000000E+00 -0.00000000000E+00 -0.45593999997E+02  0.45594000000E+02  0.51100000000E-03 0. -1.
    9900012    2    1    2    0    0  0.26528480448E-01 -0.83800368428E+00  0.83071891809E+00  0.90007725517E+02  0.89999986693E+02 0.  0.
         12    1    1    2    0    0 -0.26528480448E-01  0.83800368428E+00 -0.83071891809E+00  0.11802744833E+01  0.00000000000E+00 0. -1.
         11    1    3    3    0    0  0.12572322983E+02 -0.25781169785E+02  0.21840338260E+02  0.36051801567E+02  0.51100000000E-03 0. -1.
        -11    1    3    3    0    0  0.38290254480E+01 -0.68768014214E+01  0.53435560911E+01  0.95134339558E+01  0.51100000000E-03 0.  1.
        -12    1    3    3    0    0 -0.16374819950E+02  0.31819967522E+02 -0.26353175433E+02  0.44442489994E+02  0.00000000000E+00 0.  1.
</event>
<event>
 7    1  0.1971192E-015  0.9000776E+02  0.7816164E-02  0.1186339E+00
        -11   -1    0    0    0    0  0.00000000000E+00  0.00000000000E+00  0.45593999997E+02  0.45594000000E+02  0.51100000000E-03 0.  1.
         11   -1    0    0    0    0 -0.00000000000E+00 -0.00000000000E+00 -0.45593999997E+02  0.45594000000E+02  0.51100000000E-03 0. -1.
    9900012    2    1    2    0    0 -0.79930441277E+00  0.27117783302E-01  0.86795610325E+00  0.90007758196E+02  0.90000019804E+02 0.  0.
         12    1    1    2    0    0  0.79930441277E+00 -0.27117783302E-01 -0.86795610325E+00  0.11802418039E+01  0.00000000000E+00 0. -1.
         11    1    3    3    0    0 -0.97950184448E+01 -0.22586506277E+02 -0.31743949856E+02  0.40171768754E+02  0.51100000000E-03 0. -1.
        -11    1    3    3    0    0  0.30519755812E+01 -0.68242805967E+01  0.46620009472E+01  0.88101994134E+01  0.51100000000E-03 0.  1.
        -12    1    3    3    0    0  0.59437384508E+01  0.29437904657E+02  0.27949905012E+02  0.41025790029E+02  0.00000000000E+00 0.  1.
</event>
<event>
 7    1  0.1971192E-015  0.9000790E+02  0.7816164E-02  0.1186339E+00
        -11   -1    0    0    0    0  0.00000000000E+00  0.00000000000E+00  0.45593999997E+02  0.45594000000E+02  0.51100000000E-03 0.  1.
         11   -1    0    0    0    0 -0.00000000000E+00 -0.00000000000E+00 -0.45593999997E+02  0.45594000000E+02  0.51100000000E-03 0. -1.
    9900012    2    1    2    0    0  0.85295443843E+00 -0.56783616304E+00  0.58538092602E+00  0.90007898305E+02  0.90000161762E+02 0.  0.
         12    1    1    2    0    0 -0.85295443843E+00  0.56783616304E+00 -0.58538092602E+00  0.11801016950E+01  0.00000000000E+00 0. -1.
         11    1    3    3    0    0  0.51329885515E+01  0.12507564347E+02 -0.37396344012E+02  0.39765227059E+02  0.51100000000E-03 0. -1.
        -11    1    3    3    0    0  0.12066791687E+02 -0.51874173204E+01  0.85761348019E+01  0.15686518048E+02  0.51100000000E-03 0.  1.
        -12    1    3    3    0    0 -0.16346825800E+02 -0.78879831899E+01  0.29405590136E+02  0.34556153197E+02  0.00000000000E+00 0.  1.
</event>
<event>
 7    1  0.1971192E-015  0.9000776E+02  0.7816164E-02  0.1186339E+00
        -11   -1    0    0    0    0  0.00000000000E+00  0.00000000000E+00  0.45593999997E+02  0.45594000000E+02  0.51100000000E-03 0. -1.
         11   -1    0    0    0    0 -0.00000000000E+00 -0.00000000000E+00 -0.45593999997E+02  0.45594000000E+02  0.51100000000E-03 0.  1.
    9900012    2    1    2    0    0 -0.11801289483E+01  0.87102064805E-02 -0.13905812713E-01  0.90007756985E+02  0.90000018577E+02 0.  0.
         12    1    1    2    0    0  0.11801289483E+01 -0.87102064805E-02  0.13905812713E-01  0.11802430148E+01  0.00000000000E+00 0. -1.
         11    1    3    3    0    0 -0.67444717913E+01 -0.55683668622E+01 -0.16761424286E+01  0.89052828679E+01  0.51100000000E-03 0. -1.
        -11    1    3    3    0    0 -0.24099612439E+02 -0.22825634842E+02 -0.15447638445E+02  0.36611889591E+02  0.51100000000E-03 0.  1.
         12    1    3    3    0    0  0.29663955282E+02  0.28402711911E+02  0.17109875061E+02  0.44490584526E+02  0.00000000000E+00 0. -1.
</event>
<event>
 7    1  0.1971192E-015  0.9000771E+02  0.7816164E-02  0.1186339E+00
        -11   -1    0    0    0    0  0.00000000000E+00  0.00000000000E+00  0.45593999997E+02  0.45594000000E+02  0.51100000000E-03 0. -1.
         11   -1    0    0    0    0 -0.00000000000E+00 -0.00000000000E+00 -0.45593999997E+02  0.45594000000E+02  0.51100000000E-03 0.  1.
    9900012    2    1    2    0    0  0.58995779138E+00  0.96458796360E+00 -0.33853929387E+00  0.90007708092E+02  0.89999969039E+02 0.  0.
         12    1    1    2    0    0 -0.58995779138E+00 -0.96458796360E+00  0.33853929387E+00  0.11802919082E+01  0.00000000000E+00 0. -1.
         11    1    3    3    0    0  0.23523393171E+02  0.75159300361E+01  0.17214737491E+02  0.30102930384E+02  0.51100000000E-03 0. -1.
        -11    1    3    3    0    0  0.61940466635E+01 -0.22659948675E+02 -0.34019459775E+01  0.23736316579E+02  0.51100000000E-03 0.  1.
        -12    1    3    3    0    0 -0.29127482043E+02  0.16108606603E+02 -0.14151330807E+02  0.36168461129E+02  0.00000000000E+00 0.  1.
</event>
<event>
 7    1  0.1971192E-015  0.9000771E+02  0.7816164E-02  0.1186339E+00
        -11   -1    0    0    0    0  0.00000000000E+00  0.00000000000E+00  0.45593999997E+02  0.45594000000E+02  0.51100000000E-03 0. -1.
         11   -1    0    0    0    0 -0.00000000000E+00 -0.00000000000E+00 -0.45593999997E+02  0.45594000000E+02  0.51100000000E-03 0.  1.
    9900012    2    1    2    0    0 -0.19759446157E+00 -0.11030538848E+01 -0.37056005415E+00  0.90007709274E+02  0.89999970237E+02 0.  0.
         12    1    1    2    0    0  0.19759446157E+00  0.11030538848E+01  0.37056005415E+00  0.11802907259E+01  0.00000000000E+00 0. -1.
         11    1    3    3    0    0  0.32629822016E+01 -0.65226930093E+01  0.75791476492E+01  0.10518367568E+02  0.51100000000E-03 0. -1.
        -11    1    3    3    0    0 -0.20318526527E+02 -0.27777547469E+02 -0.20667974672E+02  0.40144736155E+02  0.51100000000E-03 0.  1.
         12    1    3    3    0    0  0.16857949864E+02  0.33197186594E+02  0.12718266968E+02  0.39344605552E+02  0.00000000000E+00 0. -1.
</event>
<event>
 7    1  0.1971192E-015  0.9000774E+02  0.7816164E-02  0.1186339E+00
        -11   -1    0    0    0    0  0.00000000000E+00  0.00000000000E+00  0.45593999997E+02  0.45594000000E+02  0.51100000000E-03 0.  1.
         11   -1    0    0    0    0 -0.00000000000E+00 -0.00000000000E+00 -0.45593999997E+02  0.45594000000E+02  0.51100000000E-03 0. -1.
    9900012    2    1    2    0    0 -0.80755992764E+00  0.84719267649E+00  0.15209994726E+00  0.90007736105E+02  0.89999997422E+02 0.  0.
         12    1    1    2    0    0  0.80755992764E+00 -0.84719267649E+00 -0.15209994726E+00  0.11802638950E+01  0.00000000000E+00 0. -1.
         11    1    3    3    0    0 -0.28376389337E+02  0.10300152743E+02  0.30793766267E+02  0.43122716281E+02  0.51100000000E-03 0. -1.
        -11    1    3    3    0    0  0.69886534813E+01  0.63853521801E+01 -0.70948176477E+01  0.11830064990E+02  0.51100000000E-03 0.  1.
        -12    1    3    3    0    0  0.20580175928E+02 -0.15838312247E+02 -0.23546848672E+02  0.35054954834E+02  0.00000000000E+00 0.  1.
</event>
<event>
 7    1  0.1971192E-015  0.9000780E+02  0.7816164E-02  0.1186339E+00
        -11   -1    0    0    0    0  0.00000000000E+00  0.00000000000E+00  0.45593999997E+02  0.45594000000E+02  0.51100000000E-03 0.  1.
         11   -1    0    0    0    0 -0.00000000000E+00 -0.00000000000E+00 -0.45593999997E+02  0.45594000000E+02  0.51100000000E-03 0. -1.
    9900012    2    1    2    0    0  0.77679354042E+00 -0.13952929023E+00  0.87749036886E+00  0.90007802570E+02  0.90000064764E+02 0.  0.
         12    1    1    2    0    0 -0.77679354042E+00  0.13952929023E+00 -0.87749036886E+00  0.11801974304E+01  0.00000000000E+00 0. -1.
         11    1    3    3    0    0 -0.17047599387E+02 -0.37234464747E+02 -0.75521028178E+01  0.41642049266E+02  0.51100000000E-03 0. -1.
        -11    1    3    3    0    0  0.85640798966E+00  0.18245460978E+01  0.89990006955E+01  0.92219529865E+01  0.51100000000E-03 0.  1.
        -12    1    3    3    0    0  0.16967984938E+02  0.35270389359E+02 -0.56940750885E+00  0.39143800317E+02  0.00000000000E+00 0.  1.
</event>
<event>
 7    1  0.1971192E-015  0.9000762E+02  0.7816164E-02  0.1186339E+00
        -11   -1    0    0    0    0  0.00000000000E+00  0.00000000000E+00  0.45593999997E+02  0.45594000000E+02  0.51100000000E-03 0.  1.
         11   -1    0    0    0    0 -0.00000000000E+00 -0.00000000000E+00 -0.45593999997E+02  0.45594000000E+02  0.51100000000E-03 0. -1.
    9900012    2    1    2    0    0 -0.77520195505E+00 -0.47706124859E+00  0.75151119688E+00  0.90007620999E+02  0.89999880797E+02 0.  0.
         12    1    1    2    0    0  0.77520195505E+00  0.47706124859E+00 -0.75151119688E+00  0.11803790006E+01  0.00000000000E+00 0. -1.
         11    1    3    3    0    0 -0.85013676833E+01  0.34369551157E+01 -0.77897303861E+01  0.12031866551E+02  0.51100000000E-03 0. -1.
        -11    1    3    3    0    0 -0.28625917209E+02 -0.28380309293E+01  0.24948621072E+02  0.38077962777E+02  0.51100000000E-03 0.  1.
         12    1    3    3    0    0  0.36352082937E+02 -0.10759854351E+01 -0.16407379489E+02  0.39897791671E+02  0.00000000000E+00 0. -1.
</event>
<event>
 7    1  0.1971192E-015  0.9000777E+02  0.7816164E-02  0.1186339E+00
        -11   -1    0    0    0    0  0.00000000000E+00  0.00000000000E+00  0.45593999997E+02  0.45594000000E+02  0.51100000000E-03 0.  1.
         11   -1    0    0    0    0 -0.00000000000E+00 -0.00000000000E+00 -0.45593999997E+02  0.45594000000E+02  0.51100000000E-03 0. -1.
    9900012    2    1    2    0    0  0.69552734808E+00 -0.15788459865E+00  0.94034750271E+00  0.90007771520E+02  0.90000033304E+02 0.  0.
         12    1    1    2    0    0 -0.69552734808E+00  0.15788459865E+00 -0.94034750271E+00  0.11802284797E+01  0.00000000000E+00 0. -1.
         11    1    3    3    0    0  0.33122751776E+01  0.60056561195E+01 -0.60665285049E+01  0.91565190241E+01  0.51100000000E-03 0. -1.
        -11    1    3    3    0    0  0.20462715987E+02 -0.32536348633E+02 -0.12904170494E+02  0.40544473660E+02  0.51100000000E-03 0.  1.
         12    1    3    3    0    0 -0.23079463817E+02  0.26372807915E+02  0.19911046502E+02  0.40306778836E+02  0.00000000000E+00 0. -1.
</event>
<event>
 7    1  0.1971192E-015  0.9000739E+02  0.7816164E-02  0.1186340E+00
        -11   -1    0    0    0    0  0.00000000000E+00  0.00000000000E+00  0.45593999997E+02  0.45594000000E+02  0.51100000000E-03 0. -1.
         11   -1    0    0    0    0 -0.00000000000E+00 -0.00000000000E+00 -0.45593999997E+02  0.45594000000E+02  0.51100000000E-03 0.  1.
    9900012    2    1    2    0    0 -0.16364536404E+00 -0.10416191483E+01 -0.53111231374E+00  0.90007393992E+02  0.89999650792E+02 0.  0.
         12    1    1    2    0    0  0.16364536404E+00  0.10416191483E+01  0.53111231374E+00  0.11806060075E+01  0.00000000000E+00 0. -1.
         11    1    3    3    0    0  0.30602921668E+02 -0.68812729383E+01 -0.18408367057E+02  0.36369749928E+02  0.51100000000E-03 0. -1.
        -11    1    3    3    0    0  0.89358703618E+01  0.46410503497E+01 -0.24839993769E-01  0.10069247477E+02  0.51100000000E-03 0.  1.
        -12    1    3    3    0    0 -0.39702437394E+02  0.11986034403E+01  0.17902094737E+02  0.43568396587E+02  0.00000000000E+00 0.  1.
</event>
<event>
 7    1  0.1971192E-015  0.9000760E+02  0.7816164E-02  0.1186339E+00
        -11   -1    0    0    0    0  0.00000000000E+00  0.00000000000E+00  0.45593999997E+02  0.45594000000E+02  0.51100000000E-03 0. -1.
         11   -1    0    0    0    0 -0.00000000000E+00 -0.00000000000E+00 -0.45593999997E+02  0.45594000000E+02  0.51100000000E-03 0.  1.
    9900012    2    1    2    0    0 -0.55802523098E+00 -0.56958217170E+00 -0.87036278519E+00  0.90007598633E+02  0.89999858135E+02 0.  0.
         12    1    1    2    0    0  0.55802523098E+00  0.56958217170E+00  0.87036278519E+00  0.11804013667E+01  0.00000000000E+00 0. -1.
         11    1    3    3    0    0  0.79479365618E+01 -0.35404254140E+02  0.10635282279E+02  0.37811904689E+02  0.51100000000E-03 0. -1.
        -11    1    3    3    0    0  0.84054637881E+01 -0.25050344586E+01 -0.64651284993E+01  0.10896095902E+02  0.51100000000E-03 0.  1.
        -12    1    3    3    0    0 -0.16911425581E+02  0.37339706427E+02 -0.50405165645E+01  0.41299598042E+02  0.00000000000E+00 0.  1.
</event>
<event>
 7    1  0.1971192E-015  0.9000771E+02  0.7816164E-02  0.1186339E+00
        -11   -1    0    0    0    0  0.00000000000E+00  0.00000000000E+00  0.45593999997E+02  0.45594000000E+02  0.51100000000E-03 0. -1.
         11   -1    0    0    0    0 -0.00000000000E+00 -0.00000000000E+00 -0.45593999997E+02  0.45594000000E+02  0.51100000000E-03 0.  1.
    9900012    2    1    2    0    0  0.22441400805E+00 -0.76952300373E-01 -0.11562047501E+01  0.90007706508E+02  0.89999967434E+02 0.  0.
         12    1    1    2    0    0 -0.22441400805E+00  0.76952300373E-01  0.11562047501E+01  0.11802934922E+01  0.00000000000E+00 0. -1.
         11    1    3    3    0    0 -0.35917240271E+02  0.53856169323E+01 -0.16347823101E+02  0.39828436309E+02  0.51100000000E-03 0. -1.
        -11    1    3    3    0    0 -0.66473444655E+00 -0.10165610500E+02  0.28496013879E+00  0.10191305670E+02  0.51100000000E-03 0.  1.
        -12    1    3    3    0    0  0.36806388725E+02  0.47030412669E+01  0.14906658212E+02  0.39987964529E+02  0.00000000000E+00 0.  1.
</event>
<event>
 7    1  0.1971192E-015  0.9000711E+02  0.7816164E-02  0.1186340E+00
        -11   -1    0    0    0    0  0.00000000000E+00  0.00000000000E+00  0.45593999997E+02  0.45594000000E+02  0.51100000000E-03 0.  1.
         11   -1    0    0    0    0 -0.00000000000E+00 -0.00000000000E+00 -0.45593999997E+02  0.45594000000E+02  0.51100000000E-03 0. -1.
    9900012    2    1    2    0    0  0.36739940745E+00 -0.17829609880E+00  0.11080246152E+01  0.90007114582E+02  0.89999367692E+02 0.  0.
         12    1    1    2    0    0 -0.36739940745E+00  0.17829609880E+00 -0.11080246152E+01  0.11808854184E+01  0.00000000000E+00 0. -1.
         11    1    3    3    0    0 -0.37449433361E-01 -0.24078461261E+02 -0.26938797057E+02  0.36131322787E+02  0.51100000000E-03 0. -1.
        -11    1    3    3    0    0 -0.29936114763E+01 -0.47556074518E+01 -0.66767858346E+01  0.87267967347E+01  0.51100000000E-03 0.  1.
        -12    1    3    3    0    0  0.33984603171E+01  0.28655772614E+02  0.34723607507E+02  0.45148995060E+02  0.00000000000E+00 0.  1.
</event>
<event>
 7    1  0.1971192E-015  0.9000770E+02  0.7816164E-02  0.1186339E+00
        -11   -1    0    0    0    0  0.00000000000E+00  0.00000000000E+00  0.45593999997E+02  0.45594000000E+02  0.51100000000E-03 0. -1.
         11   -1    0    0    0    0 -0.00000000000E+00 -0.00000000000E+00 -0.45593999997E+02  0.45594000000E+02  0.51100000000E-03 0.  1.
    9900012    2    1    2    0    0  0.89300989174E+00  0.12081884184E+00 -0.76226795012E+00  0.90007696528E+02  0.89999957322E+02 0.  0.
         12    1    1    2    0    0 -0.89300989174E+00 -0.12081884184E+00  0.76226795012E+00  0.11803034724E+01  0.00000000000E+00 0. -1.
         11    1    3    3    0    0 -0.70941951586E+01 -0.30135471525E+02  0.18230745118E+02  0.35928182765E+02  0.51100000000E-03 0. -1.
        -11    1    3    3    0    0 -0.90091710108E+00 -0.93016011867E+01 -0.73719167053E+01  0.11902797672E+02  0.51100000000E-03 0.  1.
        -12    1    3    3    0    0  0.88881221514E+01  0.39557891553E+02 -0.11621096363E+02  0.42176716090E+02  0.00000000000E+00 0.  1.
</event>
<event>
 7    1  0.1971192E-015  0.9000770E+02  0.7816164E-02  0.1186339E+00
        -11   -1    0    0    0    0  0.00000000000E+00  0.00000000000E+00  0.45593999997E+02  0.45594000000E+02  0.51100000000E-03 0.  1.
         11   -1    0    0    0    0 -0.00000000000E+00 -0.00000000000E+00 -0.45593999997E+02  0.45594000000E+02  0.51100000000E-03 0. -1.
    9900012    2    1    2    0    0 -0.69013462880E+00 -0.62015168082E-02  0.95748597345E+00  0.90007701879E+02  0.89999962744E+02 0.  0.
         12    1    1    2    0    0  0.69013462880E+00  0.62015168082E-02 -0.95748597345E+00  0.11802981208E+01  0.00000000000E+00 0. -1.
         11    1    3    3    0    0 -0.97524418004E+01 -0.78066772855E+01  0.32625526697E+01  0.12911180484E+02  0.51100000000E-03 0. -1.
        -11    1    3    3    0    0 -0.30965892474E+02  0.15055930640E+02 -0.96489939204E+01  0.35758504276E+02  0.51100000000E-03 0.  1.
         12    1    3    3    0    0  0.40028199645E+02 -0.72554548717E+01  0.73439272242E+01  0.41338017119E+02  0.00000000000E+00 0. -1.
</event>
<event>
 7    1  0.1971192E-015  0.9000776E+02  0.7816164E-02  0.1186339E+00
        -11   -1    0    0    0    0  0.00000000000E+00  0.00000000000E+00  0.45593999997E+02  0.45594000000E+02  0.51100000000E-03 0.  1.
         11   -1    0    0    0    0 -0.00000000000E+00 -0.00000000000E+00 -0.45593999997E+02  0.45594000000E+02  0.51100000000E-03 0. -1.
    9900012    2    1    2    0    0 -0.60347691661E+00 -0.71970487268E+00 -0.71471084695E+00  0.90007758039E+02  0.90000019645E+02 0.  0.
         12    1    1    2    0    0  0.60347691661E+00  0.71970487268E+00  0.71471084695E+00  0.11802419614E+01  0.00000000000E+00 0. -1.
         11    1    3    3    0    0 -0.25272469595E+02  0.44971921055E+01 -0.24118080488E+02  0.35222212635E+02  0.51100000000E-03 0. -1.
        -11    1    3    3    0    0 -0.70016586614E+01 -0.17180578781E+01 -0.74960984539E+01  0.10400309571E+02  0.51100000000E-03 0.  1.
        -12    1    3    3    0    0  0.31670651340E+02 -0.34988391002E+01  0.30899468095E+02  0.44385235832E+02  0.00000000000E+00 0.  1.
</event>
<event>
 7    1  0.1971192E-015  0.9000778E+02  0.7816164E-02  0.1186339E+00
        -11   -1    0    0    0    0  0.00000000000E+00  0.00000000000E+00  0.45593999997E+02  0.45594000000E+02  0.51100000000E-03 0. -1.
         11   -1    0    0    0    0 -0.00000000000E+00 -0.00000000000E+00 -0.45593999997E+02  0.45594000000E+02  0.51100000000E-03 0.  1.
    9900012    2    1    2    0    0 -0.11141587662E+01  0.36910857346E+00 -0.12383881235E+00  0.90007776739E+02  0.90000038592E+02 0.  0.
         12    1    1    2    0    0  0.11141587662E+01 -0.36910857346E+00  0.12383881235E+00  0.11802232614E+01  0.00000000000E+00 0. -1.
         11    1    3    3    0    0  0.17901830663E+01  0.68748154604E+01 -0.70711537172E+01  0.10023425471E+02  0.51100000000E-03 0. -1.
        -11    1    3    3    0    0  0.25167716945E+02 -0.43099346355E+01 -0.26137191801E+02  0.36539599181E+02  0.51100000000E-03 0.  1.
         12    1    3    3    0    0 -0.28072058778E+02 -0.21957722514E+01  0.33084506706E+02  0.43444752086E+02  0.00000000000E+00 0. -1.
</event>
<event>
 7    1  0.1971192E-015  0.9000773E+02  0.7816164E-02  0.1186339E+00
        -11   -1    0    0    0    0  0.00000000000E+00  0.00000000000E+00  0.45593999997E+02  0.45594000000E+02  0.51100000000E-03 0.  1.
         11   -1    0    0    0    0 -0.00000000000E+00 -0.00000000000E+00 -0.45593999997E+02  0.45594000000E+02  0.51100000000E-03 0. -1.
    9900012    2    1    2    0    0 -0.10408807677E+01 -0.35728128692E-02  0.55640167374E+00  0.90007733776E+02  0.89999995062E+02 0.  0.
         12    1    1    2    0    0  0.10408807677E+01  0.35728128692E-02 -0.55640167374E+00  0.11802662243E+01  0.00000000000E+00 0. -1.
         11    1    3    3    0    0 -0.28659327750E+02 -0.42991303855E+01 -0.13045425942E+02  0.31780854731E+02  0.51100000000E-03 0. -1.
        -11    1    3    3    0    0 -0.10297718711E+02 -0.51210777862E+01 -0.75917633034E+01  0.13780541305E+02  0.51100000000E-03 0.  1.
        -12    1    3    3    0    0  0.37916165694E+02  0.94166353588E+01  0.21193590919E+02  0.44446337739E+02  0.00000000000E+00 0.  1.
</event>
<event>
 7    1  0.1971192E-015  0.9000771E+02  0.7816164E-02  0.1186339E+00
        -11   -1    0    0    0    0  0.00000000000E+00  0.00000000000E+00  0.45593999997E+02  0.45594000000E+02  0.51100000000E-03 0. -1.
         11   -1    0    0    0    0 -0.00000000000E+00 -0.00000000000E+00 -0.45593999997E+02  0.45594000000E+02  0.51100000000E-03 0.  1.
    9900012    2    1    2    0    0  0.30235480666E+00 -0.10666047974E+01 -0.40500172705E+00  0.90007707400E+02  0.89999968338E+02 0.  0.
         12    1    1    2    0    0 -0.30235480666E+00  0.10666047974E+01  0.40500172705E+00  0.11802926001E+01  0.00000000000E+00 0. -1.
         11    1    3    3    0    0 -0.27842522814E+02  0.23342260901E+02  0.15682473832E+02  0.39572808927E+02  0.51100000000E-03 0. -1.
        -11    1    3    3    0    0  0.80403584228E+01  0.68037470221E+01 -0.19759815470E+01  0.10716475187E+02  0.51100000000E-03 0.  1.
        -12    1    3    3    0    0  0.20104519198E+02 -0.31212612721E+02 -0.14111494012E+02  0.39718423285E+02  0.00000000000E+00 0.  1.
</event>
<event>
 7    1  0.1971192E-015  0.9000782E+02  0.7816164E-02  0.1186339E+00
        -11   -1    0    0    0    0  0.00000000000E+00  0.00000000000E+00  0.45593999997E+02  0.45594000000E+02  0.51100000000E-03 0.  1.
         11   -1    0    0    0    0 -0.00000000000E+00 -0.00000000000E+00 -0.45593999997E+02  0.45594000000E+02  0.51100000000E-03 0. -1.
    9900012    2    1    2    0    0  0.86507142727E+00  0.36457618367E+00  0.71522967988E+00  0.90007822953E+02  0.90000085416E+02 0.  0.
         12    1    1    2    0    0 -0.86507142727E+00 -0.36457618367E+00 -0.71522967988E+00  0.11801770473E+01  0.00000000000E+00 0. -1.
         11    1    3    3    0    0 -0.14579657826E+02  0.11607480307E+02  0.17740289887E+02  0.25729708645E+02  0.51100000000E-03 0. -1.
        -11    1    3    3    0    0 -0.15731740747E+02 -0.12774222643E+02  0.10354930373E+02  0.22757262893E+02  0.51100000000E-03 0.  1.
         12    1    3    3    0    0  0.31176470000E+02  0.15313185193E+01 -0.27379990581E+02  0.41520851416E+02  0.00000000000E+00 0. -1.
</event>
<event>
 7    1  0.1971192E-015  0.9000774E+02  0.7816164E-02  0.1186339E+00
        -11   -1    0    0    0    0  0.00000000000E+00  0.00000000000E+00  0.45593999997E+02  0.45594000000E+02  0.51100000000E-03 0.  1.
         11   -1    0    0    0    0 -0.00000000000E+00 -0.00000000000E+00 -0.45593999997E+02  0.45594000000E+02  0.51100000000E-03 0. -1.
    9900012    2    1    2    0    0 -0.40911044723E+00 -0.10513709771E+01 -0.34678103271E+00  0.90007741819E+02  0.90000003211E+02 0.  0.
         12    1    1    2    0    0  0.40911044723E+00  0.10513709771E+01  0.34678103271E+00  0.11802581812E+01  0.00000000000E+00 0. -1.
         11    1    3    3    0    0  0.84288425882E+01 -0.40475702179E+01 -0.33912444451E+01  0.99462933393E+01  0.51100000000E-03 0. -1.
        -11    1    3    3    0    0 -0.78570593625E+00 -0.32249964657E+02 -0.19268701609E+02  0.37576061743E+02  0.51100000000E-03 0.  1.
         12    1    3    3    0    0 -0.80522470991E+01  0.35246163897E+02  0.22313165022E+02  0.42485386736E+02  0.00000000000E+00 0. -1.
</event>
<event>
 7    1  0.1971192E-015  0.9000774E+02  0.7816164E-02  0.1186339E+00
        -11   -1    0    0    0    0  0.00000000000E+00  0.00000000000E+00  0.45593999997E+02  0.45594000000E+02  0.51100000000E-03 0. -1.
         11   -1    0    0    0    0 -0.00000000000E+00 -0.00000000000E+00 -0.45593999997E+02  0.45594000000E+02  0.51100000000E-03 0.  1.
    9900012    2    1    2    0    0  0.11342227522E+01 -0.28289630518E+00 -0.16284151080E+00  0.90007742008E+02  0.90000003402E+02 0.  0.
         12    1    1    2    0    0 -0.11342227522E+01  0.28289630518E+00  0.16284151080E+00  0.11802579925E+01  0.00000000000E+00 0. -1.
         11    1    3    3    0    0 -0.32976071394E+02 -0.14859216634E+02  0.37344296643E+01  0.36361567193E+02  0.51100000000E-03 0. -1.
        -11    1    3    3    0    0 -0.64419239271E+01 -0.23347967168E+01  0.54146324721E+01  0.87331497560E+01  0.51100000000E-03 0.  1.
        -12    1    3    3    0    0  0.40552218073E+02  0.16911117046E+02 -0.93119036472E+01  0.44913025059E+02  0.00000000000E+00 0.  1.
</event>
<event>
 7    1  0.1971192E-015  0.9000798E+02  0.7816164E-02  0.1186339E+00
        -11   -1    0    0    0    0  0.00000000000E+00  0.00000000000E+00  0.45593999997E+02  0.45594000000E+02  0.51100000000E-03 0.  1.
         11   -1    0    0    0    0 -0.00000000000E+00 -0.00000000000E+00 -0.45593999997E+02  0.45594000000E+02  0.51100000000E-03 0. -1.
    9900012    2    1    2    0    0  0.66885494128E+00 -0.79338129069E+00 -0.56180531460E+00  0.90007980502E+02  0.90000245044E+02 0.  0.
         12    1    1    2    0    0 -0.66885494128E+00  0.79338129069E+00  0.56180531460E+00  0.11800194983E+01  0.00000000000E+00 0. -1.
         11    1    3    3    0    0  0.43260308432E+01 -0.15525052928E+01  0.14581825915E+02  0.15289030800E+02  0.51100000000E-03 0. -1.
        -11    1    3    3    0    0 -0.11808316301E+02 -0.16001739902E+02  0.24117048848E+02  0.31258983655E+02  0.51100000000E-03 0.  1.
         12    1    3    3    0    0  0.81511403990E+01  0.16760863904E+02 -0.39260680077E+02  0.43459966046E+02  0.00000000000E+00 0. -1.
</event>
<event>
 7    1  0.1971192E-015  0.9000755E+02  0.7816164E-02  0.1186339E+00
        -11   -1    0    0    0    0  0.00000000000E+00  0.00000000000E+00  0.45593999997E+02  0.45594000000E+02  0.51100000000E-03 0. -1.
         11   -1    0    0    0    0 -0.00000000000E+00 -0.00000000000E+00 -0.45593999997E+02  0.45594000000E+02  0.51100000000E-03 0.  1.
    9900012    2    1    2    0    0  0.11018950116E+01 -0.38539591561E+00 -0.17540389954E+00  0.90007547055E+02  0.89999805875E+02 0.  0.
         12    1    1    2    0    0 -0.11018950116E+01  0.38539591561E+00  0.17540389954E+00  0.11804529455E+01  0.00000000000E+00 0. -1.
         11    1    3    3    0    0 -0.13913936040E+01  0.14725638416E+01 -0.88335155356E+01  0.90628592292E+01  0.51100000000E-03 0. -1.
        -11    1    3    3    0    0 -0.35694320173E+02 -0.20839794591E+01 -0.11761522763E+02  0.37639884178E+02  0.51100000000E-03 0.  1.
         12    1    3    3    0    0  0.38187608789E+02  0.22601970189E+00  0.20419634400E+02  0.43304803647E+02  0.00000000000E+00 0. -1.
</event>
<event>
 7    1  0.1971192E-015  0.9000785E+02  0.7816164E-02  0.1186339E+00
        -11   -1    0    0    0    0  0.00000000000E+00  0.00000000000E+00  0.45593999997E+02  0.45594000000E+02  0.51100000000E-03 0.  1.
         11   -1    0    0    0    0 -0.00000000000E+00 -0.00000000000E+00 -0.45593999997E+02  0.45594000000E+02  0.51100000000E-03 0. -1.
    9900012    2    1    2    0    0  0.78792165255E+00 -0.83139851110E+00 -0.28409984756E+00  0.90007848849E+02  0.90000111654E+02 0.  0.
         12    1    1    2    0    0 -0.78792165255E+00  0.83139851110E+00  0.28409984756E+00  0.11801511506E+01  0.00000000000E+00 0. -1.
         11    1    3    3    0    0  0.52691059729E+00  0.62907094790E+01 -0.51832578032E+01  0.81680366211E+01  0.51100000000E-03 0. -1.
        -11    1    3    3    0    0  0.11847738002E+02  0.12513700588E+02  0.37954965001E+02  0.41683821402E+02  0.51100000000E-03 0.  1.
         12    1    3    3    0    0 -0.11586726947E+02 -0.19635808578E+02 -0.33055807045E+02  0.40155990827E+02  0.00000000000E+00 0. -1.
</event>
<event>
 7    1  0.1971192E-015  0.9000783E+02  0.7816164E-02  0.1186339E+00
        -11   -1    0    0    0    0  0.00000000000E+00  0.00000000000E+00  0.45593999997E+02  0.45594000000E+02  0.51100000000E-03 0. -1.
         11   -1    0    0    0    0 -0.00000000000E+00 -0.00000000000E+00 -0.45593999997E+02  0.45594000000E+02  0.51100000000E-03 0.  1.
    9900012    2    1    2    0    0  0.70598941468E+00 -0.94492604813E+00 -0.38546862199E-01  0.90007833846E+02  0.90000096453E+02 0.  0.
         12    1    1    2    0    0 -0.70598941468E+00  0.94492604813E+00  0.38546862199E-01  0.11801661538E+01  0.00000000000E+00 0. -1.
         11    1    3    3    0    0 -0.85593373175E+01  0.11052935138E+02 -0.55816483032E+01  0.15052721632E+02  0.51100000000E-03 0. -1.
        -11    1    3    3    0    0 -0.28258329219E+02 -0.36603005670E+01 -0.14095487195E+02  0.31790151463E+02  0.51100000000E-03 0.  1.
         12    1    3    3    0    0  0.37523655952E+02 -0.83375606191E+01  0.19638588636E+02  0.43164960751E+02  0.00000000000E+00 0. -1.
</event>
<event>
 7    1  0.1971192E-015  0.9000765E+02  0.7816164E-02  0.1186339E+00
        -11   -1    0    0    0    0  0.00000000000E+00  0.00000000000E+00  0.45593999997E+02  0.45594000000E+02  0.51100000000E-03 0. -1.
         11   -1    0    0    0    0 -0.00000000000E+00 -0.00000000000E+00 -0.45593999997E+02  0.45594000000E+02  0.51100000000E-03 0.  1.
    9900012    2    1    2    0    0  0.93343488948E-02  0.11272126577E+00 -0.11749202592E+01  0.90007648006E+02  0.89999908160E+02 0.  0.
         12    1    1    2    0    0 -0.93343488948E-02 -0.11272126577E+00  0.11749202592E+01  0.11803519938E+01  0.00000000000E+00 0. -1.
         11    1    3    3    0    0  0.22419536001E+00  0.34740240664E+02 -0.13302645991E+02  0.37200738911E+02  0.51100000000E-03 0. -1.
        -11    1    3    3    0    0 -0.41454897126E+01  0.77235025105E+01  0.33076100855E+01  0.93689839751E+01  0.51100000000E-03 0.  1.
        -12    1    3    3    0    0  0.39306287015E+01 -0.42351021909E+02  0.88201156458E+01  0.43437925120E+02  0.00000000000E+00 0.  1.
</event>
<event>
 7    1  0.1971192E-015  0.9000778E+02  0.7816164E-02  0.1186339E+00
        -11   -1    0    0    0    0  0.00000000000E+00  0.00000000000E+00  0.45593999997E+02  0.45594000000E+02  0.51100000000E-03 0. -1.
         11   -1    0    0    0    0 -0.00000000000E+00 -0.00000000000E+00 -0.45593999997E+02  0.45594000000E+02  0.51100000000E-03 0.  1.
    9900012    2    1    2    0    0 -0.11319273093E+01  0.29284420476E+00  0.16092975266E+00  0.90007781568E+02  0.90000043485E+02 0.  0.
         12    1    1    2    0    0  0.11319273093E+01 -0.29284420476E+00 -0.16092975266E+00  0.11802184320E+01  0.00000000000E+00 0. -1.
         11    1    3    3    0    0 -0.26198935681E+01  0.88056006618E+01 -0.13856008540E+01  0.92909813965E+01  0.51100000000E-03 0. -1.
        -11    1    3    3    0    0  0.12948962325E+02 -0.57469177379E+00 -0.37276861901E+02  0.39466065542E+02  0.51100000000E-03 0.  1.
         12    1    3    3    0    0 -0.11460996066E+02 -0.79380646832E+01  0.38823392507E+02  0.41250734630E+02  0.00000000000E+00 0. -1.
</event>
<event>
 7    1  0.1971192E-015  0.9000776E+02  0.7816164E-02  0.1186339E+00
        -11   -1    0    0    0    0  0.00000000000E+00  0.00000000000E+00  0.45593999997E+02  0.45594000000E+02  0.51100000000E-03 0. -1.
         11   -1    0    0    0    0 -0.00000000000E+00 -0.00000000000E+00 -0.45593999997E+02  0.45594000000E+02  0.51100000000E-03 0.  1.
    9900012    2    1    2    0    0 -0.14154197085E+00  0.11415005429E+01 -0.26441647995E+00  0.90007756934E+02  0.90000018526E+02 0.  0.
         12    1    1    2    0    0  0.14154197085E+00 -0.11415005429E+01  0.26441647995E+00  0.11802430656E+01  0.00000000000E+00 0. -1.
         11    1    3    3    0    0 -0.34817055565E+02 -0.10392460848E+02  0.64494651687E+01  0.36902929449E+02  0.51100000000E-03 0. -1.
        -11    1    3    3    0    0 -0.83286758654E+01  0.13815599082E+01 -0.23258805331E+00  0.84456880664E+01  0.51100000000E-03 0.  1.
        -12    1    3    3    0    0  0.43004189460E+02  0.10152401483E+02 -0.64812935954E+01  0.44659139419E+02  0.00000000000E+00 0.  1.
</event>
<event>
 7    1  0.1971192E-015  0.9000798E+02  0.7816164E-02  0.1186339E+00
        -11   -1    0    0    0    0  0.00000000000E+00  0.00000000000E+00  0.45593999997E+02  0.45594000000E+02  0.51100000000E-03 0.  1.
         11   -1    0    0    0    0 -0.00000000000E+00 -0.00000000000E+00 -0.45593999997E+02  0.45594000000E+02  0.51100000000E-03 0. -1.
    9900012    2    1    2    0    0  0.41637804475E-01 -0.98205947614E+00  0.65289060471E+00  0.90007982770E+02  0.90000247342E+02 0.  0.
         12    1    1    2    0    0 -0.41637804475E-01  0.98205947614E+00 -0.65289060471E+00  0.11800172300E+01  0.00000000000E+00 0. -1.
         11    1    3    3    0    0  0.17157969083E+02 -0.30785305151E+02 -0.20108671981E+02  0.40576959046E+02  0.51100000000E-03 0. -1.
        -11    1    3    3    0    0 -0.55408209415E+01  0.47449927404E+01 -0.71225610488E+01  0.10195417057E+02  0.51100000000E-03 0.  1.
        -12    1    3    3    0    0 -0.11575510337E+02  0.25058252934E+02  0.27884123635E+02  0.39235606667E+02  0.00000000000E+00 0.  1.
</event>
<event>
 7    1  0.1971192E-015  0.9000771E+02  0.7816164E-02  0.1186339E+00
        -11   -1    0    0    0    0  0.00000000000E+00  0.00000000000E+00  0.45593999997E+02  0.45594000000E+02  0.51100000000E-03 0. -1.
         11   -1    0    0    0    0 -0.00000000000E+00 -0.00000000000E+00 -0.45593999997E+02  0.45594000000E+02  0.51100000000E-03 0.  1.
    9900012    2    1    2    0    0  0.10406280412E+01  0.55683962440E+00 -0.10351335978E-01  0.90007710104E+02  0.89999971078E+02 0.  0.
         12    1    1    2    0    0 -0.10406280412E+01 -0.55683962440E+00  0.10351335978E-01  0.11802898956E+01  0.00000000000E+00 0. -1.
         11    1    3    3    0    0 -0.30345059206E+02 -0.23604205006E+02  0.89481840690E+01  0.39472156143E+02  0.51100000000E-03 0. -1.
        -11    1    3    3    0    0 -0.40535648792E+01  0.11291296576E+02 -0.29720820787E+01  0.12359532303E+02  0.51100000000E-03 0.  1.
        -12    1    3    3    0    0  0.35439252126E+02  0.12869748055E+02 -0.59864533262E+01  0.38176021659E+02  0.00000000000E+00 0.  1.
</event>
<event>
 7    1  0.1971192E-015  0.9000775E+02  0.7816164E-02  0.1186339E+00
        -11   -1    0    0    0    0  0.00000000000E+00  0.00000000000E+00  0.45593999997E+02  0.45594000000E+02  0.51100000000E-03 0.  1.
         11   -1    0    0    0    0 -0.00000000000E+00 -0.00000000000E+00 -0.45593999997E+02  0.45594000000E+02  0.51100000000E-03 0. -1.
    9900012    2    1    2    0    0  0.41236507798E+00  0.10615205962E+01  0.31004826207E+00  0.90007745426E+02  0.90000006866E+02 0.  0.
         12    1    1    2    0    0 -0.41236507798E+00 -0.10615205962E+01 -0.31004826207E+00  0.11802545736E+01  0.00000000000E+00 0. -1.
         11    1    3    3    0    0  0.17868391586E+01 -0.47042195046E+01  0.73989485793E+01  0.89480118276E+01  0.51100000000E-03 0. -1.
        -11    1    3    3    0    0 -0.86988687293E+01 -0.22152389390E+02  0.27264676900E+02  0.36190624194E+02  0.51100000000E-03 0.  1.
         12    1    3    3    0    0  0.73243946487E+01  0.27918129490E+02 -0.34353577217E+02  0.44869109405E+02  0.00000000000E+00 0. -1.
</event>
<event>
 7    1  0.1971192E-015  0.9000780E+02  0.7816164E-02  0.1186339E+00
        -11   -1    0    0    0    0  0.00000000000E+00  0.00000000000E+00  0.45593999997E+02  0.45594000000E+02  0.51100000000E-03 0.  1.
         11   -1    0    0    0    0 -0.00000000000E+00 -0.00000000000E+00 -0.45593999997E+02  0.45594000000E+02  0.51100000000E-03 0. -1.
    9900012    2    1    2    0    0 -0.97675421199E+00  0.14278886148E+00 -0.64686695156E+00  0.90007799041E+02  0.90000061189E+02 0.  0.
         12    1    1    2    0    0  0.97675421199E+00 -0.14278886148E+00  0.64686695156E+00  0.11802009586E+01  0.00000000000E+00 0. -1.
         11    1    3    3    0    0 -0.32877498219E+02  0.22011015012E+02  0.10761993427E+01  0.39579955486E+02  0.51100000000E-03 0. -1.
        -11    1    3    3    0    0  0.72892972650E+00 -0.56045446673E+01 -0.12446364435E+02  0.13669464049E+02  0.51100000000E-03 0.  1.
        -12    1    3    3    0    0  0.31171814281E+02 -0.16263681483E+02  0.10723298140E+02  0.36758379507E+02  0.00000000000E+00 0.  1.
</event>
<event>
 7    1  0.1971192E-015  0.9000772E+02  0.7816164E-02  0.1186339E+00
        -11   -1    0    0    0    0  0.00000000000E+00  0.00000000000E+00  0.45593999997E+02  0.45594000000E+02  0.51100000000E-03 0.  1.
         11   -1    0    0    0    0 -0.00000000000E+00 -0.00000000000E+00 -0.45593999997E+02  0.45594000000E+02  0.51100000000E-03 0. -1.
    9900012    2    1    2    0    0  0.52419714874E+00 -0.10427755907E+01  0.17580513341E+00  0.90007715700E+02  0.89999976747E+02 0.  0.
         12    1    1    2    0    0 -0.52419714874E+00  0.10427755907E+01 -0.17580513341E+00  0.11802842998E+01  0.00000000000E+00 0. -1.
         11    1    3    3    0    0  0.30545556402E+00  0.28793461214E+02 -0.10147091885E+02  0.30530643389E+02  0.51100000000E-03 0. -1.
        -11    1    3    3    0    0 -0.18516448785E+02  0.44568414845E+01 -0.55042294233E-01  0.19045349604E+02  0.51100000000E-03 0.  1.
        -12    1    3    3    0    0  0.18735190369E+02 -0.34293078289E+02  0.10377939313E+02  0.40431722707E+02  0.00000000000E+00 0.  1.
</event>
<event>
 7    1  0.1971192E-015  0.9000830E+02  0.7816164E-02  0.1186338E+00
        -11   -1    0    0    0    0  0.00000000000E+00  0.00000000000E+00  0.45593999997E+02  0.45594000000E+02  0.51100000000E-03 0. -1.
         11   -1    0    0    0    0 -0.00000000000E+00 -0.00000000000E+00 -0.45593999997E+02  0.45594000000E+02  0.51100000000E-03 0.  1.
    9900012    2    1    2    0    0  0.25537104573E+00 -0.10811133638E+01 -0.39706722362E+00  0.90008303914E+02  0.90000572723E+02 0.  0.
         12    1    1    2    0    0 -0.25537104573E+00  0.10811133638E+01  0.39706722362E+00  0.11796960865E+01  0.00000000000E+00 0. -1.
         11    1    3    3    0    0 -0.30838125977E+02 -0.99058262490E+01  0.24694053535E+02  0.40729739598E+02  0.51100000000E-03 0. -1.
        -11    1    3    3    0    0  0.71640937256E+01 -0.90872563889E+01 -0.25709178384E+01  0.11853779413E+02  0.51100000000E-03 0.  1.
        -12    1    3    3    0    0  0.23929403297E+02  0.17911969274E+02 -0.22520202920E+02  0.37424784903E+02  0.00000000000E+00 0.  1.
</event>
<event>
 7    1  0.1971192E-015  0.9000787E+02  0.7816164E-02  0.1186339E+00
        -11   -1    0    0    0    0  0.00000000000E+00  0.00000000000E+00  0.45593999997E+02  0.45594000000E+02  0.51100000000E-03 0.  1.
         11   -1    0    0    0    0 -0.00000000000E+00 -0.00000000000E+00 -0.45593999997E+02  0.45594000000E+02  0.51100000000E-03 0. -1.
    9900012    2    1    2    0    0 -0.11202313487E+01 -0.37014575260E+00 -0.28030275085E-01  0.90007867868E+02  0.90000130924E+02 0.  0.
         12    1    1    2    0    0  0.11202313487E+01  0.37014575260E+00  0.28030275085E-01  0.11801321321E+01  0.00000000000E+00 0. -1.
         11    1    3    3    0    0  0.25322963581E+02 -0.26438405891E+02  0.10598790812E+02  0.38112677124E+02  0.51100000000E-03 0. -1.
        -11    1    3    3    0    0  0.15722925885E+01 -0.66002420553E+01 -0.51374307526E+01  0.85104931803E+01  0.51100000000E-03 0.  1.
        -12    1    3    3    0    0 -0.28015487518E+02  0.32668502194E+02 -0.54893903341E+01  0.43384697564E+02  0.00000000000E+00 0.  1.
</event>
<event>
 7    1  0.1971192E-015  0.9000767E+02  0.7816164E-02  0.1186339E+00
        -11   -1    0    0    0    0  0.00000000000E+00  0.00000000000E+00  0.45593999997E+02  0.45594000000E+02  0.51100000000E-03 0. -1.
         11   -1    0    0    0    0 -0.00000000000E+00 -0.00000000000E+00 -0.45593999997E+02  0.45594000000E+02  0.51100000000E-03 0.  1.
    9900012    2    1    2    0    0  0.79140269375E+00  0.38460366372E-01 -0.87485870032E+00  0.90007671584E+02  0.89999932049E+02 0.  0.
         12    1    1    2    0    0 -0.79140269375E+00 -0.38460366372E-01  0.87485870032E+00  0.11803284157E+01  0.00000000000E+00 0. -1.
         11    1    3    3    0    0 -0.22788775991E+01 -0.55113179801E+01 -0.18401556529E+01  0.62413205395E+01  0.51100000000E-03 0. -1.
        -11    1    3    3    0    0 -0.11783484512E+02  0.21128620322E+02 -0.34585433252E+02  0.42206886849E+02  0.51100000000E-03 0.  1.
         12    1    3    3    0    0  0.14853764805E+02 -0.15578841976E+02  0.35550730205E+02  0.41559464196E+02  0.00000000000E+00 0. -1.
</event>
<event>
 7    1  0.1971192E-015  0.9000778E+02  0.7816164E-02  0.1186339E+00
        -11   -1    0    0    0    0  0.00000000000E+00  0.00000000000E+00  0.45593999997E+02  0.45594000000E+02  0.51100000000E-03 0. -1.
         11   -1    0    0    0    0 -0.00000000000E+00 -0.00000000000E+00 -0.45593999997E+02  0.45594000000E+02  0.51100000000E-03 0.  1.
    9900012    2    1    2    0    0 -0.10483727995E+01 -0.18865486397E+00 -0.50818473884E+00  0.90007776329E+02  0.90000038177E+02 0.  0.
         12    1    1    2    0    0  0.10483727995E+01  0.18865486397E+00  0.50818473884E+00  0.11802236708E+01  0.00000000000E+00 0. -1.
         11    1    3    3    0    0  0.51058010509E+01 -0.10203344189E+02  0.38227138013E+01  0.12032895665E+02  0.51100000000E-03 0. -1.
        -11    1    3    3    0    0  0.49942176392E+00 -0.16730635189E+02 -0.33743942673E+02  0.37667190541E+02  0.51100000000E-03 0.  1.
         12    1    3    3    0    0 -0.66535956143E+01  0.26745324514E+02  0.29413044132E+02  0.40307690123E+02  0.00000000000E+00 0. -1.
</event>
<event>
 7    1  0.1971192E-015  0.9000775E+02  0.7816164E-02  0.1186339E+00
        -11   -1    0    0    0    0  0.00000000000E+00  0.00000000000E+00  0.45593999997E+02  0.45594000000E+02  0.51100000000E-03 0. -1.
         11   -1    0    0    0    0 -0.00000000000E+00 -0.00000000000E+00 -0.45593999997E+02  0.45594000000E+02  0.51100000000E-03 0.  1.
    9900012    2    1    2    0    0 -0.27844062565E+00 -0.67571976270E+00 -0.92675333771E+00  0.90007746583E+02  0.90000008038E+02 0.  0.
         12    1    1    2    0    0  0.27844062565E+00  0.67571976270E+00  0.92675333771E+00  0.11802534171E+01  0.00000000000E+00 0. -1.
         11    1    3    3    0    0 -0.19918912973E+02  0.29444186600E+02  0.32338016261E+01  0.35695667689E+02  0.51100000000E-03 0. -1.
        -11    1    3    3    0    0 -0.61950911189E+01  0.66625058373E+01  0.56515705936E+00  0.91152367367E+01  0.51100000000E-03 0.  1.
        -12    1    3    3    0    0  0.25835563466E+02 -0.36782412200E+02 -0.47257120232E+01  0.45196842157E+02  0.00000000000E+00 0.  1.
</event>
<event>
 7    1  0.1971192E-015  0.9000780E+02  0.7816164E-02  0.1186339E+00
        -11   -1    0    0    0    0  0.00000000000E+00  0.00000000000E+00  0.45593999997E+02  0.45594000000E+02  0.51100000000E-03 0. -1.
         11   -1    0    0    0    0 -0.00000000000E+00 -0.00000000000E+00 -0.45593999997E+02  0.45594000000E+02  0.51100000000E-03 0.  1.
    9900012    2    1    2    0    0 -0.82278108528E+00  0.79738351548E+00 -0.28300031760E+00  0.90007797320E+02  0.90000059445E+02 0.  0.
         12    1    1    2    0    0  0.82278108528E+00 -0.79738351548E+00  0.28300031760E+00  0.11802026795E+01  0.00000000000E+00 0. -1.
         11    1    3    3    0    0 -0.83007392506E+01 -0.29840390991E+02  0.20733292618E+02  0.37272250129E+02  0.51100000000E-03 0. -1.
        -11    1    3    3    0    0 -0.10098178012E+01 -0.83771685867E+01 -0.35085987238E+01  0.91382137635E+01  0.51100000000E-03 0.  1.
        -12    1    3    3    0    0  0.84877759664E+01  0.39014943093E+02 -0.17507694212E+02  0.43597333428E+02  0.00000000000E+00 0.  1.
</event>
<event>
 7    1  0.1971192E-015  0.9000813E+02  0.7816164E-02  0.1186338E+00
        -11   -1    0    0    0    0  0.00000000000E+00  0.00000000000E+00  0.45593999997E+02  0.45594000000E+02  0.51100000000E-03 0.  1.
         11   -1    0    0    0    0 -0.00000000000E+00 -0.00000000000E+00 -0.45593999997E+02  0.45594000000E+02  0.51100000000E-03 0. -1.
    9900012    2    1    2    0    0  0.73054301726E+00 -0.16785027347E+00 -0.91116205650E+00  0.90008134284E+02  0.90000400856E+02 0.  0.
         12    1    1    2    0    0 -0.73054301726E+00  0.16785027347E+00  0.91116205650E+00  0.11798657159E+01  0.00000000000E+00 0. -1.
         11    1    3    3    0    0  0.93122121476E+01  0.32989385350E+02  0.26498104013E+02  0.43326277909E+02  0.51100000000E-03 0. -1.
        -11    1    3    3    0    0 -0.95040312763E+00 -0.18642987643E+01 -0.97027542358E+01  0.99258408213E+01  0.51100000000E-03 0.  1.
        -12    1    3    3    0    0 -0.76312660028E+01 -0.31292936859E+02 -0.17706511834E+02  0.36756015554E+02  0.00000000000E+00 0.  1.
</event>
<event>
 7    1  0.1971192E-015  0.9000778E+02  0.7816164E-02  0.1186339E+00
        -11   -1    0    0    0    0  0.00000000000E+00  0.00000000000E+00  0.45593999997E+02  0.45594000000E+02  0.51100000000E-03 0. -1.
         11   -1    0    0    0    0 -0.00000000000E+00 -0.00000000000E+00 -0.45593999997E+02  0.45594000000E+02  0.51100000000E-03 0.  1.
    9900012    2    1    2    0    0  0.10957204364E+00  0.22723743115E+00 -0.11529402612E+01  0.90007782169E+02  0.90000044094E+02 0.  0.
         12    1    1    2    0    0 -0.10957204364E+00 -0.22723743115E+00  0.11529402612E+01  0.11802178310E+01  0.00000000000E+00 0. -1.
         11    1    3    3    0    0 -0.15674755323E+01 -0.34601036951E+02 -0.17578224320E+02  0.38841764997E+02  0.51100000000E-03 0. -1.
        -11    1    3    3    0    0  0.37367815618E+01 -0.53485499900E+01  0.75322755173E+01  0.99652244413E+01  0.51100000000E-03 0.  1.
        -12    1    3    3    0    0 -0.20597339859E+01  0.40176824372E+02  0.88930085414E+01  0.41200792730E+02  0.00000000000E+00 0.  1.
</event>
<event>
 7    1  0.1971192E-015  0.9000785E+02  0.7816164E-02  0.1186339E+00
        -11   -1    0    0    0    0  0.00000000000E+00  0.00000000000E+00  0.45593999997E+02  0.45594000000E+02  0.51100000000E-03 0.  1.
         11   -1    0    0    0    0 -0.00000000000E+00 -0.00000000000E+00 -0.45593999997E+02  0.45594000000E+02  0.51100000000E-03 0. -1.
    9900012    2    1    2    0    0  0.55983250359E+00  0.10036362437E+01  0.26844740874E+00  0.90007846555E+02  0.90000109330E+02 0.  0.
         12    1    1    2    0    0 -0.55983250359E+00 -0.10036362437E+01 -0.26844740874E+00  0.11801534447E+01  0.00000000000E+00 0. -1.
         11    1    3    3    0    0 -0.28159390596E+02  0.26765883497E+02  0.20860301457E+01  0.38906494575E+02  0.51100000000E-03 0. -1.
        -11    1    3    3    0    0  0.51839840617E+01  0.74668659311E+01 -0.47874818843E+01  0.10273643981E+02  0.51100000000E-03 0.  1.
        -12    1    3    3    0    0  0.23535239037E+02 -0.33229113184E+02  0.29698991473E+01  0.40827708000E+02  0.00000000000E+00 0.  1.
</event>
<event>
 7    1  0.1971192E-015  0.9000788E+02  0.7816164E-02  0.1186339E+00
        -11   -1    0    0    0    0  0.00000000000E+00  0.00000000000E+00  0.45593999997E+02  0.45594000000E+02  0.51100000000E-03 0. -1.
         11   -1    0    0    0    0 -0.00000000000E+00 -0.00000000000E+00 -0.45593999997E+02  0.45594000000E+02  0.51100000000E-03 0.  1.
    9900012    2    1    2    0    0  0.93854393932E+00 -0.40616662900E+00 -0.58892818277E+00  0.90007884556E+02  0.90000147832E+02 0.  0.
         12    1    1    2    0    0 -0.93854393932E+00  0.40616662900E+00  0.58892818277E+00  0.11801154439E+01  0.00000000000E+00 0. -1.
         11    1    3    3    0    0 -0.18579055873E+02  0.19688427077E+01  0.25382279503E+02  0.31516944201E+02  0.51100000000E-03 0. -1.
        -11    1    3    3    0    0 -0.39329394757E+01 -0.40680318496E+01  0.12320157563E+02  0.13557403095E+02  0.51100000000E-03 0.  1.
        -12    1    3    3    0    0  0.23450539288E+02  0.16930225129E+01 -0.38291365248E+02  0.44933537260E+02  0.00000000000E+00 0.  1.
</event>
<event>
 7    1  0.1971192E-015  0.9000779E+02  0.7816164E-02  0.1186339E+00
        -11   -1    0    0    0    0  0.00000000000E+00  0.00000000000E+00  0.45593999997E+02  0.45594000000E+02  0.51100000000E-03 0. -1.
         11   -1    0    0    0    0 -0.00000000000E+00 -0.00000000000E+00 -0.45593999997E+02  0.45594000000E+02  0.51100000000E-03 0.  1.
    9900012    2    1    2    0    0  0.15142002618E+00 -0.84057328302E+00 -0.81449879179E+00  0.90007788260E+02  0.90000050265E+02 0.  0.
         12    1    1    2    0    0 -0.15142002618E+00  0.84057328302E+00  0.81449879179E+00  0.11802117396E+01  0.00000000000E+00 0. -1.
         11    1    3    3    0    0  0.71577626012E+01  0.62675536768E+01  0.36282896305E+02  0.37509523578E+02  0.51100000000E-03 0. -1.
        -11    1    3    3    0    0 -0.13045821150E+02  0.84163321605E+01 -0.49564025334E+01  0.16297055650E+02  0.51100000000E-03 0.  1.
        -12    1    3    3    0    0  0.60394785752E+01 -0.15524459120E+02 -0.32140992563E+02  0.36201209032E+02  0.00000000000E+00 0.  1.
</event>
<event>
 7    1  0.1971192E-015  0.9000772E+02  0.7816164E-02  0.1186339E+00
        -11   -1    0    0    0    0  0.00000000000E+00  0.00000000000E+00  0.45593999997E+02  0.45594000000E+02  0.51100000000E-03 0.  1.
         11   -1    0    0    0    0 -0.00000000000E+00 -0.00000000000E+00 -0.45593999997E+02  0.45594000000E+02  0.51100000000E-03 0. -1.
    9900012    2    1    2    0    0 -0.19881712663E+00 -0.46665671431E+00  0.10657221024E+01  0.90007720229E+02  0.89999981336E+02 0.  0.
         12    1    1    2    0    0  0.19881712663E+00  0.46665671431E+00 -0.10657221024E+01  0.11802797712E+01  0.00000000000E+00 0. -1.
         11    1    3    3    0    0  0.17526056899E+02  0.11784857382E+02 -0.36441582365E+02  0.42119288449E+02  0.51100000000E-03 0. -1.
        -11    1    3    3    0    0 -0.11038381968E+01 -0.77864571666E+01  0.15372850034E+01  0.80131529010E+01  0.51100000000E-03 0.  1.
        -12    1    3    3    0    0 -0.16621035829E+02 -0.44650569300E+01  0.35970019464E+02  0.39875278879E+02  0.00000000000E+00 0.  1.
</event>
<event>
 7    1  0.2013187E-015  0.9000764E+02  0.7816164E-02  0.1186339E+00
        -11   -1    0    0    0    0  0.00000000000E+00  0.00000000000E+00  0.45593999997E+02  0.45594000000E+02  0.51100000000E-03 0. -1.
         11   -1    0    0    0    0 -0.00000000000E+00 -0.00000000000E+00 -0.45593999997E+02  0.45594000000E+02  0.51100000000E-03 0.  1.
    9900012    2    1    2    0    0  0.89890283252E+00  0.33766463024E+00 -0.68645274040E+00  0.90007635196E+02  0.89999895181E+02 0.  0.
         12    1    1    2    0    0 -0.89890283252E+00 -0.33766463024E+00  0.68645274040E+00  0.11803648036E+01  0.00000000000E+00 0. -1.
         11    1    3    3    0    0  0.32596899962E+01 -0.25173647912E+02  0.23660614743E+02  0.34701049240E+02  0.51100000000E-03 0. -1.
        -11    1    3    3    0    0  0.15542147952E+01 -0.94216222404E+01  0.37971369410E+01  0.10276224914E+02  0.51100000000E-03 0.  1.
        -12    1    3    3    0    0 -0.39150019588E+01  0.34932934783E+02 -0.28144204425E+02  0.45030361042E+02  0.00000000000E+00 0.  1.
</event>
<event>
 7    1  0.1971192E-015  0.9000775E+02  0.7816164E-02  0.1186339E+00
        -11   -1    0    0    0    0  0.00000000000E+00  0.00000000000E+00  0.45593999997E+02  0.45594000000E+02  0.51100000000E-03 0.  1.
         11   -1    0    0    0    0 -0.00000000000E+00 -0.00000000000E+00 -0.45593999997E+02  0.45594000000E+02  0.51100000000E-03 0. -1.
    9900012    2    1    2    0    0  0.75255035324E+00 -0.82152378549E+00  0.38956805894E+00  0.90007747215E+02  0.90000008678E+02 0.  0.
         12    1    1    2    0    0 -0.75255035324E+00  0.82152378549E+00 -0.38956805894E+00  0.11802527851E+01  0.00000000000E+00 0. -1.
         11    1    3    3    0    0 -0.10546327340E+02  0.41753562799E-01  0.35609547942E+01  0.11131359443E+02  0.51100000000E-03 0. -1.
        -11    1    3    3    0    0  0.92873299009E+01 -0.16511515518E+02  0.33762318109E+02  0.38714064186E+02  0.51100000000E-03 0.  1.
         12    1    3    3    0    0  0.20115477928E+01  0.15648238170E+02 -0.36933704844E+02  0.40162323587E+02  0.00000000000E+00 0. -1.
</event>
<event>
 7    1  0.1971192E-015  0.9000773E+02  0.7816164E-02  0.1186339E+00
        -11   -1    0    0    0    0  0.00000000000E+00  0.00000000000E+00  0.45593999997E+02  0.45594000000E+02  0.51100000000E-03 0.  1.
         11   -1    0    0    0    0 -0.00000000000E+00 -0.00000000000E+00 -0.45593999997E+02  0.45594000000E+02  0.51100000000E-03 0. -1.
    9900012    2    1    2    0    0  0.11790145049E+01  0.27209276913E-01  0.47257501640E-01  0.90007725109E+02  0.89999986280E+02 0.  0.
         12    1    1    2    0    0 -0.11790145049E+01 -0.27209276913E-01 -0.47257501640E-01  0.11802748913E+01  0.00000000000E+00 0. -1.
         11    1    3    3    0    0  0.32016401033E+01 -0.73861946472E+01  0.29286578378E+01  0.85664116005E+01  0.51100000000E-03 0. -1.
        -11    1    3    3    0    0  0.27867162252E+02 -0.67374379316E+01  0.25112753562E+02  0.38113281065E+02  0.51100000000E-03 0.  1.
         12    1    3    3    0    0 -0.29889787850E+02  0.14150841856E+02 -0.27994153898E+02  0.43328032443E+02  0.00000000000E+00 0. -1.
</event>
<event>
 7    1  0.1971192E-015  0.9000773E+02  0.7816164E-02  0.1186339E+00
        -11   -1    0    0    0    0  0.00000000000E+00  0.00000000000E+00  0.45593999997E+02  0.45594000000E+02  0.51100000000E-03 0. -1.
         11   -1    0    0    0    0 -0.00000000000E+00 -0.00000000000E+00 -0.45593999997E+02  0.45594000000E+02  0.51100000000E-03 0.  1.
    9900012    2    1    2    0    0 -0.74233201959E+00  0.35929511465E-01  0.91689080936E+00  0.90007730322E+02  0.89999991562E+02 0.  0.
         12    1    1    2    0    0  0.74233201959E+00 -0.35929511465E-01 -0.91689080936E+00  0.11802696782E+01  0.00000000000E+00 0. -1.
         11    1    3    3    0    0  0.84258566348E+01  0.37054483507E+02  0.29903867259E+01  0.38117872725E+02  0.51100000000E-03 0. -1.
        -11    1    3    3    0    0  0.57765349052E+01 -0.44660220462E+00 -0.10035536138E+02  0.11587915899E+02  0.51100000000E-03 0.  1.
        -12    1    3    3    0    0 -0.14944723560E+02 -0.36571951791E+02  0.79620402219E+01  0.40301941698E+02  0.00000000000E+00 0.  1.
</event>
<event>
 7    1  0.1971192E-015  0.9000772E+02  0.7816164E-02  0.1186339E+00
        -11   -1    0    0    0    0  0.00000000000E+00  0.00000000000E+00  0.45593999997E+02  0.45594000000E+02  0.51100000000E-03 0.  1.
         11   -1    0    0    0    0 -0.00000000000E+00 -0.00000000000E+00 -0.45593999997E+02  0.45594000000E+02  0.51100000000E-03 0. -1.
    9900012    2    1    2    0    0  0.99976127071E+00 -0.18469177371E-01  0.62704512352E+00  0.90007724907E+02  0.89999986075E+02 0.  0.
         12    1    1    2    0    0 -0.99976127071E+00  0.18469177371E-01 -0.62704512352E+00  0.11802750933E+01  0.00000000000E+00 0. -1.
         11    1    3    3    0    0  0.39009783819E+01  0.34897506529E+02 -0.20418535740E+02  0.40619825164E+02  0.51100000000E-03 0. -1.
        -11    1    3    3    0    0 -0.56585244485E+01 -0.23478221723E+01 -0.47485177337E+01  0.77511024258E+01  0.51100000000E-03 0.  1.
        -12    1    3    3    0    0  0.27573073374E+01 -0.32568153534E+02  0.25794098598E+02  0.41636797317E+02  0.00000000000E+00 0.  1.
</event>
<event>
 7    1  0.1971192E-015  0.9000775E+02  0.7816164E-02  0.1186339E+00
        -11   -1    0    0    0    0  0.00000000000E+00  0.00000000000E+00  0.45593999997E+02  0.45594000000E+02  0.51100000000E-03 0. -1.
         11   -1    0    0    0    0 -0.00000000000E+00 -0.00000000000E+00 -0.45593999997E+02  0.45594000000E+02  0.51100000000E-03 0.  1.
    9900012    2    1    2    0    0  0.96306504477E+00 -0.66787218707E+00  0.13945884011E+00  0.90007747355E+02  0.90000008820E+02 0.  0.
         12    1    1    2    0    0 -0.96306504477E+00  0.66787218707E+00 -0.13945884011E+00  0.11802526453E+01  0.00000000000E+00 0. -1.
         11    1    3    3    0    0 -0.65962119582E+00 -0.50073272532E+00 -0.12166863826E+02  0.12195015744E+02  0.51100000000E-03 0. -1.
        -11    1    3    3    0    0  0.20384772529E+02 -0.13183968174E+00 -0.27250720583E+02  0.34031722045E+02  0.51100000000E-03 0.  1.
         12    1    3    3    0    0 -0.18762086288E+02 -0.35299780005E-01  0.39557043249E+02  0.43781009566E+02  0.00000000000E+00 0. -1.
</event>
<event>
 7    1  0.1971192E-015  0.9000747E+02  0.7816164E-02  0.1186340E+00
        -11   -1    0    0    0    0  0.00000000000E+00  0.00000000000E+00  0.45593999997E+02  0.45594000000E+02  0.51100000000E-03 0.  1.
         11   -1    0    0    0    0 -0.00000000000E+00 -0.00000000000E+00 -0.45593999997E+02  0.45594000000E+02  0.51100000000E-03 0. -1.
    9900012    2    1    2    0    0  0.30827540089E+00 -0.86796140501E+00  0.73841568726E+00  0.90007471114E+02  0.89999728932E+02 0.  0.
         12    1    1    2    0    0 -0.30827540089E+00  0.86796140501E+00 -0.73841568726E+00  0.11805288860E+01  0.00000000000E+00 0. -1.
         11    1    3    3    0    0  0.10830589440E+02 -0.13943324234E+02 -0.32796062300E+02  0.37246471792E+02  0.51100000000E-03 0. -1.
        -11    1    3    3    0    0  0.12362230972E+02  0.45501855541E+00  0.33118770574E+01  0.12806261218E+02  0.51100000000E-03 0.  1.
        -12    1    3    3    0    0 -0.22884545011E+02  0.12620344274E+02  0.30222600930E+02  0.39954738103E+02  0.00000000000E+00 0.  1.
</event>
<event>
 7    1  0.1971192E-015  0.9000776E+02  0.7816164E-02  0.1186339E+00
        -11   -1    0    0    0    0  0.00000000000E+00  0.00000000000E+00  0.45593999997E+02  0.45594000000E+02  0.51100000000E-03 0. -1.
         11   -1    0    0    0    0 -0.00000000000E+00 -0.00000000000E+00 -0.45593999997E+02  0.45594000000E+02  0.51100000000E-03 0.  1.
    9900012    2    1    2    0    0 -0.93855691124E+00 -0.20339381101E+00 -0.68607783748E+00  0.90007762347E+02  0.90000024010E+02 0.  0.
         12    1    1    2    0    0  0.93855691124E+00  0.20339381101E+00  0.68607783748E+00  0.11802376528E+01  0.00000000000E+00 0. -1.
         11    1    3    3    0    0  0.40966443488E+02  0.46141798518E+01  0.75247255407E+01  0.41906582329E+02  0.51100000000E-03 0. -1.
        -11    1    3    3    0    0 -0.72520580337E+01 -0.26815227905E+01  0.67807533829E+01  0.10284042342E+02  0.51100000000E-03 0.  1.
        -12    1    3    3    0    0 -0.34652942365E+02 -0.21360508724E+01 -0.14991556761E+02  0.37817137676E+02  0.00000000000E+00 0.  1.
</event>
<event>
 7    1  0.1971192E-015  0.9000766E+02  0.7816164E-02  0.1186339E+00
        -11   -1    0    0    0    0  0.00000000000E+00  0.00000000000E+00  0.45593999997E+02  0.45594000000E+02  0.51100000000E-03 0.  1.
         11   -1    0    0    0    0 -0.00000000000E+00 -0.00000000000E+00 -0.45593999997E+02  0.45594000000E+02  0.51100000000E-03 0. -1.
    9900012    2    1    2    0    0  0.21988247236E+00 -0.11182400874E+01  0.30721979334E+00  0.90007663948E+02  0.89999924312E+02 0.  0.
         12    1    1    2    0    0 -0.21988247236E+00  0.11182400874E+01 -0.30721979334E+00  0.11803360522E+01  0.00000000000E+00 0. -1.
         11    1    3    3    0    0  0.66631522812E+01  0.51859238370E+01 -0.61088884867E+01  0.10421608473E+02  0.51100000000E-03 0. -1.
        -11    1    3    3    0    0 -0.29864526507E+02  0.12830519129E+02  0.27616334067E+02  0.42651776894E+02  0.51100000000E-03 0.  1.
         12    1    3    3    0    0  0.23421256698E+02 -0.19134683053E+02 -0.21200225787E+02  0.36934278581E+02  0.00000000000E+00 0. -1.
</event>
<event>
 7    1  0.1971192E-015  0.9000771E+02  0.7816164E-02  0.1186339E+00
        -11   -1    0    0    0    0  0.00000000000E+00  0.00000000000E+00  0.45593999997E+02  0.45594000000E+02  0.51100000000E-03 0. -1.
         11   -1    0    0    0    0 -0.00000000000E+00 -0.00000000000E+00 -0.45593999997E+02  0.45594000000E+02  0.51100000000E-03 0.  1.
    9900012    2    1    2    0    0  0.95352929914E+00  0.63047208420E+00  0.29387612554E+00  0.90007713446E+02  0.89999974463E+02 0.  0.
         12    1    1    2    0    0 -0.95352929914E+00 -0.63047208420E+00 -0.29387612554E+00  0.11802865544E+01  0.00000000000E+00 0. -1.
         11    1    3    3    0    0 -0.28691059074E+00 -0.73524343891E+01 -0.56316734076E+01  0.92658704267E+01  0.51100000000E-03 0. -1.
        -11    1    3    3    0    0 -0.34501492875E+02  0.11023629358E+02  0.20960295786E+02  0.41847430202E+02  0.51100000000E-03 0.  1.
         12    1    3    3    0    0  0.35741932765E+02 -0.30407228851E+01 -0.15034746253E+02  0.38894412816E+02  0.00000000000E+00 0. -1.
</event>
<event>
 7    1  0.1971192E-015  0.9000774E+02  0.7816164E-02  0.1186339E+00
        -11   -1    0    0    0    0  0.00000000000E+00  0.00000000000E+00  0.45593999997E+02  0.45594000000E+02  0.51100000000E-03 0.  1.
         11   -1    0    0    0    0 -0.00000000000E+00 -0.00000000000E+00 -0.45593999997E+02  0.45594000000E+02  0.51100000000E-03 0. -1.
    9900012    2    1    2    0    0  0.16918860108E+00  0.74933734968E+00  0.89603124988E+00  0.90007744414E+02  0.90000005841E+02 0.  0.
         12    1    1    2    0    0 -0.16918860108E+00 -0.74933734968E+00 -0.89603124988E+00  0.11802555855E+01  0.00000000000E+00 0. -1.
         11    1    3    3    0    0 -0.19970609464E+02  0.37272120400E+02  0.83137443170E+01  0.43094715991E+02  0.51100000000E-03 0. -1.
        -11    1    3    3    0    0  0.21289260379E+01 -0.43440655636E+01  0.59679827396E+01  0.76824507767E+01  0.51100000000E-03 0.  1.
        -12    1    3    3    0    0  0.18010872027E+02 -0.32178717487E+02 -0.13385695807E+02  0.39230577647E+02  0.00000000000E+00 0.  1.
</event>
<event>
 7    1  0.1971192E-015  0.9000766E+02  0.7816164E-02  0.1186339E+00
        -11   -1    0    0    0    0  0.00000000000E+00  0.00000000000E+00  0.45593999997E+02  0.45594000000E+02  0.51100000000E-03 0.  1.
         11   -1    0    0    0    0 -0.00000000000E+00 -0.00000000000E+00 -0.45593999997E+02  0.45594000000E+02  0.51100000000E-03 0. -1.
    9900012    2    1    2    0    0  0.11530016489E+01  0.20227460322E+00  0.15123710329E+00  0.90007660863E+02  0.89999921186E+02 0.  0.
         12    1    1    2    0    0 -0.11530016489E+01 -0.20227460322E+00 -0.15123710329E+00  0.11803391372E+01  0.00000000000E+00 0. -1.
         11    1    3    3    0    0 -0.29824632189E+02  0.70201138237E+01 -0.17492748986E+02  0.35281538383E+02  0.51100000000E-03 0. -1.
        -11    1    3    3    0    0 -0.22115943060E+01  0.91653260511E+01 -0.57923518546E+01  0.11065518120E+02  0.51100000000E-03 0.  1.
        -12    1    3    3    0    0  0.33189228144E+02 -0.15983165272E+02  0.23436337944E+02  0.43660604360E+02  0.00000000000E+00 0.  1.
</event>
<event>
 8    1  0.1971192E-015  0.9000783E+02  0.7816164E-02  0.1186339E+00
        -11   -1    0    0    0    0  0.00000000000E+00  0.00000000000E+00  0.45593999997E+02  0.45594000000E+02  0.51100000000E-03 0.  1.
         11   -1    0    0    0    0 -0.00000000000E+00 -0.00000000000E+00 -0.45593999997E+02  0.45594000000E+02  0.51100000000E-03 0. -1.
    9900012    2    1    2    0    0  0.61079128702E+00  0.95635663046E+00  0.32422124503E+00  0.90007829073E+02  0.90000091617E+02 0.  0.
         23    2    3    3    0    0  0.71388130963E+01  0.18885375872E+02 -0.13210614158E+02  0.66614313538E+02  0.62091274487E+02 0.  0.
         12    1    1    2    0    0 -0.61079128702E+00 -0.95635663046E+00 -0.32422124503E+00  0.11801709269E+01  0.00000000000E+00 0. -1.
         11    1    4    4    0    0  0.98133800707E+01 -0.21727234518E+02 -0.97825395575E+01  0.25769618326E+02  0.51100000000E-03 0. -1.
        -11    1    4    4    0    0 -0.26745669744E+01  0.40612610390E+02 -0.34280746005E+01  0.40844695212E+02  0.51100000000E-03 0.  1.
         12    1    3    3    0    0 -0.65280218093E+01 -0.17929019241E+02  0.13534835403E+02  0.23393515535E+02  0.00000000000E+00 0. -1.
</event>
<event>
 7    1  0.1971192E-015  0.9000775E+02  0.7816164E-02  0.1186339E+00
        -11   -1    0    0    0    0  0.00000000000E+00  0.00000000000E+00  0.45593999997E+02  0.45594000000E+02  0.51100000000E-03 0. -1.
         11   -1    0    0    0    0 -0.00000000000E+00 -0.00000000000E+00 -0.45593999997E+02  0.45594000000E+02  0.51100000000E-03 0.  1.
    9900012    2    1    2    0    0  0.11541140097E+00 -0.11710804582E+01  0.90768296857E-01  0.90007750825E+02  0.90000012336E+02 0.  0.
         12    1    1    2    0    0 -0.11541140097E+00  0.11710804582E+01 -0.90768296857E-01  0.11802491748E+01  0.00000000000E+00 0. -1.
         11    1    3    3    0    0 -0.11499619904E+02 -0.79275840201E+01  0.32582466014E+02  0.35450034388E+02  0.51100000000E-03 0. -1.
        -11    1    3    3    0    0  0.11560738787E+02 -0.16167428766E+02 -0.92835444372E+01  0.21936741594E+02  0.51100000000E-03 0.  1.
        -12    1    3    3    0    0  0.54292517979E-01  0.22923932328E+02 -0.23208153280E+02  0.32620974843E+02  0.00000000000E+00 0.  1.
</event>
<event>
 7    1  0.1971192E-015  0.9000777E+02  0.7816164E-02  0.1186339E+00
        -11   -1    0    0    0    0  0.00000000000E+00  0.00000000000E+00  0.45593999997E+02  0.45594000000E+02  0.51100000000E-03 0.  1.
         11   -1    0    0    0    0 -0.00000000000E+00 -0.00000000000E+00 -0.45593999997E+02  0.45594000000E+02  0.51100000000E-03 0. -1.
    9900012    2    1    2    0    0  0.32335071959E+00 -0.42399214016E+00  0.10529041850E+01  0.90007774494E+02  0.90000036317E+02 0.  0.
         12    1    1    2    0    0 -0.32335071959E+00  0.42399214016E+00 -0.10529041850E+01  0.11802255062E+01  0.00000000000E+00 0. -1.
         11    1    3    3    0    0 -0.11162350494E+02 -0.38386334099E+02 -0.42748919923E+01  0.40204271115E+02  0.51100000000E-03 0. -1.
        -11    1    3    3    0    0  0.58785287091E+01  0.36170133476E+00 -0.76306388478E+01  0.96392207738E+01  0.51100000000E-03 0.  1.
        -12    1    3    3    0    0  0.56071725040E+01  0.37600640624E+02  0.12958435025E+02  0.40164282605E+02  0.00000000000E+00 0.  1.
</event>
<event>
 7    1  0.1971192E-015  0.9000775E+02  0.7816164E-02  0.1186339E+00
        -11   -1    0    0    0    0  0.00000000000E+00  0.00000000000E+00  0.45593999997E+02  0.45594000000E+02  0.51100000000E-03 0.  1.
         11   -1    0    0    0    0 -0.00000000000E+00 -0.00000000000E+00 -0.45593999997E+02  0.45594000000E+02  0.51100000000E-03 0. -1.
    9900012    2    1    2    0    0  0.54200436242E+00  0.91426377582E+00  0.51317185417E+00  0.90007749038E+02  0.90000010526E+02 0.  0.
         12    1    1    2    0    0 -0.54200436242E+00 -0.91426377582E+00 -0.51317185417E+00  0.11802509617E+01  0.00000000000E+00 0. -1.
         11    1    3    3    0    0  0.11436123452E+01 -0.23428211984E+01  0.87304602235E+01  0.91113992525E+01  0.51100000000E-03 0. -1.
        -11    1    3    3    0    0 -0.63344420286E+01 -0.28501376694E+02  0.22099879883E+02  0.36617732321E+02  0.51100000000E-03 0.  1.
         12    1    3    3    0    0  0.57328340459E+01  0.31758461668E+02 -0.30317168253E+02  0.44278617464E+02  0.00000000000E+00 0. -1.
</event>
<event>
 7    1  0.1971192E-015  0.9000772E+02  0.7816164E-02  0.1186339E+00
        -11   -1    0    0    0    0  0.00000000000E+00  0.00000000000E+00  0.45593999997E+02  0.45594000000E+02  0.51100000000E-03 0.  1.
         11   -1    0    0    0    0 -0.00000000000E+00 -0.00000000000E+00 -0.45593999997E+02  0.45594000000E+02  0.51100000000E-03 0. -1.
    9900012    2    1    2    0    0 -0.45275917717E+00 -0.54169641931E-01  0.10886409830E+01  0.90007718503E+02  0.89999979587E+02 0.  0.
         12    1    1    2    0    0  0.45275917717E+00  0.54169641931E-01 -0.10886409830E+01  0.11802814972E+01  0.00000000000E+00 0. -1.
         11    1    3    3    0    0  0.10687345193E+02 -0.12554289164E+02 -0.35241458648E+02  0.38907453420E+02  0.51100000000E-03 0. -1.
        -11    1    3    3    0    0 -0.13233609097E+02  0.36655866948E+00  0.53812438161E+00  0.13249617093E+02  0.51100000000E-03 0.  1.
        -12    1    3    3    0    0  0.20935047264E+01  0.12133560852E+02  0.35791975250E+02  0.37850647990E+02  0.00000000000E+00 0.  1.
</event>
<event>
 7    1  0.1971192E-015  0.9000793E+02  0.7816164E-02  0.1186339E+00
        -11   -1    0    0    0    0  0.00000000000E+00  0.00000000000E+00  0.45593999997E+02  0.45594000000E+02  0.51100000000E-03 0.  1.
         11   -1    0    0    0    0 -0.00000000000E+00 -0.00000000000E+00 -0.45593999997E+02  0.45594000000E+02  0.51100000000E-03 0. -1.
    9900012    2    1    2    0    0 -0.18917238621E+00 -0.92244958523E+00  0.71123627280E+00  0.90007933703E+02  0.90000197628E+02 0.  0.
         12    1    1    2    0    0  0.18917238621E+00  0.92244958523E+00 -0.71123627280E+00  0.11800662968E+01  0.00000000000E+00 0. -1.
         11    1    3    3    0    0  0.30616535322E+01  0.56658882680E+01  0.50514248973E+01  0.81849194236E+01  0.51100000000E-03 0. -1.
        -11    1    3    3    0    0 -0.23547178545E+02  0.28338846957E+02 -0.15409636118E+02  0.39937660795E+02  0.51100000000E-03 0.  1.
         12    1    3    3    0    0  0.20296352627E+02 -0.34927184810E+02  0.11069447493E+02  0.41885353484E+02  0.00000000000E+00 0. -1.
</event>
<event>
 7    1  0.1971192E-015  0.9000778E+02  0.7816164E-02  0.1186339E+00
        -11   -1    0    0    0    0  0.00000000000E+00  0.00000000000E+00  0.45593999997E+02  0.45594000000E+02  0.51100000000E-03 0. -1.
         11   -1    0    0    0    0 -0.00000000000E+00 -0.00000000000E+00 -0.45593999997E+02  0.45594000000E+02  0.51100000000E-03 0.  1.
    9900012    2    1    2    0    0 -0.70343981935E+00  0.48582597672E+00  0.81367127084E+00  0.90007781632E+02  0.90000043550E+02 0.  0.
         12    1    1    2    0    0  0.70343981935E+00 -0.48582597672E+00 -0.81367127084E+00  0.11802183680E+01  0.00000000000E+00 0. -1.
         11    1    3    3    0    0 -0.63149412668E+00  0.38437892136E+00  0.99698807479E+01  0.99972523413E+01  0.51100000000E-03 0. -1.
        -11    1    3    3    0    0  0.28907794285E+01  0.34877834107E+02 -0.23628041312E+02  0.42226819134E+02  0.51100000000E-03 0.  1.
         12    1    3    3    0    0 -0.29627251211E+01 -0.34776387052E+02  0.14471831835E+02  0.37783710156E+02  0.00000000000E+00 0. -1.
</event>
<event>
 7    1  0.1971192E-015  0.9000761E+02  0.7816164E-02  0.1186339E+00
        -11   -1    0    0    0    0  0.00000000000E+00  0.00000000000E+00  0.45593999997E+02  0.45594000000E+02  0.51100000000E-03 0.  1.
         11   -1    0    0    0    0 -0.00000000000E+00 -0.00000000000E+00 -0.45593999997E+02  0.45594000000E+02  0.51100000000E-03 0. -1.
    9900012    2    1    2    0    0 -0.10958584426E+01 -0.43734639326E+00  0.33876219333E-01  0.90007608035E+02  0.89999867660E+02 0.  0.
         12    1    1    2    0    0  0.10958584426E+01  0.43734639326E+00 -0.33876219333E-01  0.11803919655E+01  0.00000000000E+00 0. -1.
         11    1    3    3    0    0 -0.24122426519E+01  0.68605668380E+01  0.58232309880E+01  0.93164537970E+01  0.51100000000E-03 0. -1.
        -11    1    3    3    0    0 -0.39193646093E+02 -0.23740886786E+01 -0.69037090032E+01  0.39867773820E+02  0.51100000000E-03 0.  1.
         12    1    3    3    0    0  0.40510030302E+02 -0.49238245527E+01  0.11143542345E+01  0.40823380417E+02  0.00000000000E+00 0. -1.
</event>
<event>
 7    1  0.1971192E-015  0.9000774E+02  0.7816164E-02  0.1186339E+00
        -11   -1    0    0    0    0  0.00000000000E+00  0.00000000000E+00  0.45593999997E+02  0.45594000000E+02  0.51100000000E-03 0. -1.
         11   -1    0    0    0    0 -0.00000000000E+00 -0.00000000000E+00 -0.45593999997E+02  0.45594000000E+02  0.51100000000E-03 0.  1.
    9900012    2    1    2    0    0  0.16808408117E+00 -0.15749951934E+00 -0.11575662977E+01  0.90007738126E+02  0.89999999470E+02 0.  0.
         12    1    1    2    0    0 -0.16808408117E+00  0.15749951934E+00  0.11575662977E+01  0.11802618737E+01  0.00000000000E+00 0. -1.
         11    1    3    3    0    0  0.67423203868E+01  0.81456088700E+01 -0.31190774724E+01  0.11024448857E+02  0.51100000000E-03 0. -1.
        -11    1    3    3    0    0 -0.44423604816E+01  0.27645891265E+02 -0.22100970377E+02  0.35671876350E+02  0.51100000000E-03 0.  1.
         12    1    3    3    0    0 -0.21318758240E+01 -0.35948999654E+02  0.24062481552E+02  0.43311412919E+02  0.00000000000E+00 0. -1.
</event>
<event>
 7    1  0.1971192E-015  0.9000732E+02  0.7816164E-02  0.1186340E+00
        -11   -1    0    0    0    0  0.00000000000E+00  0.00000000000E+00  0.45593999997E+02  0.45594000000E+02  0.51100000000E-03 0. -1.
         11   -1    0    0    0    0 -0.00000000000E+00 -0.00000000000E+00 -0.45593999997E+02  0.45594000000E+02  0.51100000000E-03 0.  1.
    9900012    2    1    2    0    0 -0.81830968883E+00  0.22579315255E+00 -0.82061084243E+00  0.90007315686E+02  0.89999571452E+02 0.  0.
         12    1    1    2    0    0  0.81830968883E+00 -0.22579315255E+00  0.82061084243E+00  0.11806843140E+01  0.00000000000E+00 0. -1.
         11    1    3    3    0    0 -0.20970872585E+02  0.30045777620E+02  0.15131305059E+01  0.36671730447E+02  0.51100000000E-03 0. -1.
        -11    1    3    3    0    0 -0.87506029538E+01  0.15369593685E+01 -0.57023771972E+01  0.10557101975E+02  0.51100000000E-03 0.  1.
        -12    1    3    3    0    0  0.28903165850E+02 -0.31356943836E+02  0.33686358489E+01  0.42778483264E+02  0.00000000000E+00 0.  1.
</event>
<event>
 7    1  0.1971192E-015  0.9000780E+02  0.7816164E-02  0.1186339E+00
        -11   -1    0    0    0    0  0.00000000000E+00  0.00000000000E+00  0.45593999997E+02  0.45594000000E+02  0.51100000000E-03 0. -1.
         11   -1    0    0    0    0 -0.00000000000E+00 -0.00000000000E+00 -0.45593999997E+02  0.45594000000E+02  0.51100000000E-03 0.  1.
    9900012    2    1    2    0    0 -0.54899342644E+00  0.19774126584E+00  0.10258532398E+01  0.90007800754E+02  0.90000062924E+02 0.  0.
         12    1    1    2    0    0  0.54899342644E+00 -0.19774126584E+00 -0.10258532398E+01  0.11801992459E+01  0.00000000000E+00 0. -1.
         11    1    3    3    0    0 -0.11741831628E+02  0.14375553836E+02  0.27490626884E+02  0.33170193319E+02  0.51100000000E-03 0. -1.
        -11    1    3    3    0    0 -0.68870704187E+01  0.53041852149E+01  0.90038706017E+01  0.12515422718E+02  0.51100000000E-03 0.  1.
        -12    1    3    3    0    0  0.18079908620E+02 -0.19481997785E+02 -0.35468644246E+02  0.44322184717E+02  0.00000000000E+00 0.  1.
</event>
<event>
 7    1  0.1971192E-015  0.9000775E+02  0.7816164E-02  0.1186339E+00
        -11   -1    0    0    0    0  0.00000000000E+00  0.00000000000E+00  0.45593999997E+02  0.45594000000E+02  0.51100000000E-03 0.  1.
         11   -1    0    0    0    0 -0.00000000000E+00 -0.00000000000E+00 -0.45593999997E+02  0.45594000000E+02  0.51100000000E-03 0. -1.
    9900012    2    1    2    0    0  0.29663028617E+00 -0.48514275411E+00  0.10342344535E+01  0.90007748364E+02  0.90000009843E+02 0.  0.
         12    1    1    2    0    0 -0.29663028617E+00  0.48514275411E+00 -0.10342344535E+01  0.11802516356E+01  0.00000000000E+00 0. -1.
         11    1    3    3    0    0 -0.33011870077E+01  0.79317393808E+01 -0.61595696257E+00  0.86133459530E+01  0.51100000000E-03 0. -1.
        -11    1    3    3    0    0  0.88159465543E+00  0.35077123989E+02 -0.96178054876E+01  0.36382468568E+02  0.51100000000E-03 0.  1.
         12    1    3    3    0    0  0.27162226384E+01 -0.43494006124E+02  0.11267996904E+02  0.45011933843E+02  0.00000000000E+00 0. -1.
</event>
<event>
 7    1  0.1971192E-015  0.9000774E+02  0.7816164E-02  0.1186339E+00
        -11   -1    0    0    0    0  0.00000000000E+00  0.00000000000E+00  0.45593999997E+02  0.45594000000E+02  0.51100000000E-03 0. -1.
         11   -1    0    0    0    0 -0.00000000000E+00 -0.00000000000E+00 -0.45593999997E+02  0.45594000000E+02  0.51100000000E-03 0.  1.
    9900012    2    1    2    0    0 -0.71542071052E+00 -0.80081283998E+00 -0.48978132841E+00  0.90007739966E+02  0.90000001334E+02 0.  0.
         12    1    1    2    0    0  0.71542071052E+00  0.80081283998E+00  0.48978132841E+00  0.11802600338E+01  0.00000000000E+00 0. -1.
         11    1    3    3    0    0  0.19994123106E+02  0.10900527986E+02 -0.30070142208E+02  0.37720020173E+02  0.51100000000E-03 0. -1.
        -11    1    3    3    0    0 -0.31134739705E+01  0.81991028575E+01 -0.38585596776E+01  0.95816225598E+01  0.51100000000E-03 0.  1.
        -12    1    3    3    0    0 -0.17596069847E+02 -0.19900443683E+02  0.33438920558E+02  0.42706097233E+02  0.00000000000E+00 0.  1.
</event>
<event>
 7    1  0.1971192E-015  0.9000775E+02  0.7816164E-02  0.1186339E+00
        -11   -1    0    0    0    0  0.00000000000E+00  0.00000000000E+00  0.45593999997E+02  0.45594000000E+02  0.51100000000E-03 0. -1.
         11   -1    0    0    0    0 -0.00000000000E+00 -0.00000000000E+00 -0.45593999997E+02  0.45594000000E+02  0.51100000000E-03 0.  1.
    9900012    2    1    2    0    0 -0.11321853562E+01  0.33110382732E+00 -0.39027527045E-01  0.90007747242E+02  0.90000008705E+02 0.  0.
         12    1    1    2    0    0  0.11321853562E+01 -0.33110382732E+00  0.39027527045E-01  0.11802527581E+01  0.00000000000E+00 0. -1.
         11    1    3    3    0    0 -0.34255879933E+02 -0.10397245418E+02 -0.22736249352E+02  0.42408785140E+02  0.51100000000E-03 0. -1.
        -11    1    3    3    0    0  0.22853281307E+01 -0.62010942408E+01  0.27547173398E+01  0.71599415033E+01  0.51100000000E-03 0.  1.
        -12    1    3    3    0    0  0.30838366446E+02  0.16929443486E+02  0.19942504485E+02  0.40439020598E+02  0.00000000000E+00 0.  1.
</event>
<event>
 7    1  0.1971192E-015  0.9000779E+02  0.7816164E-02  0.1186339E+00
        -11   -1    0    0    0    0  0.00000000000E+00  0.00000000000E+00  0.45593999997E+02  0.45594000000E+02  0.51100000000E-03 0. -1.
         11   -1    0    0    0    0 -0.00000000000E+00 -0.00000000000E+00 -0.45593999997E+02  0.45594000000E+02  0.51100000000E-03 0.  1.
    9900012    2    1    2    0    0  0.58082407547E+00  0.31491730930E+00 -0.97793384678E+00  0.90007794879E+02  0.90000056972E+02 0.  0.
         12    1    1    2    0    0 -0.58082407547E+00 -0.31491730930E+00  0.97793384678E+00  0.11802051207E+01  0.00000000000E+00 0. -1.
         11    1    3    3    0    0 -0.40906109623E+02 -0.52302522702E+01 -0.14981292339E+02  0.43876012395E+02  0.51100000000E-03 0. -1.
        -11    1    3    3    0    0  0.85055311687E+01 -0.41328689998E+01  0.44851929529E+01  0.10466213390E+02  0.51100000000E-03 0.  1.
        -12    1    3    3    0    0  0.32981402530E+02  0.96780385793E+01  0.95181655392E+01  0.35665569094E+02  0.00000000000E+00 0.  1.
</event>
<event>
 7    1  0.1971192E-015  0.9000774E+02  0.7816164E-02  0.1186339E+00
        -11   -1    0    0    0    0  0.00000000000E+00  0.00000000000E+00  0.45593999997E+02  0.45594000000E+02  0.51100000000E-03 0.  1.
         11   -1    0    0    0    0 -0.00000000000E+00 -0.00000000000E+00 -0.45593999997E+02  0.45594000000E+02  0.51100000000E-03 0. -1.
    9900012    2    1    2    0    0  0.57525047362E+00  0.71662993310E+00  0.74063186911E+00  0.90007742768E+02  0.90000004172E+02 0.  0.
         12    1    1    2    0    0 -0.57525047362E+00 -0.71662993310E+00 -0.74063186911E+00  0.11802572321E+01  0.00000000000E+00 0. -1.
         11    1    3    3    0    0  0.91108453650E+01  0.17534853804E+02  0.11078164780E+02  0.22654013692E+02  0.51100000000E-03 0. -1.
        -11    1    3    3    0    0 -0.16204769347E+01 -0.79358336630E+01  0.27087441063E+02  0.28272475396E+02  0.51100000000E-03 0.  1.
         12    1    3    3    0    0 -0.69151179567E+01 -0.88823902080E+01 -0.37424973975E+02  0.39081253679E+02  0.00000000000E+00 0. -1.
</event>
<event>
 7    1  0.1971192E-015  0.9000772E+02  0.7816164E-02  0.1186339E+00
        -11   -1    0    0    0    0  0.00000000000E+00  0.00000000000E+00  0.45593999997E+02  0.45594000000E+02  0.51100000000E-03 0.  1.
         11   -1    0    0    0    0 -0.00000000000E+00 -0.00000000000E+00 -0.45593999997E+02  0.45594000000E+02  0.51100000000E-03 0. -1.
    9900012    2    1    2    0    0  0.11738533457E+01  0.11957707098E+00 -0.28968483429E-01  0.90007716337E+02  0.89999977392E+02 0.  0.
         12    1    1    2    0    0 -0.11738533457E+01 -0.11957707098E+00  0.28968483429E-01  0.11802836634E+01  0.00000000000E+00 0. -1.
         11    1    3    3    0    0  0.30434273842E+02 -0.19078409178E+02 -0.18894010438E+02  0.40585888579E+02  0.51100000000E-03 0. -1.
        -11    1    3    3    0    0 -0.28615966191E+01 -0.75629658112E+01  0.31289867028E+01  0.86705100842E+01  0.51100000000E-03 0.  1.
        -12    1    3    3    0    0 -0.26398823877E+02  0.26760952060E+02  0.15736055252E+02  0.40751317674E+02  0.00000000000E+00 0.  1.
</event>
<event>
 7    1  0.1971192E-015  0.9000780E+02  0.7816164E-02  0.1186339E+00
        -11   -1    0    0    0    0  0.00000000000E+00  0.00000000000E+00  0.45593999997E+02  0.45594000000E+02  0.51100000000E-03 0.  1.
         11   -1    0    0    0    0 -0.00000000000E+00 -0.00000000000E+00 -0.45593999997E+02  0.45594000000E+02  0.51100000000E-03 0. -1.
    9900012    2    1    2    0    0  0.94758308839E+00 -0.62812089319E+00 -0.31688614187E+00  0.90007802392E+02  0.90000064584E+02 0.  0.
         12    1    1    2    0    0 -0.94758308839E+00  0.62812089319E+00  0.31688614187E+00  0.11801976075E+01  0.00000000000E+00 0. -1.
         11    1    3    3    0    0 -0.31918082662E+00 -0.10109163021E+02 -0.20526409664E+01  0.10320387036E+02  0.51100000000E-03 0. -1.
        -11    1    3    3    0    0  0.96307778873E+01 -0.12932459694E+02  0.35103537081E+02  0.38629764591E+02  0.51100000000E-03 0.  1.
         12    1    3    3    0    0 -0.83640139723E+01  0.22413501822E+02 -0.33367782256E+02  0.41057650765E+02  0.00000000000E+00 0. -1.
</event>
<event>
 7    1  0.1971192E-015  0.9000771E+02  0.7816164E-02  0.1186339E+00
        -11   -1    0    0    0    0  0.00000000000E+00  0.00000000000E+00  0.45593999997E+02  0.45594000000E+02  0.51100000000E-03 0. -1.
         11   -1    0    0    0    0 -0.00000000000E+00 -0.00000000000E+00 -0.45593999997E+02  0.45594000000E+02  0.51100000000E-03 0.  1.
    9900012    2    1    2    0    0  0.64335891741E+00 -0.49891349896E+00 -0.85455774658E+00  0.90007705834E+02  0.89999966751E+02 0.  0.
         12    1    1    2    0    0 -0.64335891741E+00  0.49891349896E+00  0.85455774658E+00  0.11802941660E+01  0.00000000000E+00 0. -1.
         11    1    3    3    0    0 -0.27545527306E+01  0.98053389560E+01 -0.96770120901E+01  0.14049085239E+02  0.51100000000E-03 0. -1.
        -11    1    3    3    0    0  0.10207534335E+02 -0.13478365825E+02 -0.31065958219E+02  0.35368826144E+02  0.51100000000E-03 0.  1.
         12    1    3    3    0    0 -0.68096226865E+01  0.31741133700E+01  0.39888412563E+02  0.40589794451E+02  0.00000000000E+00 0. -1.
</event>
<event>
 7    1  0.1971192E-015  0.9000773E+02  0.7816164E-02  0.1186339E+00
        -11   -1    0    0    0    0  0.00000000000E+00  0.00000000000E+00  0.45593999997E+02  0.45594000000E+02  0.51100000000E-03 0. -1.
         11   -1    0    0    0    0 -0.00000000000E+00 -0.00000000000E+00 -0.45593999997E+02  0.45594000000E+02  0.51100000000E-03 0.  1.
    9900012    2    1    2    0    0  0.45208764984E+00 -0.99068453166E+00 -0.45519592169E+00  0.90007727823E+02  0.89999989030E+02 0.  0.
         12    1    1    2    0    0 -0.45208764984E+00  0.99068453166E+00  0.45519592169E+00  0.11802721769E+01  0.00000000000E+00 0. -1.
         11    1    3    3    0    0 -0.26594093561E+02 -0.13928729587E+01  0.22178898970E+02  0.34656737688E+02  0.51100000000E-03 0. -1.
        -11    1    3    3    0    0 -0.10263172103E+02 -0.57518489534E+01 -0.10520718922E+01  0.11811999133E+02  0.51100000000E-03 0.  1.
        -12    1    3    3    0    0  0.37309353313E+02  0.61540373804E+01 -0.21582022999E+02  0.43538991002E+02  0.00000000000E+00 0.  1.
</event>
<event>
 7    1  0.1971192E-015  0.9000775E+02  0.7816164E-02  0.1186339E+00
        -11   -1    0    0    0    0  0.00000000000E+00  0.00000000000E+00  0.45593999997E+02  0.45594000000E+02  0.51100000000E-03 0.  1.
         11   -1    0    0    0    0 -0.00000000000E+00 -0.00000000000E+00 -0.45593999997E+02  0.45594000000E+02  0.51100000000E-03 0. -1.
    9900012    2    1    2    0    0 -0.11317735199E+01 -0.31550369797E+00 -0.11201046459E+00  0.90007745694E+02  0.90000007137E+02 0.  0.
         12    1    1    2    0    0  0.11317735199E+01  0.31550369797E+00  0.11201046459E+00  0.11802543064E+01  0.00000000000E+00 0. -1.
         11    1    3    3    0    0  0.73013419577E+01 -0.22716194671E+01 -0.84758919519E+01  0.11415366574E+02  0.51100000000E-03 0. -1.
        -11    1    3    3    0    0  0.32161259785E+02  0.13149865762E+02 -0.32870804106E+01  0.34900866728E+02  0.51100000000E-03 0.  1.
         12    1    3    3    0    0 -0.40594375263E+02 -0.11193749993E+02  0.11650961898E+02  0.43691512391E+02  0.00000000000E+00 0. -1.
</event>
<event>
 7    1  0.1971192E-015  0.9000785E+02  0.7816164E-02  0.1186339E+00
        -11   -1    0    0    0    0  0.00000000000E+00  0.00000000000E+00  0.45593999997E+02  0.45594000000E+02  0.51100000000E-03 0. -1.
         11   -1    0    0    0    0 -0.00000000000E+00 -0.00000000000E+00 -0.45593999997E+02  0.45594000000E+02  0.51100000000E-03 0.  1.
    9900012    2    1    2    0    0  0.60597351650E+00  0.99270786591E+00 -0.20020042701E+00  0.90007850424E+02  0.90000113250E+02 0.  0.
         12    1    1    2    0    0 -0.60597351650E+00 -0.99270786591E+00  0.20020042701E+00  0.11801495756E+01  0.00000000000E+00 0. -1.
         11    1    3    3    0    0  0.21434493491E+01  0.40213176580E+02 -0.15013474489E+02  0.42977882244E+02  0.51100000000E-03 0. -1.
        -11    1    3    3    0    0  0.41278420563E+01 -0.84363938245E+01 -0.43267192520E+01  0.10340808506E+02  0.51100000000E-03 0.  1.
        -12    1    3    3    0    0 -0.56653178889E+01 -0.30784074889E+02  0.19139993314E+02  0.36689159674E+02  0.00000000000E+00 0.  1.
</event>
<event>
 7    1  0.1971192E-015  0.9000771E+02  0.7816164E-02  0.1186339E+00
        -11   -1    0    0    0    0  0.00000000000E+00  0.00000000000E+00  0.45593999997E+02  0.45594000000E+02  0.51100000000E-03 0.  1.
         11   -1    0    0    0    0 -0.00000000000E+00 -0.00000000000E+00 -0.45593999997E+02  0.45594000000E+02  0.51100000000E-03 0. -1.
    9900012    2    1    2    0    0  0.33484540505E+00  0.44746654211E-01  0.11309103037E+01  0.90007711127E+02  0.89999972114E+02 0.  0.
         12    1    1    2    0    0 -0.33484540505E+00 -0.44746654211E-01 -0.11309103037E+01  0.11802888729E+01  0.00000000000E+00 0. -1.
         11    1    3    3    0    0  0.87884707847E+01  0.28017713986E+01  0.49063872894E+01  0.10447955695E+02  0.51100000000E-03 0. -1.
        -11    1    3    3    0    0  0.12342445535E+02  0.26070639693E+02  0.21472645961E+02  0.35959543109E+02  0.51100000000E-03 0.  1.
         12    1    3    3    0    0 -0.20796070915E+02 -0.28827664437E+02 -0.25248122946E+02  0.43600212324E+02  0.00000000000E+00 0. -1.
</event>
<event>
 7    1  0.1971192E-015  0.9000773E+02  0.7816164E-02  0.1186339E+00
        -11   -1    0    0    0    0  0.00000000000E+00  0.00000000000E+00  0.45593999997E+02  0.45594000000E+02  0.51100000000E-03 0. -1.
         11   -1    0    0    0    0 -0.00000000000E+00 -0.00000000000E+00 -0.45593999997E+02  0.45594000000E+02  0.51100000000E-03 0.  1.
    9900012    2    1    2    0    0  0.31234115543E+00  0.33254743493E+00 -0.10885323650E+01  0.90007725666E+02  0.89999986845E+02 0.  0.
         12    1    1    2    0    0 -0.31234115543E+00 -0.33254743493E+00  0.10885323650E+01  0.11802743340E+01  0.00000000000E+00 0. -1.
         11    1    3    3    0    0 -0.76706978039E+01 -0.53574745916E+01 -0.35660678282E+01  0.10012940568E+02  0.51100000000E-03 0. -1.
        -11    1    3    3    0    0 -0.10964066637E+02  0.69356099144E+01 -0.35357406677E+02  0.37662443485E+02  0.51100000000E-03 0.  1.
         12    1    3    3    0    0  0.18947105597E+02 -0.12455878878E+01  0.37834942140E+02  0.42332341613E+02  0.00000000000E+00 0. -1.
</event>
<event>
 7    1  0.1971192E-015  0.9000769E+02  0.7816164E-02  0.1186339E+00
        -11   -1    0    0    0    0  0.00000000000E+00  0.00000000000E+00  0.45593999997E+02  0.45594000000E+02  0.51100000000E-03 0.  1.
         11   -1    0    0    0    0 -0.00000000000E+00 -0.00000000000E+00 -0.45593999997E+02  0.45594000000E+02  0.51100000000E-03 0. -1.
    9900012    2    1    2    0    0 -0.94275060389E-01 -0.39691259118E+00  0.11075700916E+01  0.90007686948E+02  0.89999947616E+02 0.  0.
         12    1    1    2    0    0  0.94275060389E-01  0.39691259118E+00 -0.11075700916E+01  0.11803130516E+01  0.00000000000E+00 0. -1.
         11    1    3    3    0    0 -0.36025636932E+01  0.92787194400E+01 -0.20256125235E+01  0.10157568900E+02  0.51100000000E-03 0. -1.
        -11    1    3    3    0    0  0.13304767974E+02  0.67043324455E+00  0.39023666472E+02  0.41234850269E+02  0.51100000000E-03 0.  1.
         12    1    3    3    0    0 -0.97964793409E+01 -0.10346065276E+02 -0.35890483857E+02  0.38615267779E+02  0.00000000000E+00 0. -1.
</event>
<event>
 7    1  0.1971192E-015  0.9000815E+02  0.7816164E-02  0.1186338E+00
        -11   -1    0    0    0    0  0.00000000000E+00  0.00000000000E+00  0.45593999997E+02  0.45594000000E+02  0.51100000000E-03 0.  1.
         11   -1    0    0    0    0 -0.00000000000E+00 -0.00000000000E+00 -0.45593999997E+02  0.45594000000E+02  0.51100000000E-03 0. -1.
    9900012    2    1    2    0    0 -0.85823433209E-02  0.11640186716E+01  0.19242702690E+00  0.90008152008E+02  0.90000418813E+02 0.  0.
         12    1    1    2    0    0  0.85823433209E-02 -0.11640186716E+01 -0.19242702690E+00  0.11798479924E+01  0.00000000000E+00 0. -1.
         11    1    3    3    0    0  0.36449206019E+01  0.23941098546E+01 -0.80737042805E+01  0.91761598319E+01  0.51100000000E-03 0. -1.
        -11    1    3    3    0    0  0.24589359448E+02  0.29669460542E+02  0.46441635665E+01  0.38813422194E+02  0.51100000000E-03 0.  1.
         12    1    3    3    0    0 -0.28242862393E+02 -0.30899551725E+02  0.36219677409E+01  0.42018569982E+02  0.00000000000E+00 0. -1.
</event>
<event>
 7    1  0.1971192E-015  0.9000772E+02  0.7816164E-02  0.1186339E+00
        -11   -1    0    0    0    0  0.00000000000E+00  0.00000000000E+00  0.45593999997E+02  0.45594000000E+02  0.51100000000E-03 0. -1.
         11   -1    0    0    0    0 -0.00000000000E+00 -0.00000000000E+00 -0.45593999997E+02  0.45594000000E+02  0.51100000000E-03 0.  1.
    9900012    2    1    2    0    0  0.80493411288E+00 -0.83381707662E+00 -0.22333904011E+00  0.90007724536E+02  0.89999985700E+02 0.  0.
         12    1    1    2    0    0 -0.80493411288E+00  0.83381707662E+00  0.22333904011E+00  0.11802754637E+01  0.00000000000E+00 0. -1.
         11    1    3    3    0    0 -0.35508804655E+01  0.40729150145E+02 -0.70288655082E+01  0.41483459043E+02  0.51100000000E-03 0. -1.
        -11    1    3    3    0    0 -0.34203290806E+01 -0.62867021684E+01 -0.68494486942E+01  0.99063728402E+01  0.51100000000E-03 0.  1.
        -12    1    3    3    0    0  0.77761436590E+01 -0.35276265053E+02  0.13654975162E+02  0.38617892653E+02  0.00000000000E+00 0.  1.
</event>
<event>
 7    1  0.1971192E-015  0.9000769E+02  0.7816164E-02  0.1186339E+00
        -11   -1    0    0    0    0  0.00000000000E+00  0.00000000000E+00  0.45593999997E+02  0.45594000000E+02  0.51100000000E-03 0. -1.
         11   -1    0    0    0    0 -0.00000000000E+00 -0.00000000000E+00 -0.45593999997E+02  0.45594000000E+02  0.51100000000E-03 0.  1.
    9900012    2    1    2    0    0 -0.39694928389E+00  0.58697341345E+00 -0.94394684135E+00  0.90007685567E+02  0.89999946216E+02 0.  0.
         12    1    1    2    0    0  0.39694928389E+00 -0.58697341345E+00  0.94394684135E+00  0.11803144333E+01  0.00000000000E+00 0. -1.
         11    1    3    3    0    0 -0.28566198556E+02  0.10491060214E+02  0.21515741604E+01  0.30507692735E+02  0.51100000000E-03 0. -1.
        -11    1    3    3    0    0 -0.12934025991E+02  0.71847714838E+01 -0.23395733139E+01  0.14979438346E+02  0.51100000000E-03 0.  1.
        -12    1    3    3    0    0  0.41103275263E+02 -0.17088858285E+02 -0.75594768790E+00  0.44520554486E+02  0.00000000000E+00 0.  1.
</event>
<event>
 7    1  0.1971192E-015  0.9000768E+02  0.7816164E-02  0.1186339E+00
        -11   -1    0    0    0    0  0.00000000000E+00  0.00000000000E+00  0.45593999997E+02  0.45594000000E+02  0.51100000000E-03 0. -1.
         11   -1    0    0    0    0 -0.00000000000E+00 -0.00000000000E+00 -0.45593999997E+02  0.45594000000E+02  0.51100000000E-03 0.  1.
    9900012    2    1    2    0    0 -0.98083518436E+00  0.55413692869E+00 -0.35222217155E+00  0.90007675531E+02  0.89999936048E+02 0.  0.
         12    1    1    2    0    0  0.98083518436E+00 -0.55413692869E+00  0.35222217155E+00  0.11803244693E+01  0.00000000000E+00 0. -1.
         11    1    3    3    0    0 -0.51854372421E+01  0.29251406866E+02  0.28601282792E+02  0.41237930848E+02  0.51100000000E-03 0. -1.
        -11    1    3    3    0    0  0.51120421198E+01  0.37642207416E+01 -0.76063435962E+01  0.99075120788E+01  0.51100000000E-03 0.  1.
        -12    1    3    3    0    0 -0.90744006205E+00 -0.32461490679E+02 -0.21347161367E+02  0.38862232604E+02  0.00000000000E+00 0.  1.
</event>
<event>
 7    1  0.1971192E-015  0.9000775E+02  0.7816164E-02  0.1186339E+00
        -11   -1    0    0    0    0  0.00000000000E+00  0.00000000000E+00  0.45593999997E+02  0.45594000000E+02  0.51100000000E-03 0.  1.
         11   -1    0    0    0    0 -0.00000000000E+00 -0.00000000000E+00 -0.45593999997E+02  0.45594000000E+02  0.51100000000E-03 0. -1.
    9900012    2    1    2    0    0  0.31796904566E+00 -0.27705885078E+00  0.11023261996E+01  0.90007750462E+02  0.90000011968E+02 0.  0.
         12    1    1    2    0    0 -0.31796904566E+00  0.27705885078E+00 -0.11023261996E+01  0.11802495377E+01  0.00000000000E+00 0. -1.
         11    1    3    3    0    0 -0.99333879289E+01 -0.23859414562E+01 -0.30613080233E+01  0.10664732507E+02  0.51100000000E-03 0. -1.
        -11    1    3    3    0    0 -0.89715564394E+01  0.37189649288E+02  0.82392690145E+01  0.39133673393E+02  0.51100000000E-03 0.  1.
         12    1    3    3    0    0  0.19222913414E+02 -0.35080766682E+02 -0.40756347916E+01  0.40209344562E+02  0.00000000000E+00 0. -1.
</event>
<event>
 7    1  0.1971192E-015  0.9000775E+02  0.7816164E-02  0.1186339E+00
        -11   -1    0    0    0    0  0.00000000000E+00  0.00000000000E+00  0.45593999997E+02  0.45594000000E+02  0.51100000000E-03 0.  1.
         11   -1    0    0    0    0 -0.00000000000E+00 -0.00000000000E+00 -0.45593999997E+02  0.45594000000E+02  0.51100000000E-03 0. -1.
    9900012    2    1    2    0    0  0.61831370283E+00 -0.69443782956E-01  0.10029286807E+01  0.90007745700E+02  0.90000007143E+02 0.  0.
         12    1    1    2    0    0 -0.61831370283E+00  0.69443782956E-01 -0.10029286807E+01  0.11802543000E+01  0.00000000000E+00 0. -1.
         11    1    3    3    0    0  0.11759781908E+02  0.13260803216E+02 -0.31325992279E+02  0.35992487619E+02  0.51100000000E-03 0. -1.
        -11    1    3    3    0    0  0.59665472203E+01  0.83567439545E+01 -0.14610419606E+01  0.10371571681E+02  0.51100000000E-03 0.  1.
        -12    1    3    3    0    0 -0.17108015426E+02 -0.21686990954E+02  0.33789962921E+02  0.43643686400E+02  0.00000000000E+00 0.  1.
</event>
<event>
 7    1  0.1971192E-015  0.9000775E+02  0.7816164E-02  0.1186339E+00
        -11   -1    0    0    0    0  0.00000000000E+00  0.00000000000E+00  0.45593999997E+02  0.45594000000E+02  0.51100000000E-03 0. -1.
         11   -1    0    0    0    0 -0.00000000000E+00 -0.00000000000E+00 -0.45593999997E+02  0.45594000000E+02  0.51100000000E-03 0.  1.
    9900012    2    1    2    0    0 -0.83165730754E+00  0.94276006073E-01 -0.83213799799E+00  0.90007747701E+02  0.90000009170E+02 0.  0.
         12    1    1    2    0    0  0.83165730754E+00 -0.94276006073E-01  0.83213799799E+00  0.11802522994E+01  0.00000000000E+00 0. -1.
         11    1    3    3    0    0 -0.25872289203E+01 -0.41065175924E+01 -0.93337424258E+01  0.10520265593E+02  0.51100000000E-03 0. -1.
        -11    1    3    3    0    0 -0.62961682248E+01  0.51698667875E+01 -0.34642632235E+02  0.35587655519E+02  0.51100000000E-03 0.  1.
         12    1    3    3    0    0  0.80517398376E+01 -0.96907318898E+00  0.43144236663E+02  0.43899826588E+02  0.00000000000E+00 0. -1.
</event>
<event>
 7    1  0.1971192E-015  0.9000798E+02  0.7816164E-02  0.1186339E+00
        -11   -1    0    0    0    0  0.00000000000E+00  0.00000000000E+00  0.45593999997E+02  0.45594000000E+02  0.51100000000E-03 0.  1.
         11   -1    0    0    0    0 -0.00000000000E+00 -0.00000000000E+00 -0.45593999997E+02  0.45594000000E+02  0.51100000000E-03 0. -1.
    9900012    2    1    2    0    0 -0.40950557687E-01 -0.11755548844E+01  0.94050877798E-01  0.90007978050E+02  0.90000242560E+02 0.  0.
         12    1    1    2    0    0  0.40950557687E-01  0.11755548844E+01 -0.94050877798E-01  0.11800219498E+01  0.00000000000E+00 0. -1.
         11    1    3    3    0    0  0.57000373628E+01 -0.63642583984E+01 -0.32550313885E+01  0.91427260979E+01  0.51100000000E-03 0. -1.
        -11    1    3    3    0    0 -0.12747991321E+01 -0.17222355731E+00  0.41783148100E+02  0.41802945341E+02  0.51100000000E-03 0.  1.
         12    1    3    3    0    0 -0.44661887884E+01  0.53609270713E+01 -0.38434065833E+02  0.39062306612E+02  0.00000000000E+00 0. -1.
</event>
<event>
 7    1  0.1971192E-015  0.9000765E+02  0.7816164E-02  0.1186339E+00
        -11   -1    0    0    0    0  0.00000000000E+00  0.00000000000E+00  0.45593999997E+02  0.45594000000E+02  0.51100000000E-03 0. -1.
         11   -1    0    0    0    0 -0.00000000000E+00 -0.00000000000E+00 -0.45593999997E+02  0.45594000000E+02  0.51100000000E-03 0.  1.
    9900012    2    1    2    0    0 -0.58043380666E+00  0.97040104190E+00  0.33859128725E+00  0.90007650202E+02  0.89999910385E+02 0.  0.
         12    1    1    2    0    0  0.58043380666E+00 -0.97040104190E+00 -0.33859128725E+00  0.11803497981E+01  0.00000000000E+00 0. -1.
         11    1    3    3    0    0  0.80428809500E+01  0.37905642488E+01 -0.35503441084E+01  0.95739884505E+01  0.51100000000E-03 0. -1.
        -11    1    3    3    0    0  0.25830346829E+02  0.24712574543E+02 -0.26596137653E+01  0.35846780937E+02  0.51100000000E-03 0.  1.
         12    1    3    3    0    0 -0.34453661586E+02 -0.27532737750E+02  0.65485491609E+01  0.44586880815E+02  0.00000000000E+00 0. -1.
</event>
<event>
 7    1  0.1971192E-015  0.9000777E+02  0.7816164E-02  0.1186339E+00
        -11   -1    0    0    0    0  0.00000000000E+00  0.00000000000E+00  0.45593999997E+02  0.45594000000E+02  0.51100000000E-03 0.  1.
         11   -1    0    0    0    0 -0.00000000000E+00 -0.00000000000E+00 -0.45593999997E+02  0.45594000000E+02  0.51100000000E-03 0. -1.
    9900012    2    1    2    0    0 -0.64072939351E+00  0.59190144744E+00  0.79502352954E+00  0.90007769560E+02  0.90000031318E+02 0.  0.
         12    1    1    2    0    0  0.64072939351E+00 -0.59190144744E+00 -0.79502352954E+00  0.11802304401E+01  0.00000000000E+00 0. -1.
         11    1    3    3    0    0  0.84907759776E+00  0.41797137437E+01  0.84435385709E+01  0.94596132905E+01  0.51100000000E-03 0. -1.
        -11    1    3    3    0    0  0.26917258517E+02  0.71848975890E+01  0.23931308006E+02  0.36726952808E+02  0.51100000000E-03 0.  1.
         12    1    3    3    0    0 -0.28407065508E+02 -0.10772709885E+02 -0.31579823048E+02  0.43821203461E+02  0.00000000000E+00 0. -1.
</event>
<event>
 7    1  0.1971192E-015  0.9000774E+02  0.7816164E-02  0.1186339E+00
        -11   -1    0    0    0    0  0.00000000000E+00  0.00000000000E+00  0.45593999997E+02  0.45594000000E+02  0.51100000000E-03 0. -1.
         11   -1    0    0    0    0 -0.00000000000E+00 -0.00000000000E+00 -0.45593999997E+02  0.45594000000E+02  0.51100000000E-03 0.  1.
    9900012    2    1    2    0    0 -0.47658676810E+00  0.10352932945E+01 -0.30666392519E+00  0.90007741589E+02  0.90000002978E+02 0.  0.
         12    1    1    2    0    0  0.47658676810E+00 -0.10352932945E+01  0.30666392519E+00  0.11802584107E+01  0.00000000000E+00 0. -1.
         11    1    3    3    0    0  0.20944453612E+02 -0.15400629575E+02  0.24304750518E+02  0.35588908756E+02  0.51100000000E-03 0. -1.
        -11    1    3    3    0    0  0.48111133700E+01 -0.45227075458E+00  0.79627709984E+01  0.93143482289E+01  0.51100000000E-03 0.  1.
        -12    1    3    3    0    0 -0.26232153750E+02  0.16888193624E+02 -0.32574185442E+02  0.45104484605E+02  0.00000000000E+00 0.  1.
</event>
<event>
 7    1  0.1971192E-015  0.9000906E+02  0.7816164E-02  0.1186336E+00
        -11   -1    0    0    0    0  0.00000000000E+00  0.00000000000E+00  0.45593999997E+02  0.45594000000E+02  0.51100000000E-03 0.  1.
         11   -1    0    0    0    0 -0.00000000000E+00 -0.00000000000E+00 -0.45593999997E+02  0.45594000000E+02  0.51100000000E-03 0. -1.
    9900012    2    1    2    0    0  0.23879268666E+00  0.28342500406E+00  0.11191739139E+01  0.90009058980E+02  0.90001337748E+02 0.  0.
         12    1    1    2    0    0 -0.23879268666E+00 -0.28342500406E+00 -0.11191739139E+01  0.11789410204E+01  0.00000000000E+00 0. -1.
         11    1    3    3    0    0 -0.14013941994E+02 -0.17692048023E+02 -0.29976233405E+02  0.37522975666E+02  0.51100000000E-03 0. -1.
        -11    1    3    3    0    0 -0.53858747085E+01  0.52601392190E+01 -0.53090395972E+01  0.92120905708E+01  0.51100000000E-03 0.  1.
        -12    1    3    3    0    0  0.19638609389E+02  0.12715333808E+02  0.36404446916E+02  0.43273992742E+02  0.00000000000E+00 0.  1.
</event>
<event>
 7    1  0.1971192E-015  0.9000770E+02  0.7816164E-02  0.1186339E+00
        -11   -1    0    0    0    0  0.00000000000E+00  0.00000000000E+00  0.45593999997E+02  0.45594000000E+02  0.51100000000E-03 0. -1.
         11   -1    0    0    0    0 -0.00000000000E+00 -0.00000000000E+00 -0.45593999997E+02  0.45594000000E+02  0.51100000000E-03 0.  1.
    9900012    2    1    2    0    0 -0.11201611114E+01 -0.36954148811E+00 -0.42125452899E-01  0.90007704960E+02  0.89999965866E+02 0.  0.
         12    1    1    2    0    0  0.11201611114E+01  0.36954148811E+00  0.42125452899E-01  0.11802950397E+01  0.00000000000E+00 0. -1.
         11    1    3    3    0    0  0.29730354619E+01 -0.19656002402E+02  0.33098913595E+02  0.38610043405E+02  0.51100000000E-03 0. -1.
        -11    1    3    3    0    0  0.93583816634E+01  0.11120608742E+01  0.19776960251E+01  0.96294999130E+01  0.51100000000E-03 0.  1.
        -12    1    3    3    0    0 -0.13451578237E+02  0.18174400040E+02 -0.35118735073E+02  0.41768161643E+02  0.00000000000E+00 0.  1.
</event>
<event>
 7    1  0.1971192E-015  0.9000809E+02  0.7816164E-02  0.1186338E+00
        -11   -1    0    0    0    0  0.00000000000E+00  0.00000000000E+00  0.45593999997E+02  0.45594000000E+02  0.51100000000E-03 0. -1.
         11   -1    0    0    0    0 -0.00000000000E+00 -0.00000000000E+00 -0.45593999997E+02  0.45594000000E+02  0.51100000000E-03 0.  1.
    9900012    2    1    2    0    0  0.24194266057E+00  0.51624876718E+00 -0.10330234899E+01  0.90008090439E+02  0.90000356432E+02 0.  0.
         12    1    1    2    0    0 -0.24194266057E+00 -0.51624876718E+00  0.10330234899E+01  0.11799095606E+01  0.00000000000E+00 0. -1.
         11    1    3    3    0    0 -0.36435865440E+02  0.21376735170E+02  0.80101114515E+01  0.42996499656E+02  0.51100000000E-03 0. -1.
        -11    1    3    3    0    0  0.96111988871E+01  0.28795736810E+01 -0.32451640903E+01  0.10545054711E+02  0.51100000000E-03 0.  1.
        -12    1    3    3    0    0  0.27066609214E+02 -0.23740060084E+02 -0.57979708510E+01  0.36466536072E+02  0.00000000000E+00 0.  1.
</event>
<event>
 7    1  0.1971192E-015  0.9000775E+02  0.7816164E-02  0.1186339E+00
        -11   -1    0    0    0    0  0.00000000000E+00  0.00000000000E+00  0.45593999997E+02  0.45594000000E+02  0.51100000000E-03 0. -1.
         11   -1    0    0    0    0 -0.00000000000E+00 -0.00000000000E+00 -0.45593999997E+02  0.45594000000E+02  0.51100000000E-03 0.  1.
    9900012    2    1    2    0    0 -0.30742791808E+00  0.10724879906E+01 -0.38502313692E+00  0.90007752047E+02  0.90000013574E+02 0.  0.
         12    1    1    2    0    0  0.30742791808E+00 -0.10724879906E+01  0.38502313692E+00  0.11802479531E+01  0.00000000000E+00 0. -1.
         11    1    3    3    0    0  0.29063147825E+02  0.11417821481E+01  0.26586068426E+02  0.39405447118E+02  0.51100000000E-03 0. -1.
        -11    1    3    3    0    0 -0.48537145160E+01 -0.64524516551E+01  0.52374577338E+01  0.96241176603E+01  0.51100000000E-03 0.  1.
        -12    1    3    3    0    0 -0.24516861227E+02  0.63831574976E+01 -0.32208549296E+02  0.40978187269E+02  0.00000000000E+00 0.  1.
</event>
<event>
 7    1  0.1971192E-015  0.9000778E+02  0.7816164E-02  0.1186339E+00
        -11   -1    0    0    0    0  0.00000000000E+00  0.00000000000E+00  0.45593999997E+02  0.45594000000E+02  0.51100000000E-03 0.  1.
         11   -1    0    0    0    0 -0.00000000000E+00 -0.00000000000E+00 -0.45593999997E+02  0.45594000000E+02  0.51100000000E-03 0. -1.
    9900012    2    1    2    0    0 -0.83075614661E+00 -0.34650209309E+00 -0.76334950550E+00  0.90007778858E+02  0.90000040739E+02 0.  0.
         12    1    1    2    0    0  0.83075614661E+00  0.34650209309E+00  0.76334950550E+00  0.11802211416E+01  0.00000000000E+00 0. -1.
         11    1    3    3    0    0 -0.47138429741E+01 -0.22535620253E+01  0.10674848750E+02  0.11884917058E+02  0.51100000000E-03 0. -1.
        -11    1    3    3    0    0  0.28174471653E+02  0.28661079399E+02  0.95383406812E-01  0.40190389691E+02  0.51100000000E-03 0.  1.
         12    1    3    3    0    0 -0.24291384826E+02 -0.26754019467E+02 -0.11533581662E+02  0.37932472109E+02  0.00000000000E+00 0. -1.
</event>
<event>
 7    1  0.1971192E-015  0.9000776E+02  0.7816164E-02  0.1186339E+00
        -11   -1    0    0    0    0  0.00000000000E+00  0.00000000000E+00  0.45593999997E+02  0.45594000000E+02  0.51100000000E-03 0.  1.
         11   -1    0    0    0    0 -0.00000000000E+00 -0.00000000000E+00 -0.45593999997E+02  0.45594000000E+02  0.51100000000E-03 0. -1.
    9900012    2    1    2    0    0 -0.34029263312E+00 -0.88278526669E+00 -0.70558503191E+00  0.90007763100E+02  0.90000024773E+02 0.  0.
         12    1    1    2    0    0  0.34029263312E+00  0.88278526669E+00  0.70558503191E+00  0.11802369002E+01  0.00000000000E+00 0. -1.
         11    1    3    3    0    0  0.96981525959E+00 -0.93174965692E+01 -0.40971998495E+01  0.10224643310E+02  0.51100000000E-03 0. -1.
        -11    1    3    3    0    0  0.12363555514E+02  0.10123151015E+01  0.38999380673E+02  0.40924735552E+02  0.51100000000E-03 0.  1.
         12    1    3    3    0    0 -0.13673663407E+02  0.74223962010E+01 -0.35607765856E+02  0.38858384238E+02  0.00000000000E+00 0. -1.
</event>
<event>
 7    1  0.1987504E-015  0.9000785E+02  0.7816164E-02  0.1186339E+00
        -11   -1    0    0    0    0  0.00000000000E+00  0.00000000000E+00  0.45593999997E+02  0.45594000000E+02  0.51100000000E-03 0.  1.
         11   -1    0    0    0    0 -0.00000000000E+00 -0.00000000000E+00 -0.45593999997E+02  0.45594000000E+02  0.51100000000E-03 0. -1.
    9900012    2    1    2    0    0  0.98266052131E+00  0.55433375570E+00  0.34617161806E+00  0.90007854923E+02  0.90000117808E+02 0.  0.
         12    1    1    2    0    0 -0.98266052131E+00 -0.55433375570E+00 -0.34617161806E+00  0.11801450767E+01  0.00000000000E+00 0. -1.
         11    1    3    3    0    0  0.16970300144E+02  0.34773702065E+02 -0.73340782971E+01  0.39382612243E+02  0.51100000000E-03 0. -1.
        -11    1    3    3    0    0 -0.25812691987E+01  0.13679873969E+01 -0.87307280185E+01  0.92065168326E+01  0.51100000000E-03 0.  1.
        -12    1    3    3    0    0 -0.13406370424E+02 -0.35587355707E+02  0.16410977934E+02  0.41418725848E+02  0.00000000000E+00 0.  1.
</event>
<event>
 7    1  0.1971192E-015  0.9000774E+02  0.7816164E-02  0.1186339E+00
        -11   -1    0    0    0    0  0.00000000000E+00  0.00000000000E+00  0.45593999997E+02  0.45594000000E+02  0.51100000000E-03 0.  1.
         11   -1    0    0    0    0 -0.00000000000E+00 -0.00000000000E+00 -0.45593999997E+02  0.45594000000E+02  0.51100000000E-03 0. -1.
    9900012    2    1    2    0    0  0.29697883076E+00  0.67194826912E-01  0.11403063599E+01  0.90007741484E+02  0.90000002871E+02 0.  0.
         12    1    1    2    0    0 -0.29697883076E+00 -0.67194826912E-01 -0.11403063599E+01  0.11802585162E+01  0.00000000000E+00 0. -1.
         11    1    3    3    0    0 -0.11182680726E+02  0.93718636643E-01 -0.27469457685E+01  0.11515504449E+02  0.51100000000E-03 0. -1.
        -11    1    3    3    0    0 -0.44371800880E+01 -0.34957222709E+02 -0.11602367658E+02  0.37098664695E+02  0.51100000000E-03 0.  1.
         12    1    3    3    0    0  0.15916839645E+02  0.34930698899E+02  0.15489619787E+02  0.41393572339E+02  0.00000000000E+00 0. -1.
</event>
<event>
 7    1  0.1971192E-015  0.9000775E+02  0.7816164E-02  0.1186339E+00
        -11   -1    0    0    0    0  0.00000000000E+00  0.00000000000E+00  0.45593999997E+02  0.45594000000E+02  0.51100000000E-03 0.  1.
         11   -1    0    0    0    0 -0.00000000000E+00 -0.00000000000E+00 -0.45593999997E+02  0.45594000000E+02  0.51100000000E-03 0. -1.
    9900012    2    1    2    0    0 -0.10962039227E+01  0.33661158535E+00  0.27931052469E+00  0.90007752243E+02  0.90000013772E+02 0.  0.
         12    1    1    2    0    0  0.10962039227E+01 -0.33661158535E+00 -0.27931052469E+00  0.11802477574E+01  0.00000000000E+00 0. -1.
         11    1    3    3    0    0  0.21096466030E+02  0.90863233990E+01 -0.29945641875E+02  0.37740742169E+02  0.51100000000E-03 0. -1.
        -11    1    3    3    0    0  0.71928574610E+01  0.51421498303E+01  0.16624409351E+01  0.89968112937E+01  0.51100000000E-03 0.  1.
        -12    1    3    3    0    0 -0.29385527413E+02 -0.13891861644E+02  0.28562511465E+02  0.43270198780E+02  0.00000000000E+00 0.  1.
</event>
<event>
 7    1  0.1971192E-015  0.9000781E+02  0.7816164E-02  0.1186339E+00
        -11   -1    0    0    0    0  0.00000000000E+00  0.00000000000E+00  0.45593999997E+02  0.45594000000E+02  0.51100000000E-03 0.  1.
         11   -1    0    0    0    0 -0.00000000000E+00 -0.00000000000E+00 -0.45593999997E+02  0.45594000000E+02  0.51100000000E-03 0. -1.
    9900012    2    1    2    0    0 -0.34658649004E+00 -0.55753074917E+00  0.98075749230E+00  0.90007810189E+02  0.90000072483E+02 0.  0.
         12    1    1    2    0    0  0.34658649004E+00  0.55753074917E+00 -0.98075749230E+00  0.11801898110E+01  0.00000000000E+00 0. -1.
         11    1    3    3    0    0  0.75132310042E+01  0.49180758394E+01  0.39567447823E+00  0.89884742108E+01  0.51100000000E-03 0. -1.
        -11    1    3    3    0    0  0.14617429376E+02  0.32992617019E+02  0.41481882137E+01  0.36323401342E+02  0.51100000000E-03 0.  1.
         12    1    3    3    0    0 -0.22477246871E+02 -0.38468223607E+02 -0.35631051996E+01  0.44695934637E+02  0.00000000000E+00 0. -1.
</event>
<event>
 7    1  0.1971192E-015  0.9000764E+02  0.7816164E-02  0.1186339E+00
        -11   -1    0    0    0    0  0.00000000000E+00  0.00000000000E+00  0.45593999997E+02  0.45594000000E+02  0.51100000000E-03 0. -1.
         11   -1    0    0    0    0 -0.00000000000E+00 -0.00000000000E+00 -0.45593999997E+02  0.45594000000E+02  0.51100000000E-03 0.  1.
    9900012    2    1    2    0    0 -0.10138508887E+00  0.70726838601E+00 -0.93953739438E+00  0.90007644960E+02  0.89999905073E+02 0.  0.
         12    1    1    2    0    0  0.10138508887E+00 -0.70726838601E+00  0.93953739438E+00  0.11803550405E+01  0.00000000000E+00 0. -1.
         11    1    3    3    0    0 -0.26641061696E+01 -0.46382125383E+01  0.85232300348E+01  0.10062600445E+02  0.51100000000E-03 0. -1.
        -11    1    3    3    0    0  0.36985781436E+02  0.39753948452E+01  0.12319931689E+02  0.39185871302E+02  0.51100000000E-03 0.  1.
         12    1    3    3    0    0 -0.34423060355E+02  0.13700860791E+01 -0.21782699118E+02  0.40759173212E+02  0.00000000000E+00 0. -1.
</event>
<event>
 7    1  0.1971192E-015  0.9000774E+02  0.7816164E-02  0.1186339E+00
        -11   -1    0    0    0    0  0.00000000000E+00  0.00000000000E+00  0.45593999997E+02  0.45594000000E+02  0.51100000000E-03 0. -1.
         11   -1    0    0    0    0 -0.00000000000E+00 -0.00000000000E+00 -0.45593999997E+02  0.45594000000E+02  0.51100000000E-03 0.  1.
    9900012    2    1    2    0    0  0.32967205812E+00 -0.74313373857E+00 -0.85562308070E+00  0.90007736353E+02  0.89999997673E+02 0.  0.
         12    1    1    2    0    0 -0.32967205812E+00  0.74313373857E+00  0.85562308070E+00  0.11802636466E+01  0.00000000000E+00 0. -1.
         11    1    3    3    0    0 -0.31598948191E+02  0.18654997363E+02 -0.11335729226E+02  0.38405744501E+02  0.51100000000E-03 0. -1.
        -11    1    3    3    0    0  0.34099237936E+01 -0.10625526491E+01 -0.10933082589E+02  0.11501690900E+02  0.51100000000E-03 0.  1.
        -12    1    3    3    0    0  0.28518696455E+02 -0.18335578452E+02  0.21413188734E+02  0.40100300952E+02  0.00000000000E+00 0.  1.
</event>
<event>
 7    1  0.1971192E-015  0.9000776E+02  0.7816164E-02  0.1186339E+00
        -11   -1    0    0    0    0  0.00000000000E+00  0.00000000000E+00  0.45593999997E+02  0.45594000000E+02  0.51100000000E-03 0. -1.
         11   -1    0    0    0    0 -0.00000000000E+00 -0.00000000000E+00 -0.45593999997E+02  0.45594000000E+02  0.51100000000E-03 0.  1.
    9900012    2    1    2    0    0 -0.63378447374E+00  0.90272648449E+00  0.41997225473E+00  0.90007756568E+02  0.90000018154E+02 0.  0.
         12    1    1    2    0    0  0.63378447374E+00 -0.90272648449E+00 -0.41997225473E+00  0.11802434324E+01  0.00000000000E+00 0. -1.
         11    1    3    3    0    0  0.17672931981E+01  0.67193409500E+01 -0.82759859358E+01  0.10805776766E+02  0.51100000000E-03 0. -1.
        -11    1    3    3    0    0 -0.32262848748E+02 -0.10405851156E+02 -0.18441789585E+02  0.38591096783E+02  0.51100000000E-03 0.  1.
         12    1    3    3    0    0  0.29861771076E+02  0.45892366901E+01  0.27137747775E+02  0.40610883018E+02  0.00000000000E+00 0. -1.
</event>
<event>
 7    1  0.1971192E-015  0.9000785E+02  0.7816164E-02  0.1186339E+00
        -11   -1    0    0    0    0  0.00000000000E+00  0.00000000000E+00  0.45593999997E+02  0.45594000000E+02  0.51100000000E-03 0.  1.
         11   -1    0    0    0    0 -0.00000000000E+00 -0.00000000000E+00 -0.45593999997E+02  0.45594000000E+02  0.51100000000E-03 0. -1.
    9900012    2    1    2    0    0  0.73460115342E+00  0.49233056838E+00  0.78149460601E+00  0.90007846594E+02  0.90000109369E+02 0.  0.
         12    1    1    2    0    0 -0.73460115342E+00 -0.49233056838E+00 -0.78149460601E+00  0.11801534063E+01  0.00000000000E+00 0. -1.
         11    1    3    3    0    0 -0.23617011678E+01 -0.63261963767E+01 -0.44884836277E+01  0.81083215612E+01  0.51100000000E-03 0. -1.
        -11    1    3    3    0    0 -0.36392411976E+02  0.16531422337E+02 -0.40612670223E+01  0.40176976791E+02  0.51100000000E-03 0.  1.
         12    1    3    3    0    0  0.39488714298E+02 -0.97128953921E+01  0.93312452560E+01  0.41722548242E+02  0.00000000000E+00 0. -1.
</event>
<event>
 7    1  0.1971192E-015  0.9000787E+02  0.7816164E-02  0.1186339E+00
        -11   -1    0    0    0    0  0.00000000000E+00  0.00000000000E+00  0.45593999997E+02  0.45594000000E+02  0.51100000000E-03 0. -1.
         11   -1    0    0    0    0 -0.00000000000E+00 -0.00000000000E+00 -0.45593999997E+02  0.45594000000E+02  0.51100000000E-03 0.  1.
    9900012    2    1    2    0    0 -0.29754491680E+00  0.11373029822E+01  0.10347700057E+00  0.90007873507E+02  0.90000136637E+02 0.  0.
         12    1    1    2    0    0  0.29754491680E+00 -0.11373029822E+01 -0.10347700057E+00  0.11801264934E+01  0.00000000000E+00 0. -1.
         11    1    3    3    0    0  0.27462525153E+01  0.66885152842E+00 -0.13548886901E+02  0.13840578086E+02  0.51100000000E-03 0. -1.
        -11    1    3    3    0    0 -0.27213636099E+02  0.26347583586E+02 -0.88495072078E+00  0.37888788429E+02  0.51100000000E-03 0.  1.
         12    1    3    3    0    0  0.24169838667E+02 -0.25879132133E+02  0.14537314622E+02  0.38278506992E+02  0.00000000000E+00 0. -1.
</event>
<event>
 7    1  0.1971192E-015  0.9000772E+02  0.7816164E-02  0.1186339E+00
        -11   -1    0    0    0    0  0.00000000000E+00  0.00000000000E+00  0.45593999997E+02  0.45594000000E+02  0.51100000000E-03 0.  1.
         11   -1    0    0    0    0 -0.00000000000E+00 -0.00000000000E+00 -0.45593999997E+02  0.45594000000E+02  0.51100000000E-03 0. -1.
    9900012    2    1    2    0    0 -0.88953648562E+00  0.77574569967E+00 -0.51340988951E-03  0.90007721722E+02  0.89999982849E+02 0.  0.
         12    1    1    2    0    0  0.88953648562E+00 -0.77574569967E+00  0.51340988950E-03  0.11802782779E+01  0.00000000000E+00 0. -1.
         11    1    3    3    0    0  0.43032158805E+01 -0.13809971470E+01  0.81631782549E+01  0.93307180601E+01  0.51100000000E-03 0. -1.
        -11    1    3    3    0    0  0.22831842899E+02 -0.43888719804E+01  0.26743042647E+02  0.35436500641E+02  0.51100000000E-03 0.  1.
         12    1    3    3    0    0 -0.28024595265E+02  0.65456148270E+01 -0.34906734312E+02  0.45240503021E+02  0.00000000000E+00 0. -1.
</event>
<event>
 7    1  0.1971192E-015  0.9000766E+02  0.7816164E-02  0.1186339E+00
        -11   -1    0    0    0    0  0.00000000000E+00  0.00000000000E+00  0.45593999997E+02  0.45594000000E+02  0.51100000000E-03 0. -1.
         11   -1    0    0    0    0 -0.00000000000E+00 -0.00000000000E+00 -0.45593999997E+02  0.45594000000E+02  0.51100000000E-03 0.  1.
    9900012    2    1    2    0    0 -0.88217231962E+00 -0.75388975092E+00  0.21593829328E+00  0.90007658056E+02  0.89999918342E+02 0.  0.
         12    1    1    2    0    0  0.88217231962E+00  0.75388975092E+00 -0.21593829328E+00  0.11803419439E+01  0.00000000000E+00 0. -1.
         11    1    3    3    0    0  0.28211993738E+02 -0.26249008896E+01  0.14209431023E+02  0.31697233722E+02  0.51100000000E-03 0. -1.
        -11    1    3    3    0    0  0.12091017555E+02 -0.31959508098E+01  0.39300576318E+01  0.13109239503E+02  0.51100000000E-03 0.  1.
        -12    1    3    3    0    0 -0.41185183613E+02  0.50669619485E+01 -0.17923550362E+02  0.45201184831E+02  0.00000000000E+00 0.  1.
</event>
<event>
 7    1  0.1971192E-015  0.9000763E+02  0.7816164E-02  0.1186339E+00
        -11   -1    0    0    0    0  0.00000000000E+00  0.00000000000E+00  0.45593999997E+02  0.45594000000E+02  0.51100000000E-03 0.  1.
         11   -1    0    0    0    0 -0.00000000000E+00 -0.00000000000E+00 -0.45593999997E+02  0.45594000000E+02  0.51100000000E-03 0. -1.
    9900012    2    1    2    0    0 -0.85844031693E+00  0.60132043276E+00  0.54291618896E+00  0.90007633943E+02  0.89999893911E+02 0.  0.
         12    1    1    2    0    0  0.85844031693E+00 -0.60132043276E+00 -0.54291618896E+00  0.11803660571E+01  0.00000000000E+00 0. -1.
         11    1    3    3    0    0 -0.46093576398E+01 -0.41474421830E+01 -0.77406334003E+01  0.99179060397E+01  0.51100000000E-03 0. -1.
        -11    1    3    3    0    0  0.12452289676E+01  0.10957602064E+02 -0.34791461911E+02  0.36497471972E+02  0.51100000000E-03 0.  1.
         12    1    3    3    0    0  0.25056883553E+01 -0.62088394481E+01  0.43075011500E+02  0.43592255931E+02  0.00000000000E+00 0. -1.
</event>
<event>
 7    1  0.1971192E-015  0.9000777E+02  0.7816164E-02  0.1186339E+00
        -11   -1    0    0    0    0  0.00000000000E+00  0.00000000000E+00  0.45593999997E+02  0.45594000000E+02  0.51100000000E-03 0.  1.
         11   -1    0    0    0    0 -0.00000000000E+00 -0.00000000000E+00 -0.45593999997E+02  0.45594000000E+02  0.51100000000E-03 0. -1.
    9900012    2    1    2    0    0 -0.73219179263E+00  0.83696763289E+00 -0.39538200989E+00  0.90007768424E+02  0.90000030167E+02 0.  0.
         12    1    1    2    0    0  0.73219179263E+00 -0.83696763289E+00  0.39538200989E+00  0.11802315762E+01  0.00000000000E+00 0. -1.
         11    1    3    3    0    0  0.54266874152E+00  0.12349739970E+02  0.23907578725E+01  0.12590722384E+02  0.51100000000E-03 0. -1.
        -11    1    3    3    0    0  0.41435913332E+01  0.32594366967E+02 -0.28296344543E+01  0.32978310122E+02  0.51100000000E-03 0.  1.
         12    1    3    3    0    0 -0.54184518674E+01 -0.44107139304E+02  0.43494571941E-01  0.44438735918E+02  0.00000000000E+00 0. -1.
</event>
<event>
 7    1  0.1971192E-015  0.9000769E+02  0.7816164E-02  0.1186339E+00
        -11   -1    0    0    0    0  0.00000000000E+00  0.00000000000E+00  0.45593999997E+02  0.45594000000E+02  0.51100000000E-03 0. -1.
         11   -1    0    0    0    0 -0.00000000000E+00 -0.00000000000E+00 -0.45593999997E+02  0.45594000000E+02  0.51100000000E-03 0.  1.
    9900012    2    1    2    0    0 -0.59817411956E+00  0.42733088827E+00 -0.92342167800E+00  0.90007690057E+02  0.89999950766E+02 0.  0.
         12    1    1    2    0    0  0.59817411956E+00 -0.42733088827E+00  0.92342167800E+00  0.11803099427E+01  0.00000000000E+00 0. -1.
         11    1    3    3    0    0  0.88561071180E+01 -0.72952856573E+01 -0.10840850256E+02  0.15785305212E+02  0.51100000000E-03 0. -1.
        -11    1    3    3    0    0 -0.15935019541E+02 -0.30609608903E+02  0.21360538224E+01  0.34575073841E+02  0.51100000000E-03 0.  1.
         12    1    3    3    0    0  0.64807383030E+01  0.38332225448E+02  0.77813747552E+01  0.39647311004E+02  0.00000000000E+00 0. -1.
</event>
<event>
 7    1  0.1971192E-015  0.9000771E+02  0.7816164E-02  0.1186339E+00
        -11   -1    0    0    0    0  0.00000000000E+00  0.00000000000E+00  0.45593999997E+02  0.45594000000E+02  0.51100000000E-03 0. -1.
         11   -1    0    0    0    0 -0.00000000000E+00 -0.00000000000E+00 -0.45593999997E+02  0.45594000000E+02  0.51100000000E-03 0.  1.
    9900012    2    1    2    0    0  0.61515831116E+00  0.93633977051E+00  0.37140358100E+00  0.90007706590E+02  0.89999967517E+02 0.  0.
         12    1    1    2    0    0 -0.61515831116E+00 -0.93633977051E+00 -0.37140358100E+00  0.11802934100E+01  0.00000000000E+00 0. -1.
         11    1    3    3    0    0 -0.14184017879E+02  0.33006972794E+02 -0.55849701256E+01  0.36357097076E+02  0.51100000000E-03 0. -1.
        -11    1    3    3    0    0 -0.40863983258E+01  0.70047497054E+01  0.62681040224E+01  0.10249599895E+02  0.51100000000E-03 0.  1.
        -12    1    3    3    0    0  0.18885574516E+02 -0.39075382729E+02 -0.31173031580E+00  0.43401009619E+02  0.00000000000E+00 0.  1.
</event>
<event>
 7    1  0.1971192E-015  0.9000778E+02  0.7816164E-02  0.1186339E+00
        -11   -1    0    0    0    0  0.00000000000E+00  0.00000000000E+00  0.45593999997E+02  0.45594000000E+02  0.51100000000E-03 0.  1.
         11   -1    0    0    0    0 -0.00000000000E+00 -0.00000000000E+00 -0.45593999997E+02  0.45594000000E+02  0.51100000000E-03 0. -1.
    9900012    2    1    2    0    0 -0.60152786895E+00  0.10006293567E+01  0.17272181777E+00  0.90007776414E+02  0.90000038263E+02 0.  0.
         12    1    1    2    0    0  0.60152786895E+00 -0.10006293567E+01 -0.17272181777E+00  0.11802235860E+01  0.00000000000E+00 0. -1.
         11    1    3    3    0    0 -0.35852502054E+02 -0.37684927837E+01 -0.24269373504E+02  0.43458093975E+02  0.51100000000E-03 0. -1.
        -11    1    3    3    0    0  0.32187197091E+01 -0.19875325830E+00  0.10991160343E+02  0.11454486691E+02  0.51100000000E-03 0.  1.
        -12    1    3    3    0    0  0.32032254476E+02  0.49678753986E+01  0.13450934980E+02  0.35095195748E+02  0.00000000000E+00 0.  1.
</event>
<event>
 7    1  0.1971192E-015  0.9000773E+02  0.7816164E-02  0.1186339E+00
        -11   -1    0    0    0    0  0.00000000000E+00  0.00000000000E+00  0.45593999997E+02  0.45594000000E+02  0.51100000000E-03 0.  1.
         11   -1    0    0    0    0 -0.00000000000E+00 -0.00000000000E+00 -0.45593999997E+02  0.45594000000E+02  0.51100000000E-03 0. -1.
    9900012    2    1    2    0    0  0.81470270800E+00 -0.14998811196E+00 -0.84071834766E+00  0.90007727033E+02  0.89999988230E+02 0.  0.
         12    1    1    2    0    0 -0.81470270800E+00  0.14998811196E+00  0.84071834766E+00  0.11802729668E+01  0.00000000000E+00 0. -1.
         11    1    3    3    0    0 -0.16224906974E+02 -0.32703180240E+02  0.21450294670E+02  0.42342186361E+02  0.51100000000E-03 0. -1.
        -11    1    3    3    0    0  0.34194716949E+00  0.14542429509E+02 -0.72490275483E-01  0.14546629816E+02  0.51100000000E-03 0.  1.
        -12    1    3    3    0    0  0.16697662513E+02  0.18010762618E+02 -0.22218522742E+02  0.33118910857E+02  0.00000000000E+00 0.  1.
</event>
<event>
 7    1  0.1971192E-015  0.9000774E+02  0.7816164E-02  0.1186339E+00
        -11   -1    0    0    0    0  0.00000000000E+00  0.00000000000E+00  0.45593999997E+02  0.45594000000E+02  0.51100000000E-03 0.  1.
         11   -1    0    0    0    0 -0.00000000000E+00 -0.00000000000E+00 -0.45593999997E+02  0.45594000000E+02  0.51100000000E-03 0. -1.
    9900012    2    1    2    0    0  0.80217733916E-02  0.61727180267E+00  0.10059433058E+01  0.90007741231E+02  0.90000002615E+02 0.  0.
         12    1    1    2    0    0 -0.80217733916E-02 -0.61727180267E+00 -0.10059433058E+01  0.11802587690E+01  0.00000000000E+00 0. -1.
         11    1    3    3    0    0  0.95950398237E+01  0.80807003131E+01 -0.28263935929E+01  0.12858888279E+02  0.51100000000E-03 0. -1.
        -11    1    3    3    0    0  0.13897596418E+01  0.16757970744E+02  0.33392511701E+02  0.37387442455E+02  0.51100000000E-03 0.  1.
         12    1    3    3    0    0 -0.10976777692E+02 -0.24221399255E+02 -0.29560174803E+02  0.39761410497E+02  0.00000000000E+00 0. -1.
</event>
<event>
 7    1  0.1971192E-015  0.9000775E+02  0.7816164E-02  0.1186339E+00
        -11   -1    0    0    0    0  0.00000000000E+00  0.00000000000E+00  0.45593999997E+02  0.45594000000E+02  0.51100000000E-03 0.  1.
         11   -1    0    0    0    0 -0.00000000000E+00 -0.00000000000E+00 -0.45593999997E+02  0.45594000000E+02  0.51100000000E-03 0. -1.
    9900012    2    1    2    0    0  0.84400018649E+00  0.75816988370E+00 -0.32532800516E+00  0.90007747401E+02  0.90000008866E+02 0.  0.
         12    1    1    2    0    0 -0.84400018649E+00 -0.75816988370E+00  0.32532800516E+00  0.11802525994E+01  0.00000000000E+00 0. -1.
         11    1    3    3    0    0  0.98878746378E+01 -0.23773194647E+01 -0.27843699810E+01  0.10543928544E+02  0.51100000000E-03 0. -1.
        -11    1    3    3    0    0 -0.41585104909E+01  0.32996366372E+02  0.25105683849E+02  0.41669518416E+02  0.51100000000E-03 0.  1.
         12    1    3    3    0    0 -0.48853639604E+01 -0.29860877023E+02 -0.22646641873E+02  0.37794300440E+02  0.00000000000E+00 0. -1.
</event>
<event>
 7    1  0.1971192E-015  0.9000766E+02  0.7816164E-02  0.1186339E+00
        -11   -1    0    0    0    0  0.00000000000E+00  0.00000000000E+00  0.45593999997E+02  0.45594000000E+02  0.51100000000E-03 0.  1.
         11   -1    0    0    0    0 -0.00000000000E+00 -0.00000000000E+00 -0.45593999997E+02  0.45594000000E+02  0.51100000000E-03 0. -1.
    9900012    2    1    2    0    0  0.48748644579E+00  0.68100836045E+00  0.83173611411E+00  0.90007660902E+02  0.89999921226E+02 0.  0.
         12    1    1    2    0    0 -0.48748644579E+00 -0.68100836045E+00 -0.83173611411E+00  0.11803390976E+01  0.00000000000E+00 0. -1.
         11    1    3    3    0    0  0.98430671677E+01 -0.39945023756E+01 -0.39333956823E+02  0.40743124329E+02  0.51100000000E-03 0. -1.
        -11    1    3    3    0    0 -0.12877560728E+02  0.13636432382E+01  0.51812574361E+01  0.13947634999E+02  0.51100000000E-03 0.  1.
        -12    1    3    3    0    0  0.35219800061E+01  0.33118674979E+01  0.34984435501E+02  0.35316901574E+02  0.00000000000E+00 0.  1.
</event>
<event>
 7    1  0.1971192E-015  0.9000770E+02  0.7816164E-02  0.1186339E+00
        -11   -1    0    0    0    0  0.00000000000E+00  0.00000000000E+00  0.45593999997E+02  0.45594000000E+02  0.51100000000E-03 0. -1.
         11   -1    0    0    0    0 -0.00000000000E+00 -0.00000000000E+00 -0.45593999997E+02  0.45594000000E+02  0.51100000000E-03 0.  1.
    9900012    2    1    2    0    0 -0.34379476716E+00 -0.43363349293E+00 -0.10425339703E+01  0.90007699222E+02  0.89999960051E+02 0.  0.
         12    1    1    2    0    0  0.34379476716E+00  0.43363349293E+00  0.10425339703E+01  0.11803007783E+01  0.00000000000E+00 0. -1.
         11    1    3    3    0    0  0.28926020177E+02  0.18913527735E+02  0.23131405808E+01  0.34637938655E+02  0.51100000000E-03 0. -1.
        -11    1    3    3    0    0  0.63791436667E+01  0.24034577674E+01  0.94842372845E+01  0.11679933231E+02  0.51100000000E-03 0.  1.
        -12    1    3    3    0    0 -0.35648958611E+02 -0.21750618995E+02 -0.12839911836E+02  0.43689827336E+02  0.00000000000E+00 0.  1.
</event>
<event>
 7    1  0.1971192E-015  0.9000761E+02  0.7816164E-02  0.1186339E+00
        -11   -1    0    0    0    0  0.00000000000E+00  0.00000000000E+00  0.45593999997E+02  0.45594000000E+02  0.51100000000E-03 0.  1.
         11   -1    0    0    0    0 -0.00000000000E+00 -0.00000000000E+00 -0.45593999997E+02  0.45594000000E+02  0.51100000000E-03 0. -1.
    9900012    2    1    2    0    0 -0.75855839623E-01 -0.60752510596E+00  0.10091952379E+01  0.90007611974E+02  0.89999871652E+02 0.  0.
         12    1    1    2    0    0  0.75855839623E-01  0.60752510596E+00 -0.10091952379E+01  0.11803880256E+01  0.00000000000E+00 0. -1.
         11    1    3    3    0    0  0.42969191726E+01  0.41066516586E+01 -0.78316616142E+01  0.98317356617E+01  0.51100000000E-03 0. -1.
        -11    1    3    3    0    0  0.30082950671E+02 -0.16083489277E+02  0.23093019760E+02  0.41194054307E+02  0.51100000000E-03 0.  1.
         12    1    3    3    0    0 -0.34455725683E+02  0.11369312512E+02 -0.14252162908E+02  0.38981822006E+02  0.00000000000E+00 0. -1.
</event>
<event>
 7    1  0.1971192E-015  0.9000773E+02  0.7816164E-02  0.1186339E+00
        -11   -1    0    0    0    0  0.00000000000E+00  0.00000000000E+00  0.45593999997E+02  0.45594000000E+02  0.51100000000E-03 0.  1.
         11   -1    0    0    0    0 -0.00000000000E+00 -0.00000000000E+00 -0.45593999997E+02  0.45594000000E+02  0.51100000000E-03 0. -1.
    9900012    2    1    2    0    0  0.44851805995E+00 -0.10252437025E+01  0.37514543087E+00  0.90007734270E+02  0.89999995562E+02 0.  0.
         12    1    1    2    0    0 -0.44851805995E+00  0.10252437025E+01 -0.37514543087E+00  0.11802657302E+01  0.00000000000E+00 0. -1.
         11    1    3    3    0    0 -0.27514394117E+01 -0.84401388757E+01  0.80257984551E+01  0.11967447689E+02  0.51100000000E-03 0. -1.
        -11    1    3    3    0    0  0.32221727416E+02  0.24273902201E+02  0.78042088402E+01  0.41089752026E+02  0.51100000000E-03 0.  1.
         12    1    3    3    0    0 -0.29021769944E+02 -0.16859007028E+02 -0.15454861864E+02  0.36950534555E+02  0.00000000000E+00 0. -1.
</event>
<event>
 7    1  0.1971192E-015  0.9000784E+02  0.7816164E-02  0.1186339E+00
        -11   -1    0    0    0    0  0.00000000000E+00  0.00000000000E+00  0.45593999997E+02  0.45594000000E+02  0.51100000000E-03 0.  1.
         11   -1    0    0    0    0 -0.00000000000E+00 -0.00000000000E+00 -0.45593999997E+02  0.45594000000E+02  0.51100000000E-03 0. -1.
    9900012    2    1    2    0    0 -0.70456206870E+00  0.70822970441E+00 -0.62831584706E+00  0.90007839915E+02  0.90000102602E+02 0.  0.
         12    1    1    2    0    0  0.70456206870E+00 -0.70822970441E+00  0.62831584706E+00  0.11801600851E+01  0.00000000000E+00 0. -1.
         11    1    3    3    0    0 -0.74504800122E+01 -0.43801164970E+01 -0.79958941681E+00  0.86795401050E+01  0.51100000000E-03 0. -1.
        -11    1    3    3    0    0 -0.78622781750E+01  0.29337299785E+02  0.28232746547E+02  0.41467825535E+02  0.51100000000E-03 0.  1.
         12    1    3    3    0    0  0.14608196118E+02 -0.24248953583E+02 -0.28061472977E+02  0.39860474275E+02  0.00000000000E+00 0. -1.
</event>
<event>
 7    1  0.1971192E-015  0.9000777E+02  0.7816164E-02  0.1186339E+00
        -11   -1    0    0    0    0  0.00000000000E+00  0.00000000000E+00  0.45593999997E+02  0.45594000000E+02  0.51100000000E-03 0. -1.
         11   -1    0    0    0    0 -0.00000000000E+00 -0.00000000000E+00 -0.45593999997E+02  0.45594000000E+02  0.51100000000E-03 0.  1.
    9900012    2    1    2    0    0  0.18814278703E-01  0.11508340350E+01 -0.26110938658E+00  0.90007766521E+02  0.90000028239E+02 0.  0.
         12    1    1    2    0    0 -0.18814278703E-01 -0.11508340350E+01  0.26110938658E+00  0.11802334790E+01  0.00000000000E+00 0. -1.
         11    1    3    3    0    0  0.26039045802E+01  0.60064515306E+01  0.73520588788E+01  0.98443155714E+01  0.51100000000E-03 0. -1.
        -11    1    3    3    0    0 -0.41079685261E+02 -0.30195722309E+01 -0.56372396768E+01  0.41574473286E+02  0.51100000000E-03 0.  1.
         12    1    3    3    0    0  0.38494594959E+02 -0.18360452646E+01 -0.19759285885E+01  0.38588977663E+02  0.00000000000E+00 0. -1.
</event>
<event>
 7    1  0.1971192E-015  0.9000771E+02  0.7816164E-02  0.1186339E+00
        -11   -1    0    0    0    0  0.00000000000E+00  0.00000000000E+00  0.45593999997E+02  0.45594000000E+02  0.51100000000E-03 0. -1.
         11   -1    0    0    0    0 -0.00000000000E+00 -0.00000000000E+00 -0.45593999997E+02  0.45594000000E+02  0.51100000000E-03 0.  1.
    9900012    2    1    2    0    0 -0.65070728785E+00  0.98387673375E+00  0.40551134459E-01  0.90007712833E+02  0.89999973843E+02 0.  0.
         12    1    1    2    0    0  0.65070728785E+00 -0.98387673375E+00 -0.40551134459E-01  0.11802871668E+01  0.00000000000E+00 0. -1.
         11    1    3    3    0    0 -0.39343053035E+01  0.31963249608E+01 -0.84133289092E+01  0.98223904969E+01  0.51100000000E-03 0. -1.
        -11    1    3    3    0    0 -0.18762956668E+02  0.96464815196E+01 -0.28555908150E+02  0.35504127072E+02  0.51100000000E-03 0.  1.
         12    1    3    3    0    0  0.22046554684E+02 -0.11858929747E+02  0.37009788193E+02  0.44681195264E+02  0.00000000000E+00 0. -1.
</event>
<event>
 7    1  0.1971192E-015  0.9000779E+02  0.7816164E-02  0.1186339E+00
        -11   -1    0    0    0    0  0.00000000000E+00  0.00000000000E+00  0.45593999997E+02  0.45594000000E+02  0.51100000000E-03 0.  1.
         11   -1    0    0    0    0 -0.00000000000E+00 -0.00000000000E+00 -0.45593999997E+02  0.45594000000E+02  0.51100000000E-03 0. -1.
    9900012    2    1    2    0    0 -0.10717193248E+01  0.44360286356E+00  0.21801114491E+00  0.90007790412E+02  0.90000052446E+02 0.  0.
         12    1    1    2    0    0  0.10717193248E+01 -0.44360286356E+00 -0.21801114491E+00  0.11802095877E+01  0.00000000000E+00 0. -1.
         11    1    3    3    0    0  0.12037690359E+02  0.13482980557E+02 -0.12073135265E+01  0.18115031330E+02  0.51100000000E-03 0. -1.
        -11    1    3    3    0    0  0.24449075521E+02  0.11483855936E+02  0.11505893971E+01  0.27036273731E+02  0.51100000000E-03 0.  1.
        -12    1    3    3    0    0 -0.37558485206E+02 -0.24523233630E+02  0.27473527430E+00  0.44856485351E+02  0.00000000000E+00 0.  1.
</event>
<event>
 7    1  0.1971192E-015  0.9000777E+02  0.7816164E-02  0.1186339E+00
        -11   -1    0    0    0    0  0.00000000000E+00  0.00000000000E+00  0.45593999997E+02  0.45594000000E+02  0.51100000000E-03 0.  1.
         11   -1    0    0    0    0 -0.00000000000E+00 -0.00000000000E+00 -0.45593999997E+02  0.45594000000E+02  0.51100000000E-03 0. -1.
    9900012    2    1    2    0    0 -0.29658841753E+00  0.10871842902E+01 -0.35074029098E+00  0.90007765650E+02  0.90000027356E+02 0.  0.
         12    1    1    2    0    0  0.29658841753E+00 -0.10871842902E+01  0.35074029098E+00  0.11802343505E+01  0.00000000000E+00 0. -1.
         11    1    3    3    0    0  0.34412454162E+01 -0.65035536588E+01  0.64515989550E+01  0.97857809880E+01  0.51100000000E-03 0. -1.
        -11    1    3    3    0    0  0.76495170251E+01 -0.12435347467E+02  0.31956485238E+02  0.35133601102E+02  0.51100000000E-03 0.  1.
         12    1    3    3    0    0 -0.11387350859E+02  0.20026085416E+02 -0.38758824484E+02  0.45088383560E+02  0.00000000000E+00 0. -1.
</event>
<event>
 7    1  0.2329925E-015  0.9000777E+02  0.7816164E-02  0.1186339E+00
        -11   -1    0    0    0    0  0.00000000000E+00  0.00000000000E+00  0.45593999997E+02  0.45594000000E+02  0.51100000000E-03 0.  1.
         11   -1    0    0    0    0 -0.00000000000E+00 -0.00000000000E+00 -0.45593999997E+02  0.45594000000E+02  0.51100000000E-03 0. -1.
    9900012    2    1    2    0    0 -0.15685609740E+00 -0.96522762361E+00  0.66080651963E+00  0.90007773981E+02  0.90000035797E+02 0.  0.
         12    1    1    2    0    0  0.15685609740E+00  0.96522762361E+00 -0.66080651963E+00  0.11802260195E+01  0.00000000000E+00 0. -1.
         11    1    3    3    0    0 -0.30730896856E+02 -0.22802363089E+02 -0.10174170040E+02  0.39596079607E+02  0.51100000000E-03 0. -1.
        -11    1    3    3    0    0 -0.15156352332E+01 -0.29021954693E+01  0.93046558952E+01  0.98638993452E+01  0.51100000000E-03 0.  1.
        -12    1    3    3    0    0  0.32089675991E+02  0.24739330934E+02  0.15303206645E+01  0.40547795028E+02  0.00000000000E+00 0.  1.
</event>
<event>
 7    1  0.1971192E-015  0.9000772E+02  0.7816164E-02  0.1186339E+00
        -11   -1    0    0    0    0  0.00000000000E+00  0.00000000000E+00  0.45593999997E+02  0.45594000000E+02  0.51100000000E-03 0. -1.
         11   -1    0    0    0    0 -0.00000000000E+00 -0.00000000000E+00 -0.45593999997E+02  0.45594000000E+02  0.51100000000E-03 0.  1.
    9900012    2    1    2    0    0  0.82615725806E+00 -0.40432719886E+00 -0.73962327506E+00  0.90007720843E+02  0.89999981958E+02 0.  0.
         12    1    1    2    0    0 -0.82615725806E+00  0.40432719886E+00  0.73962327506E+00  0.11802791567E+01  0.00000000000E+00 0. -1.
         11    1    3    3    0    0 -0.43122961552E+01  0.32058274118E+01 -0.71467771322E+01  0.89414568814E+01  0.51100000000E-03 0. -1.
        -11    1    3    3    0    0 -0.57968707720E+01  0.35810344767E+02 -0.89590376789E+01  0.37366413521E+02  0.51100000000E-03 0.  1.
         12    1    3    3    0    0  0.10935324185E+02 -0.39420499377E+02  0.15366191536E+02  0.43699850440E+02  0.00000000000E+00 0. -1.
</event>
<event>
 7    1  0.1971192E-015  0.9000768E+02  0.7816164E-02  0.1186339E+00
        -11   -1    0    0    0    0  0.00000000000E+00  0.00000000000E+00  0.45593999997E+02  0.45594000000E+02  0.51100000000E-03 0. -1.
         11   -1    0    0    0    0 -0.00000000000E+00 -0.00000000000E+00 -0.45593999997E+02  0.45594000000E+02  0.51100000000E-03 0.  1.
    9900012    2    1    2    0    0  0.18057173104E+00  0.11512710460E+01 -0.18742352170E+00  0.90007678540E+02  0.89999939097E+02 0.  0.
         12    1    1    2    0    0 -0.18057173104E+00 -0.11512710460E+01  0.18742352170E+00  0.11803214596E+01  0.00000000000E+00 0. -1.
         11    1    3    3    0    0  0.10313523970E+02 -0.27029097626E+02  0.24719256131E+02  0.38052365486E+02  0.51100000000E-03 0. -1.
        -11    1    3    3    0    0 -0.48656123649E+01 -0.62253969857E+01  0.17754860574E+01  0.80982777376E+01  0.51100000000E-03 0.  1.
        -12    1    3    3    0    0 -0.52673398736E+01  0.34405765657E+02 -0.26682165710E+02  0.43857035317E+02  0.00000000000E+00 0.  1.
</event>
<event>
 7    1  0.1971192E-015  0.9000771E+02  0.7816164E-02  0.1186339E+00
        -11   -1    0    0    0    0  0.00000000000E+00  0.00000000000E+00  0.45593999997E+02  0.45594000000E+02  0.51100000000E-03 0.  1.
         11   -1    0    0    0    0 -0.00000000000E+00 -0.00000000000E+00 -0.45593999997E+02  0.45594000000E+02  0.51100000000E-03 0. -1.
    9900012    2    1    2    0    0 -0.87009078537E+00 -0.28689912990E+00  0.74412756283E+00  0.90007705581E+02  0.89999966495E+02 0.  0.
         12    1    1    2    0    0  0.87009078537E+00  0.28689912990E+00 -0.74412756283E+00  0.11802944189E+01  0.00000000000E+00 0. -1.
         11    1    3    3    0    0  0.41431070176E+01 -0.65397404952E+01  0.75029175788E+01  0.10780877235E+02  0.51100000000E-03 0. -1.
        -11    1    3    3    0    0 -0.13703061864E+01  0.35853789672E+01  0.36013210174E+02  0.36217178089E+02  0.51100000000E-03 0.  1.
         12    1    3    3    0    0 -0.36428916165E+01  0.26674623981E+01 -0.42772000190E+02  0.43009650257E+02  0.00000000000E+00 0. -1.
</event>
<event>
 7    1  0.1971192E-015  0.9000747E+02  0.7816164E-02  0.1186340E+00
        -11   -1    0    0    0    0  0.00000000000E+00  0.00000000000E+00  0.45593999997E+02  0.45594000000E+02  0.51100000000E-03 0.  1.
         11   -1    0    0    0    0 -0.00000000000E+00 -0.00000000000E+00 -0.45593999997E+02  0.45594000000E+02  0.51100000000E-03 0. -1.
    9900012    2    1    2    0    0 -0.26247592829E+00 -0.10417732428E+01  0.48936090017E+00  0.90007466564E+02  0.89999724322E+02 0.  0.
         12    1    1    2    0    0  0.26247592829E+00  0.10417732428E+01 -0.48936090017E+00  0.11805334358E+01  0.00000000000E+00 0. -1.
         11    1    3    3    0    0  0.64489859313E+01 -0.14636342070E+00 -0.34873991149E+02  0.35465562180E+02  0.51100000000E-03 0. -1.
        -11    1    3    3    0    0  0.48796976305E+01  0.96655508182E+01 -0.44847138278E+01  0.11719512787E+02  0.51100000000E-03 0.  1.
        -12    1    3    3    0    0 -0.11591159490E+02 -0.10560960640E+02  0.39848065877E+02  0.42822391597E+02  0.00000000000E+00 0.  1.
</event>
<event>
 7    1  0.1971192E-015  0.9000776E+02  0.7816164E-02  0.1186339E+00
        -11   -1    0    0    0    0  0.00000000000E+00  0.00000000000E+00  0.45593999997E+02  0.45594000000E+02  0.51100000000E-03 0. -1.
         11   -1    0    0    0    0 -0.00000000000E+00 -0.00000000000E+00 -0.45593999997E+02  0.45594000000E+02  0.51100000000E-03 0.  1.
    9900012    2    1    2    0    0 -0.10669779092E+00 -0.98941174310E+00 -0.63454288569E+00  0.90007760749E+02  0.90000022391E+02 0.  0.
         12    1    1    2    0    0  0.10669779092E+00  0.98941174310E+00  0.63454288569E+00  0.11802392511E+01  0.00000000000E+00 0. -1.
         11    1    3    3    0    0  0.29884240712E+02 -0.12922714567E+02 -0.17604734647E+02  0.37013390509E+02  0.51100000000E-03 0. -1.
        -11    1    3    3    0    0  0.67625366132E+00  0.66149322268E+01 -0.98660210893E+01  0.11897605632E+02  0.51100000000E-03 0.  1.
        -12    1    3    3    0    0 -0.30667192164E+02  0.53183705976E+01  0.26836212851E+02  0.41096764608E+02  0.00000000000E+00 0.  1.
</event>
<event>
 7    1  0.1971192E-015  0.9000759E+02  0.7816164E-02  0.1186339E+00
        -11   -1    0    0    0    0  0.00000000000E+00  0.00000000000E+00  0.45593999997E+02  0.45594000000E+02  0.51100000000E-03 0.  1.
         11   -1    0    0    0    0 -0.00000000000E+00 -0.00000000000E+00 -0.45593999997E+02  0.45594000000E+02  0.51100000000E-03 0. -1.
    9900012    2    1    2    0    0 -0.25202159547E-01 -0.97061893585E+00  0.67128381020E+00  0.90007594044E+02  0.89999853485E+02 0.  0.
         12    1    1    2    0    0  0.25202159547E-01  0.97061893585E+00 -0.67128381020E+00  0.11804059561E+01  0.00000000000E+00 0. -1.
         11    1    3    3    0    0 -0.34655498787E+01  0.29160858914E+02 -0.22232023309E+02  0.36832439360E+02  0.51100000000E-03 0. -1.
        -11    1    3    3    0    0  0.18967502175E+01  0.71165430757E+01 -0.28150522463E+01  0.78846284723E+01  0.51100000000E-03 0.  1.
        -12    1    3    3    0    0  0.15435975017E+01 -0.37248020925E+02  0.25718359365E+02  0.45290526212E+02  0.00000000000E+00 0.  1.
</event>
<event>
 7    1  0.1971192E-015  0.9000794E+02  0.7816164E-02  0.1186339E+00
        -11   -1    0    0    0    0  0.00000000000E+00  0.00000000000E+00  0.45593999997E+02  0.45594000000E+02  0.51100000000E-03 0. -1.
         11   -1    0    0    0    0 -0.00000000000E+00 -0.00000000000E+00 -0.45593999997E+02  0.45594000000E+02  0.51100000000E-03 0.  1.
    9900012    2    1    2    0    0 -0.63863638581E-01  0.75839918053E+00 -0.90182649798E+00  0.90007941140E+02  0.90000205162E+02 0.  0.
         12    1    1    2    0    0  0.63863638581E-01 -0.75839918053E+00  0.90182649798E+00  0.11800588603E+01  0.00000000000E+00 0. -1.
         11    1    3    3    0    0 -0.28298435634E+01  0.16727553076E+02  0.17986422136E+02  0.24725097129E+02  0.51100000000E-03 0. -1.
        -11    1    3    3    0    0  0.16670123296E+02 -0.16153829651E+02  0.15686795879E+02  0.28016330743E+02  0.51100000000E-03 0.  1.
         12    1    3    3    0    0 -0.13904143372E+02  0.18467575524E+00 -0.34575044513E+02  0.37266513267E+02  0.00000000000E+00 0. -1.
</event>
<event>
 7    1  0.1971192E-015  0.9000776E+02  0.7816164E-02  0.1186339E+00
        -11   -1    0    0    0    0  0.00000000000E+00  0.00000000000E+00  0.45593999997E+02  0.45594000000E+02  0.51100000000E-03 0.  1.
         11   -1    0    0    0    0 -0.00000000000E+00 -0.00000000000E+00 -0.45593999997E+02  0.45594000000E+02  0.51100000000E-03 0. -1.
    9900012    2    1    2    0    0  0.58284178525E+00 -0.81404771129E+00  0.62496221146E+00  0.90007764435E+02  0.90000026126E+02 0.  0.
         12    1    1    2    0    0 -0.58284178525E+00  0.81404771129E+00 -0.62496221146E+00  0.11802355649E+01  0.00000000000E+00 0. -1.
         11    1    3    3    0    0  0.21027257069E+01  0.41958692408E+02 -0.39988624716E+01  0.42201234879E+02  0.51100000000E-03 0. -1.
        -11    1    3    3    0    0 -0.49756132361E+01 -0.36156207522E+01 -0.42904136971E+01  0.74991393141E+01  0.51100000000E-03 0.  1.
        -12    1    3    3    0    0  0.34557293144E+01 -0.39157119367E+02  0.89142383802E+01  0.40307390242E+02  0.00000000000E+00 0.  1.
</event>
<event>
 7    1  0.1971192E-015  0.9000766E+02  0.7816164E-02  0.1186339E+00
        -11   -1    0    0    0    0  0.00000000000E+00  0.00000000000E+00  0.45593999997E+02  0.45594000000E+02  0.51100000000E-03 0.  1.
         11   -1    0    0    0    0 -0.00000000000E+00 -0.00000000000E+00 -0.45593999997E+02  0.45594000000E+02  0.51100000000E-03 0. -1.
    9900012    2    1    2    0    0  0.57163181532E+00 -0.95572673343E+00  0.39118398688E+00  0.90007660459E+02  0.89999920777E+02 0.  0.
         12    1    1    2    0    0 -0.57163181532E+00  0.95572673343E+00 -0.39118398688E+00  0.11803395413E+01  0.00000000000E+00 0. -1.
         11    1    3    3    0    0  0.59697527535E+01 -0.29790998350E+02 -0.18391455114E+02  0.35516012615E+02  0.51100000000E-03 0. -1.
        -11    1    3    3    0    0  0.20229693965E+00 -0.81287672244E+01 -0.55858884398E+01  0.98650864448E+01  0.51100000000E-03 0.  1.
        -12    1    3    3    0    0 -0.56004178778E+01  0.36964038840E+02  0.24368527540E+02  0.44626561399E+02  0.00000000000E+00 0.  1.
</event>
<event>
 7    1  0.1971192E-015  0.9000771E+02  0.7816164E-02  0.1186339E+00
        -11   -1    0    0    0    0  0.00000000000E+00  0.00000000000E+00  0.45593999997E+02  0.45594000000E+02  0.51100000000E-03 0. -1.
         11   -1    0    0    0    0 -0.00000000000E+00 -0.00000000000E+00 -0.45593999997E+02  0.45594000000E+02  0.51100000000E-03 0.  1.
    9900012    2    1    2    0    0  0.11462420386E+01  0.19727008733E+00 -0.20072370988E+00  0.90007713464E+02  0.89999974482E+02 0.  0.
         12    1    1    2    0    0 -0.11462420386E+01 -0.19727008733E+00  0.20072370988E+00  0.11802865356E+01  0.00000000000E+00 0. -1.
         11    1    3    3    0    0 -0.33521791113E+02  0.54148307415E+01  0.16993704611E+02  0.37971263714E+02  0.51100000000E-03 0. -1.
        -11    1    3    3    0    0 -0.32835263199E+01  0.68258904497E+01  0.20008083051E+01  0.78343831703E+01  0.51100000000E-03 0.  1.
        -12    1    3    3    0    0  0.37951559471E+02 -0.12043451104E+02 -0.19195236626E+02  0.44202066580E+02  0.00000000000E+00 0.  1.
</event>
<event>
 7    1  0.1971192E-015  0.9000777E+02  0.7816164E-02  0.1186339E+00
        -11   -1    0    0    0    0  0.00000000000E+00  0.00000000000E+00  0.45593999997E+02  0.45594000000E+02  0.51100000000E-03 0.  1.
         11   -1    0    0    0    0 -0.00000000000E+00 -0.00000000000E+00 -0.45593999997E+02  0.45594000000E+02  0.51100000000E-03 0. -1.
    9900012    2    1    2    0    0 -0.95700030850E+00 -0.68346193346E+00  0.99832701483E-01  0.90007772745E+02  0.90000034545E+02 0.  0.
         12    1    1    2    0    0  0.95700030850E+00  0.68346193346E+00 -0.99832701483E-01  0.11802272549E+01  0.00000000000E+00 0. -1.
         11    1    3    3    0    0  0.18389924308E+02  0.25375781934E+02 -0.80968775542E+01  0.32367870662E+02  0.51100000000E-03 0. -1.
        -11    1    3    3    0    0  0.31858879546E+01  0.10633593939E+02 -0.55884185412E+01  0.12427937245E+02  0.51100000000E-03 0.  1.
        -12    1    3    3    0    0 -0.22532812571E+02 -0.36692837806E+02  0.13785128797E+02  0.45211964838E+02  0.00000000000E+00 0.  1.
</event>
<event>
 7    1  0.1971192E-015  0.9000848E+02  0.7816164E-02  0.1186338E+00
        -11   -1    0    0    0    0  0.00000000000E+00  0.00000000000E+00  0.45593999997E+02  0.45594000000E+02  0.51100000000E-03 0. -1.
         11   -1    0    0    0    0 -0.00000000000E+00 -0.00000000000E+00 -0.45593999997E+02  0.45594000000E+02  0.51100000000E-03 0.  1.
    9900012    2    1    2    0    0 -0.32728532486E+00  0.33749019058E+00 -0.10817871727E+01  0.90008475181E+02  0.90000746250E+02 0.  0.
         12    1    1    2    0    0  0.32728532486E+00 -0.33749019058E+00  0.10817871727E+01  0.11795248195E+01  0.00000000000E+00 0. -1.
         11    1    3    3    0    0 -0.23405766560E+01 -0.38479783307E+01  0.52943654969E+01  0.69509382526E+01  0.51100000000E-03 0. -1.
        -11    1    3    3    0    0 -0.59580599907E+01 -0.31146897268E+02  0.20670048825E+02  0.37853383032E+02  0.51100000000E-03 0.  1.
         12    1    3    3    0    0  0.79713513218E+01  0.35332365789E+02 -0.27046201495E+02  0.45204153896E+02  0.00000000000E+00 0. -1.
</event>
<event>
 7    1  0.1971192E-015  0.9000795E+02  0.7816164E-02  0.1186339E+00
        -11   -1    0    0    0    0  0.00000000000E+00  0.00000000000E+00  0.45593999997E+02  0.45594000000E+02  0.51100000000E-03 0.  1.
         11   -1    0    0    0    0 -0.00000000000E+00 -0.00000000000E+00 -0.45593999997E+02  0.45594000000E+02  0.51100000000E-03 0. -1.
    9900012    2    1    2    0    0 -0.92836507868E+00  0.67962131123E+00 -0.26222298874E+00  0.90007954348E+02  0.90000218545E+02 0.  0.
         12    1    1    2    0    0  0.92836507868E+00 -0.67962131123E+00  0.26222298874E+00  0.11800456524E+01  0.00000000000E+00 0. -1.
         11    1    3    3    0    0  0.36600917341E+02  0.38244763537E+01 -0.70130970720E+01  0.37462478567E+02  0.51100000000E-03 0. -1.
        -11    1    3    3    0    0  0.31772862699E+01 -0.45966653740E+01 -0.75346382543E+01  0.93805785795E+01  0.51100000000E-03 0.  1.
        -12    1    3    3    0    0 -0.40706568689E+02  0.14518103316E+01  0.14285512337E+02  0.43164897202E+02  0.00000000000E+00 0.  1.
</event>
<event>
 7    1  0.1971192E-015  0.9000773E+02  0.7816164E-02  0.1186339E+00
        -11   -1    0    0    0    0  0.00000000000E+00  0.00000000000E+00  0.45593999997E+02  0.45594000000E+02  0.51100000000E-03 0.  1.
         11   -1    0    0    0    0 -0.00000000000E+00 -0.00000000000E+00 -0.45593999997E+02  0.45594000000E+02  0.51100000000E-03 0. -1.
    9900012    2    1    2    0    0  0.10347707945E+00 -0.47889290559E+00  0.10737740544E+01  0.90007730268E+02  0.89999991507E+02 0.  0.
         12    1    1    2    0    0 -0.10347707945E+00  0.47889290559E+00 -0.10737740544E+01  0.11802697323E+01  0.00000000000E+00 0. -1.
         11    1    3    3    0    0  0.42457090298E+01  0.28977396539E+01  0.77214746483E+01  0.92759965111E+01  0.51100000000E-03 0. -1.
        -11    1    3    3    0    0  0.17916332223E+01 -0.41630676214E+02 -0.16834790764E+01  0.41703204357E+02  0.51100000000E-03 0.  1.
         12    1    3    3    0    0 -0.59338651726E+01  0.38254043654E+02 -0.49642215175E+01  0.39028529399E+02  0.00000000000E+00 0. -1.
</event>
<event>
 7    1  0.1971192E-015  0.9000774E+02  0.7816164E-02  0.1186339E+00
        -11   -1    0    0    0    0  0.00000000000E+00  0.00000000000E+00  0.45593999997E+02  0.45594000000E+02  0.51100000000E-03 0.  1.
         11   -1    0    0    0    0 -0.00000000000E+00 -0.00000000000E+00 -0.45593999997E+02  0.45594000000E+02  0.51100000000E-03 0. -1.
    9900012    2    1    2    0    0 -0.51892221547E+00 -0.10522747321E+01 -0.12824987358E+00  0.90007741381E+02  0.90000002767E+02 0.  0.
         12    1    1    2    0    0  0.51892221547E+00  0.10522747321E+01  0.12824987358E+00  0.11802586189E+01  0.00000000000E+00 0. -1.
         11    1    3    3    0    0  0.14753073554E+02 -0.32414224475E+02 -0.27188497549E+02  0.44805686323E+02  0.51100000000E-03 0. -1.
        -11    1    3    3    0    0 -0.38099216013E+01  0.60545019212E+01  0.12128339127E+01  0.72555814710E+01  0.51100000000E-03 0.  1.
        -12    1    3    3    0    0 -0.11462074168E+02  0.25307447822E+02  0.25847413763E+02  0.37946473587E+02  0.00000000000E+00 0.  1.
</event>
<event>
 7    1  0.1971192E-015  0.9000775E+02  0.7816164E-02  0.1186339E+00
        -11   -1    0    0    0    0  0.00000000000E+00  0.00000000000E+00  0.45593999997E+02  0.45594000000E+02  0.51100000000E-03 0. -1.
         11   -1    0    0    0    0 -0.00000000000E+00 -0.00000000000E+00 -0.45593999997E+02  0.45594000000E+02  0.51100000000E-03 0.  1.
    9900012    2    1    2    0    0 -0.10051000937E+01 -0.31283638720E+00 -0.53376299756E+00  0.90007747594E+02  0.90000009063E+02 0.  0.
         12    1    1    2    0    0  0.10051000937E+01  0.31283638720E+00  0.53376299756E+00  0.11802524057E+01  0.00000000000E+00 0. -1.
         11    1    3    3    0    0 -0.92517246863E+01 -0.35747955597E+01 -0.28751302559E+01  0.10326661959E+02  0.51100000000E-03 0. -1.
        -11    1    3    3    0    0 -0.27884120122E+02 -0.14482126134E+02 -0.16213986109E+02  0.35357452937E+02  0.51100000000E-03 0.  1.
         12    1    3    3    0    0  0.36130744715E+02  0.17744085306E+02  0.18555353368E+02  0.44323632699E+02  0.00000000000E+00 0. -1.
</event>
<event>
 7    1  0.1971192E-015  0.9000773E+02  0.7816164E-02  0.1186339E+00
        -11   -1    0    0    0    0  0.00000000000E+00  0.00000000000E+00  0.45593999997E+02  0.45594000000E+02  0.51100000000E-03 0.  1.
         11   -1    0    0    0    0 -0.00000000000E+00 -0.00000000000E+00 -0.45593999997E+02  0.45594000000E+02  0.51100000000E-03 0. -1.
    9900012    2    1    2    0    0  0.64322897903E+00  0.70092070410E+00  0.69857807997E+00  0.90007726859E+02  0.89999988054E+02 0.  0.
         12    1    1    2    0    0 -0.64322897903E+00 -0.70092070410E+00 -0.69857807997E+00  0.11802731407E+01  0.00000000000E+00 0. -1.
         11    1    3    3    0    0  0.22994162037E+02 -0.21928922945E+02 -0.25523554164E+02  0.40756115698E+02  0.51100000000E-03 0. -1.
        -11    1    3    3    0    0 -0.61409269711E+01 -0.20769313142E+01 -0.34769522069E+01  0.73562099385E+01  0.51100000000E-03 0.  1.
        -12    1    3    3    0    0 -0.16210006087E+02  0.24706774963E+02  0.29699084451E+02  0.41895401223E+02  0.00000000000E+00 0.  1.
</event>
<event>
 7    1  0.1971192E-015  0.9000780E+02  0.7816164E-02  0.1186339E+00
        -11   -1    0    0    0    0  0.00000000000E+00  0.00000000000E+00  0.45593999997E+02  0.45594000000E+02  0.51100000000E-03 0. -1.
         11   -1    0    0    0    0 -0.00000000000E+00 -0.00000000000E+00 -0.45593999997E+02  0.45594000000E+02  0.51100000000E-03 0.  1.
    9900012    2    1    2    0    0  0.67133823207E+00 -0.22532893603E+00 -0.94414566693E+00  0.90007796970E+02  0.90000059090E+02 0.  0.
         12    1    1    2    0    0 -0.67133823207E+00  0.22532893603E+00  0.94414566693E+00  0.11802030298E+01  0.00000000000E+00 0. -1.
         11    1    3    3    0    0  0.27399247523E+02 -0.22373109118E+02  0.25732537984E+02  0.43742865565E+02  0.51100000000E-03 0. -1.
        -11    1    3    3    0    0  0.15070120647E+01  0.35569938911E+01 -0.16361447553E+01  0.41952664785E+01  0.51100000000E-03 0.  1.
        -12    1    3    3    0    0 -0.28234921355E+02  0.18590786291E+02 -0.25040538896E+02  0.42069664927E+02  0.00000000000E+00 0.  1.
</event>
<event>
 7    1  0.1971192E-015  0.9000775E+02  0.7816164E-02  0.1186339E+00
        -11   -1    0    0    0    0  0.00000000000E+00  0.00000000000E+00  0.45593999997E+02  0.45594000000E+02  0.51100000000E-03 0.  1.
         11   -1    0    0    0    0 -0.00000000000E+00 -0.00000000000E+00 -0.45593999997E+02  0.45594000000E+02  0.51100000000E-03 0. -1.
    9900012    2    1    2    0    0 -0.53662394490E+00 -0.10378108548E+01  0.16728192472E+00  0.90007745845E+02  0.90000007290E+02 0.  0.
         12    1    1    2    0    0  0.53662394490E+00  0.10378108548E+01 -0.16728192472E+00  0.11802541553E+01  0.00000000000E+00 0. -1.
         11    1    3    3    0    0  0.39491037924E+02 -0.15362582691E+02  0.46325352131E+00  0.42376474928E+02  0.51100000000E-03 0. -1.
        -11    1    3    3    0    0 -0.10350387794E+02 -0.38869745032E+01  0.54734954676E+01  0.12336865533E+02  0.51100000000E-03 0.  1.
        -12    1    3    3    0    0 -0.29677274074E+02  0.18211746340E+02 -0.57694670642E+01  0.35294405384E+02  0.00000000000E+00 0.  1.
</event>
<event>
 7    1  0.1971192E-015  0.9000771E+02  0.7816164E-02  0.1186339E+00
        -11   -1    0    0    0    0  0.00000000000E+00  0.00000000000E+00  0.45593999997E+02  0.45594000000E+02  0.51100000000E-03 0.  1.
         11   -1    0    0    0    0 -0.00000000000E+00 -0.00000000000E+00 -0.45593999997E+02  0.45594000000E+02  0.51100000000E-03 0. -1.
    9900012    2    1    2    0    0  0.25081416270E+00 -0.11345126237E+01 -0.20749255414E+00  0.90007711985E+02  0.89999972984E+02 0.  0.
         12    1    1    2    0    0 -0.25081416270E+00  0.11345126237E+01  0.20749255414E+00  0.11802880147E+01  0.00000000000E+00 0. -1.
         11    1    3    3    0    0  0.30266468473E+01  0.55733914631E+01 -0.84269968742E+01  0.10546921831E+02  0.51100000000E-03 0. -1.
        -11    1    3    3    0    0 -0.32395624876E+02 -0.24036025151E+02 -0.85987751288E+01  0.41244950602E+02  0.51100000000E-03 0.  1.
         12    1    3    3    0    0  0.29619792191E+02  0.17328121064E+02  0.16818279449E+02  0.38215839552E+02  0.00000000000E+00 0. -1.
</event>
<event>
 7    1  0.1971192E-015  0.9000770E+02  0.7816164E-02  0.1186339E+00
        -11   -1    0    0    0    0  0.00000000000E+00  0.00000000000E+00  0.45593999997E+02  0.45594000000E+02  0.51100000000E-03 0.  1.
         11   -1    0    0    0    0 -0.00000000000E+00 -0.00000000000E+00 -0.45593999997E+02  0.45594000000E+02  0.51100000000E-03 0. -1.
    9900012    2    1    2    0    0 -0.11755431585E+01  0.93397152871E-01 -0.49811239908E-01  0.90007700925E+02  0.89999961778E+02 0.  0.
         12    1    1    2    0    0  0.11755431585E+01 -0.93397152871E-01  0.49811239908E-01  0.11802990745E+01  0.00000000000E+00 0. -1.
         11    1    3    3    0    0 -0.10250252671E+02 -0.21768061323E+02 -0.10100503460E+02  0.26094757021E+02  0.51100000000E-03 0. -1.
        -11    1    3    3    0    0  0.20340767198E+01 -0.20276854032E+02  0.25602635492E+01  0.20538822441E+02  0.51100000000E-03 0.  1.
         12    1    3    3    0    0  0.70406327928E+01  0.42138312508E+02  0.74904286707E+01  0.43374121464E+02  0.00000000000E+00 0. -1.
</event>
<event>
 7    1  0.1971192E-015  0.9000775E+02  0.7816164E-02  0.1186339E+00
        -11   -1    0    0    0    0  0.00000000000E+00  0.00000000000E+00  0.45593999997E+02  0.45594000000E+02  0.51100000000E-03 0.  1.
         11   -1    0    0    0    0 -0.00000000000E+00 -0.00000000000E+00 -0.45593999997E+02  0.45594000000E+02  0.51100000000E-03 0. -1.
    9900012    2    1    2    0    0  0.10873643990E-01  0.46267763915E+00  0.10857243225E+01  0.90007751662E+02  0.90000013184E+02 0.  0.
         12    1    1    2    0    0 -0.10873643990E-01 -0.46267763915E+00 -0.10857243225E+01  0.11802483376E+01  0.00000000000E+00 0. -1.
         11    1    3    3    0    0 -0.22325165759E+02  0.25933735972E+01 -0.26377607729E+02  0.34654246530E+02  0.51100000000E-03 0. -1.
        -11    1    3    3    0    0 -0.62378236990E+01  0.57444610818E+01 -0.61975824905E+01  0.10503299796E+02  0.51100000000E-03 0.  1.
        -12    1    3    3    0    0  0.28573863102E+02 -0.78751570399E+01  0.33660914542E+02  0.44850205337E+02  0.00000000000E+00 0.  1.
</event>
<event>
 7    1  0.1971192E-015  0.9000773E+02  0.7816164E-02  0.1186339E+00
        -11   -1    0    0    0    0  0.00000000000E+00  0.00000000000E+00  0.45593999997E+02  0.45594000000E+02  0.51100000000E-03 0.  1.
         11   -1    0    0    0    0 -0.00000000000E+00 -0.00000000000E+00 -0.45593999997E+02  0.45594000000E+02  0.51100000000E-03 0. -1.
    9900012    2    1    2    0    0  0.71080719058E+00 -0.68491513100E+00  0.64705410574E+00  0.90007731126E+02  0.89999992377E+02 0.  0.
         12    1    1    2    0    0 -0.71080719058E+00  0.68491513100E+00 -0.64705410574E+00  0.11802688739E+01  0.00000000000E+00 0. -1.
         11    1    3    3    0    0 -0.38984993902E+01  0.30055005313E+02 -0.18009949546E+02  0.35254218539E+02  0.51100000000E-03 0. -1.
        -11    1    3    3    0    0 -0.42439431670E+01  0.82702662922E+01 -0.23257804612E+01  0.95821507587E+01  0.51100000000E-03 0.  1.
        -12    1    3    3    0    0  0.88532497478E+01 -0.39010186737E+02  0.20982784113E+02  0.45171361829E+02  0.00000000000E+00 0.  1.
</event>
<event>
 7    1  0.1971192E-015  0.9000778E+02  0.7816164E-02  0.1186339E+00
        -11   -1    0    0    0    0  0.00000000000E+00  0.00000000000E+00  0.45593999997E+02  0.45594000000E+02  0.51100000000E-03 0.  1.
         11   -1    0    0    0    0 -0.00000000000E+00 -0.00000000000E+00 -0.45593999997E+02  0.45594000000E+02  0.51100000000E-03 0. -1.
    9900012    2    1    2    0    0  0.59392694838E+00  0.96558517094E+00  0.32836838460E+00  0.90007775556E+02  0.90000037393E+02 0.  0.
         12    1    1    2    0    0 -0.59392694838E+00 -0.96558517094E+00 -0.32836838460E+00  0.11802244441E+01  0.00000000000E+00 0. -1.
         11    1    3    3    0    0 -0.26755452238E+02  0.22978270862E+02 -0.88280792373E+01  0.36356431887E+02  0.51100000000E-03 0. -1.
        -11    1    3    3    0    0  0.35581027998E+01  0.11329426088E+02  0.13161636549E+01  0.11947731084E+02  0.51100000000E-03 0.  1.
        -12    1    3    3    0    0  0.23791276386E+02 -0.33342111780E+02  0.78402839670E+01  0.41703612586E+02  0.00000000000E+00 0.  1.
</event>
<event>
 7    1  0.1971192E-015  0.9000767E+02  0.7816164E-02  0.1186339E+00
        -11   -1    0    0    0    0  0.00000000000E+00  0.00000000000E+00  0.45593999997E+02  0.45594000000E+02  0.51100000000E-03 0. -1.
         11   -1    0    0    0    0 -0.00000000000E+00 -0.00000000000E+00 -0.45593999997E+02  0.45594000000E+02  0.51100000000E-03 0.  1.
    9900012    2    1    2    0    0  0.40766151522E+00  0.80036861508E+00 -0.76576790503E+00  0.90007670251E+02  0.89999930699E+02 0.  0.
         12    1    1    2    0    0 -0.40766151522E+00 -0.80036861508E+00  0.76576790503E+00  0.11803297486E+01  0.00000000000E+00 0. -1.
         11    1    3    3    0    0 -0.31634914746E+01 -0.10242737346E+02 -0.49879536913E+01  0.11823748515E+02  0.51100000000E-03 0. -1.
        -11    1    3    3    0    0 -0.11407606161E+02 -0.26035324867E+02 -0.16786623036E+02  0.33011548471E+02  0.51100000000E-03 0.  1.
         12    1    3    3    0    0  0.14978759151E+02  0.37078430828E+02  0.21008808822E+02  0.45172373266E+02  0.00000000000E+00 0. -1.
</event>
<event>
 7    1  0.1971192E-015  0.9000777E+02  0.7816164E-02  0.1186339E+00
        -11   -1    0    0    0    0  0.00000000000E+00  0.00000000000E+00  0.45593999997E+02  0.45594000000E+02  0.51100000000E-03 0. -1.
         11   -1    0    0    0    0 -0.00000000000E+00 -0.00000000000E+00 -0.45593999997E+02  0.45594000000E+02  0.51100000000E-03 0.  1.
    9900012    2    1    2    0    0  0.45463574636E+00 -0.96052903134E+00 -0.51346302125E+00  0.90007765296E+02  0.90000026998E+02 0.  0.
         12    1    1    2    0    0 -0.45463574636E+00  0.96052903134E+00  0.51346302125E+00  0.11802347038E+01  0.00000000000E+00 0. -1.
         11    1    3    3    0    0  0.19176662727E+02  0.11728602264E+02  0.25828787279E+02  0.34240776232E+02  0.51100000000E-03 0. -1.
        -11    1    3    3    0    0 -0.60731850992E+01 -0.14412421822E+02  0.91009123989E+01  0.18094974075E+02  0.51100000000E-03 0.  1.
        -12    1    3    3    0    0 -0.12648841882E+02  0.17232905262E+01 -0.35443162699E+02  0.37672014989E+02  0.00000000000E+00 0.  1.
</event>
<event>
 7    1  0.1971192E-015  0.9000766E+02  0.7816164E-02  0.1186339E+00
        -11   -1    0    0    0    0  0.00000000000E+00  0.00000000000E+00  0.45593999997E+02  0.45594000000E+02  0.51100000000E-03 0. -1.
         11   -1    0    0    0    0 -0.00000000000E+00 -0.00000000000E+00 -0.45593999997E+02  0.45594000000E+02  0.51100000000E-03 0.  1.
    9900012    2    1    2    0    0 -0.88488351400E+00 -0.77291097504E+00  0.11310400321E+00  0.90007659912E+02  0.89999920222E+02 0.  0.
         12    1    1    2    0    0  0.88488351400E+00  0.77291097504E+00 -0.11310400321E+00  0.11803400884E+01  0.00000000000E+00 0. -1.
         11    1    3    3    0    0  0.50075627442E+01  0.74385321262E+01  0.29627959601E+01  0.94438130536E+01  0.51100000000E-03 0. -1.
        -11    1    3    3    0    0 -0.18423110776E+01  0.36018047968E+02 -0.11710116049E+00  0.36065324100E+02  0.51100000000E-03 0.  1.
         12    1    3    3    0    0 -0.40501351807E+01 -0.44229491069E+02 -0.27325907964E+01  0.44498522758E+02  0.00000000000E+00 0. -1.
</event>
<event>
 7    1  0.1971192E-015  0.9000783E+02  0.7816164E-02  0.1186339E+00
        -11   -1    0    0    0    0  0.00000000000E+00  0.00000000000E+00  0.45593999997E+02  0.45594000000E+02  0.51100000000E-03 0. -1.
         11   -1    0    0    0    0 -0.00000000000E+00 -0.00000000000E+00 -0.45593999997E+02  0.45594000000E+02  0.51100000000E-03 0.  1.
    9900012    2    1    2    0    0  0.64842946729E+00  0.91904320969E+00 -0.35734251426E+00  0.90007832695E+02  0.90000095287E+02 0.  0.
         12    1    1    2    0    0 -0.64842946729E+00 -0.91904320969E+00  0.35734251426E+00  0.11801673050E+01  0.00000000000E+00 0. -1.
         11    1    3    3    0    0  0.21829427042E+02  0.62923884085E+00  0.31660541779E+02  0.38461795753E+02  0.51100000000E-03 0. -1.
        -11    1    3    3    0    0 -0.26207659837E+00  0.10024325553E+02  0.22092310275E+01  0.10268227156E+02  0.51100000000E-03 0.  1.
        -12    1    3    3    0    0 -0.20918920977E+02 -0.97345211840E+01 -0.34227115321E+02  0.41277809786E+02  0.00000000000E+00 0.  1.
</event>
<event>
 7    1  0.1971192E-015  0.9000826E+02  0.7816164E-02  0.1186338E+00
        -11   -1    0    0    0    0  0.00000000000E+00  0.00000000000E+00  0.45593999997E+02  0.45594000000E+02  0.51100000000E-03 0. -1.
         11   -1    0    0    0    0 -0.00000000000E+00 -0.00000000000E+00 -0.45593999997E+02  0.45594000000E+02  0.51100000000E-03 0.  1.
    9900012    2    1    2    0    0  0.37414560574E+00 -0.10054032910E+01 -0.49087895795E+00  0.90008261528E+02  0.90000529778E+02 0.  0.
         12    1    1    2    0    0 -0.37414560574E+00  0.10054032910E+01  0.49087895795E+00  0.11797384724E+01  0.00000000000E+00 0. -1.
         11    1    3    3    0    0  0.21617297539E+02 -0.31503399069E+02  0.12954864359E+02  0.40343527568E+02  0.51100000000E-03 0. -1.
        -11    1    3    3    0    0  0.11211182940E+00 -0.28180285722E+01 -0.94836403499E+01  0.98941037312E+01  0.51100000000E-03 0.  1.
        -12    1    3    3    0    0 -0.21355263763E+02  0.33316024350E+02 -0.39621029675E+01  0.39770630229E+02  0.00000000000E+00 0.  1.
</event>
<event>
 7    1  0.1971192E-015  0.9000775E+02  0.7816164E-02  0.1186339E+00
        -11   -1    0    0    0    0  0.00000000000E+00  0.00000000000E+00  0.45593999997E+02  0.45594000000E+02  0.51100000000E-03 0.  1.
         11   -1    0    0    0    0 -0.00000000000E+00 -0.00000000000E+00 -0.45593999997E+02  0.45594000000E+02  0.51100000000E-03 0. -1.
    9900012    2    1    2    0    0 -0.16691874842E+00  0.90960851735E+00  0.73330715601E+00  0.90007750489E+02  0.90000011995E+02 0.  0.
         12    1    1    2    0    0  0.16691874842E+00 -0.90960851735E+00 -0.73330715601E+00  0.11802495111E+01  0.00000000000E+00 0. -1.
         11    1    3    3    0    0 -0.17252639874E+02  0.30405363829E+02 -0.20378318469E+02  0.40464992229E+02  0.51100000000E-03 0. -1.
        -11    1    3    3    0    0  0.54180901783E+01 -0.22028058506E+01 -0.66813394090E+01  0.88796594166E+01  0.51100000000E-03 0.  1.
        -12    1    3    3    0    0  0.11667630947E+02 -0.27292949461E+02  0.27792965034E+02  0.40663098844E+02  0.00000000000E+00 0.  1.
</event>
<event>
 7    1  0.1971192E-015  0.9000890E+02  0.7816164E-02  0.1186337E+00
        -11   -1    0    0    0    0  0.00000000000E+00  0.00000000000E+00  0.45593999997E+02  0.45594000000E+02  0.51100000000E-03 0. -1.
         11   -1    0    0    0    0 -0.00000000000E+00 -0.00000000000E+00 -0.45593999997E+02  0.45594000000E+02  0.51100000000E-03 0.  1.
    9900012    2    1    2    0    0 -0.10434607926E-01  0.10912326526E+01 -0.44652315776E+00  0.90008898429E+02  0.90001175081E+02 0.  0.
         12    1    1    2    0    0  0.10434607926E-01 -0.10912326526E+01  0.44652315776E+00  0.11791015705E+01  0.00000000000E+00 0. -1.
         11    1    3    3    0    0 -0.42511916345E+01 -0.78985886079E+01 -0.87937211009E+00  0.90129699810E+01  0.51100000000E-03 0. -1.
        -11    1    3    3    0    0  0.25906058125E+02 -0.13328272753E+02 -0.26851705032E+02  0.39620458926E+02  0.51100000000E-03 0.  1.
         12    1    3    3    0    0 -0.21665301099E+02  0.22318094013E+02  0.27284553984E+02  0.41375469522E+02  0.00000000000E+00 0. -1.
</event>
<event>
 7    1  0.1971192E-015  0.9000772E+02  0.7816164E-02  0.1186339E+00
        -11   -1    0    0    0    0  0.00000000000E+00  0.00000000000E+00  0.45593999997E+02  0.45594000000E+02  0.51100000000E-03 0.  1.
         11   -1    0    0    0    0 -0.00000000000E+00 -0.00000000000E+00 -0.45593999997E+02  0.45594000000E+02  0.51100000000E-03 0. -1.
    9900012    2    1    2    0    0  0.62971863023E+00 -0.57569723279E+00  0.81553274808E+00  0.90007717610E+02  0.89999978682E+02 0.  0.
         12    1    1    2    0    0 -0.62971863023E+00  0.57569723279E+00 -0.81553274808E+00  0.11802823901E+01  0.00000000000E+00 0. -1.
         11    1    3    3    0    0 -0.10616286848E+01  0.10099732015E+02 -0.34351496674E+02  0.35821180413E+02  0.51100000000E-03 0. -1.
        -11    1    3    3    0    0 -0.55219105470E+01 -0.47303905425E+01 -0.75363482004E+01  0.10472088389E+02  0.51100000000E-03 0.  1.
        -12    1    3    3    0    0  0.72132578621E+01 -0.59450387049E+01  0.42703377622E+02  0.43714448807E+02  0.00000000000E+00 0.  1.
</event>
<event>
 7    1  0.1971192E-015  0.9000774E+02  0.7816164E-02  0.1186339E+00
        -11   -1    0    0    0    0  0.00000000000E+00  0.00000000000E+00  0.45593999997E+02  0.45594000000E+02  0.51100000000E-03 0.  1.
         11   -1    0    0    0    0 -0.00000000000E+00 -0.00000000000E+00 -0.45593999997E+02  0.45594000000E+02  0.51100000000E-03 0. -1.
    9900012    2    1    2    0    0 -0.26807170892E+00 -0.44169932357E+00  0.10611536204E+01  0.90007742511E+02  0.90000003912E+02 0.  0.
         12    1    1    2    0    0  0.26807170892E+00  0.44169932357E+00 -0.10611536204E+01  0.11802574887E+01  0.00000000000E+00 0. -1.
         11    1    3    3    0    0  0.13731113953E+02 -0.71638277218E+01  0.47589074732E+01  0.16202194871E+02  0.51100000000E-03 0. -1.
        -11    1    3    3    0    0  0.16940660108E+02  0.18670606153E+02 -0.24091116563E+02  0.34870609352E+02  0.51100000000E-03 0.  1.
         12    1    3    3    0    0 -0.30939845770E+02 -0.11948477755E+02  0.20393362710E+02  0.38934938289E+02  0.00000000000E+00 0. -1.
</event>
<event>
 7    1  0.1971192E-015  0.9000756E+02  0.7816164E-02  0.1186339E+00
        -11   -1    0    0    0    0  0.00000000000E+00  0.00000000000E+00  0.45593999997E+02  0.45594000000E+02  0.51100000000E-03 0. -1.
         11   -1    0    0    0    0 -0.00000000000E+00 -0.00000000000E+00 -0.45593999997E+02  0.45594000000E+02  0.51100000000E-03 0.  1.
    9900012    2    1    2    0    0 -0.85690255860E+00  0.61627976822E+00 -0.52854071704E+00  0.90007560236E+02  0.89999819231E+02 0.  0.
         12    1    1    2    0    0  0.85690255860E+00 -0.61627976822E+00  0.52854071704E+00  0.11804397643E+01  0.00000000000E+00 0. -1.
         11    1    3    3    0    0 -0.55547181340E+00  0.38166469980E+01  0.35733738999E+01  0.52577889395E+01  0.51100000000E-03 0. -1.
        -11    1    3    3    0    0  0.12388337126E+02  0.26787233360E+02  0.26794869350E+02  0.39862159896E+02  0.51100000000E-03 0.  1.
         12    1    3    3    0    0 -0.12689767871E+02 -0.29987600590E+02 -0.30896783967E+02  0.44887611400E+02  0.00000000000E+00 0. -1.
</event>
<event>
 7    1  0.1971192E-015  0.9000770E+02  0.7816164E-02  0.1186339E+00
        -11   -1    0    0    0    0  0.00000000000E+00  0.00000000000E+00  0.45593999997E+02  0.45594000000E+02  0.51100000000E-03 0. -1.
         11   -1    0    0    0    0 -0.00000000000E+00 -0.00000000000E+00 -0.45593999997E+02  0.45594000000E+02  0.51100000000E-03 0.  1.
    9900012    2    1    2    0    0 -0.78417130701E-01  0.10967801276E+01 -0.42898826522E+00  0.90007700535E+02  0.89999961382E+02 0.  0.
         12    1    1    2    0    0  0.78417130701E-01 -0.10967801276E+01  0.42898826522E+00  0.11802994647E+01  0.00000000000E+00 0. -1.
         11    1    3    3    0    0  0.33676774448E+02  0.18390477046E+01 -0.25702708601E+02  0.42404439195E+02  0.51100000000E-03 0. -1.
        -11    1    3    3    0    0  0.82050665765E+00  0.13204363659E+01  0.93548345386E+01  0.94831278003E+01  0.51100000000E-03 0.  1.
        -12    1    3    3    0    0 -0.34575698237E+02 -0.20627039429E+01  0.15918885798E+02  0.38120133540E+02  0.00000000000E+00 0.  1.
</event>
<event>
 7    1  0.1971192E-015  0.9000776E+02  0.7816164E-02  0.1186339E+00
        -11   -1    0    0    0    0  0.00000000000E+00  0.00000000000E+00  0.45593999997E+02  0.45594000000E+02  0.51100000000E-03 0. -1.
         11   -1    0    0    0    0 -0.00000000000E+00 -0.00000000000E+00 -0.45593999997E+02  0.45594000000E+02  0.51100000000E-03 0.  1.
    9900012    2    1    2    0    0 -0.97994902172E+00  0.28206605709E+00 -0.59421776461E+00  0.90007764389E+02  0.90000026079E+02 0.  0.
         12    1    1    2    0    0  0.97994902172E+00 -0.28206605709E+00  0.59421776461E+00  0.11802356110E+01  0.00000000000E+00 0. -1.
         11    1    3    3    0    0 -0.14581723811E+02 -0.30715601067E+02  0.39234082268E+01  0.34226713990E+02  0.51100000000E-03 0. -1.
        -11    1    3    3    0    0  0.39061489675E+01 -0.10747237618E+02 -0.59713943389E+01  0.12900335918E+02  0.51100000000E-03 0.  1.
        -12    1    3    3    0    0  0.96956258220E+01  0.41744904742E+02  0.14537683474E+01  0.42880714481E+02  0.00000000000E+00 0.  1.
</event>
<event>
 7    1  0.1971192E-015  0.9000778E+02  0.7816164E-02  0.1186339E+00
        -11   -1    0    0    0    0  0.00000000000E+00  0.00000000000E+00  0.45593999997E+02  0.45594000000E+02  0.51100000000E-03 0.  1.
         11   -1    0    0    0    0 -0.00000000000E+00 -0.00000000000E+00 -0.45593999997E+02  0.45594000000E+02  0.51100000000E-03 0. -1.
    9900012    2    1    2    0    0  0.42934742667E+00  0.69070851234E+00 -0.85528213148E+00  0.90007777569E+02  0.90000039433E+02 0.  0.
         12    1    1    2    0    0 -0.42934742667E+00 -0.69070851234E+00  0.85528213148E+00  0.11802224308E+01  0.00000000000E+00 0. -1.
         11    1    3    3    0    0 -0.99411981149E+01  0.13158090893E+00  0.99349644545E+01  0.14055185964E+02  0.51100000000E-03 0. -1.
        -11    1    3    3    0    0 -0.28585193100E+02  0.25595576068E+01  0.11624066259E+02  0.30964229626E+02  0.51100000000E-03 0.  1.
         12    1    3    3    0    0  0.38955738641E+02 -0.20004300034E+01 -0.22414312845E+02  0.44988361979E+02  0.00000000000E+00 0. -1.
</event>
<event>
 7    1  0.1971192E-015  0.9000759E+02  0.7816164E-02  0.1186339E+00
        -11   -1    0    0    0    0  0.00000000000E+00  0.00000000000E+00  0.45593999997E+02  0.45594000000E+02  0.51100000000E-03 0.  1.
         11   -1    0    0    0    0 -0.00000000000E+00 -0.00000000000E+00 -0.45593999997E+02  0.45594000000E+02  0.51100000000E-03 0. -1.
    9900012    2    1    2    0    0 -0.58863360887E+00  0.79199684177E+00  0.64777596569E+00  0.90007592348E+02  0.89999851767E+02 0.  0.
         12    1    1    2    0    0  0.58863360887E+00 -0.79199684177E+00 -0.64777596569E+00  0.11804076519E+01  0.00000000000E+00 0. -1.
         11    1    3    3    0    0 -0.22825259665E+02 -0.20838648828E+02 -0.15576160428E+02  0.34610093004E+02  0.51100000000E-03 0. -1.
        -11    1    3    3    0    0 -0.10377857406E+01 -0.11626401485E+02 -0.28204677037E-01  0.11672660644E+02  0.51100000000E-03 0.  1.
        -12    1    3    3    0    0  0.23274411797E+02  0.33257047155E+02  0.16252141071E+02  0.43724838701E+02  0.00000000000E+00 0.  1.
</event>
<event>
 7    1  0.1971192E-015  0.9000769E+02  0.7816164E-02  0.1186339E+00
        -11   -1    0    0    0    0  0.00000000000E+00  0.00000000000E+00  0.45593999997E+02  0.45594000000E+02  0.51100000000E-03 0.  1.
         11   -1    0    0    0    0 -0.00000000000E+00 -0.00000000000E+00 -0.45593999997E+02  0.45594000000E+02  0.51100000000E-03 0. -1.
    9900012    2    1    2    0    0  0.35479127026E+00 -0.11167533296E+01  0.14186331516E+00  0.90007686463E+02  0.89999947125E+02 0.  0.
         12    1    1    2    0    0 -0.35479127026E+00  0.11167533296E+01 -0.14186331516E+00  0.11803135366E+01  0.00000000000E+00 0. -1.
         11    1    3    3    0    0  0.60542279910E+01 -0.49596168069E+01 -0.71720292184E+00  0.78591256340E+01  0.51100000000E-03 0. -1.
        -11    1    3    3    0    0 -0.27063116752E+02 -0.17009702593E+02  0.27477324650E+02  0.42151460720E+02  0.51100000000E-03 0.  1.
         12    1    3    3    0    0  0.21363680032E+02  0.20852566071E+02 -0.26618258413E+02  0.39997100109E+02  0.00000000000E+00 0. -1.
</event>
<event>
 7    1  0.1971192E-015  0.9000762E+02  0.7816164E-02  0.1186339E+00
        -11   -1    0    0    0    0  0.00000000000E+00  0.00000000000E+00  0.45593999997E+02  0.45594000000E+02  0.51100000000E-03 0. -1.
         11   -1    0    0    0    0 -0.00000000000E+00 -0.00000000000E+00 -0.45593999997E+02  0.45594000000E+02  0.51100000000E-03 0.  1.
    9900012    2    1    2    0    0 -0.23013018561E+00  0.10532687752E+01  0.48058224649E+00  0.90007621116E+02  0.89999880914E+02 0.  0.
         12    1    1    2    0    0  0.23013018561E+00 -0.10532687752E+01 -0.48058224649E+00  0.11803788845E+01  0.00000000000E+00 0. -1.
         11    1    3    3    0    0 -0.62265965009E+01 -0.70906004988E+01  0.46221328997E+01  0.10507674920E+02  0.51100000000E-03 0. -1.
        -11    1    3    3    0    0  0.18706978588E+02 -0.32070888758E+02 -0.68797066844E-01  0.37128125281E+02  0.51100000000E-03 0.  1.
         12    1    3    3    0    0 -0.12710512272E+02  0.40214758032E+02 -0.40727535863E+01  0.42371820914E+02  0.00000000000E+00 0. -1.
</event>
<event>
 7    1  0.1971192E-015  0.9000771E+02  0.7816164E-02  0.1186339E+00
        -11   -1    0    0    0    0  0.00000000000E+00  0.00000000000E+00  0.45593999997E+02  0.45594000000E+02  0.51100000000E-03 0.  1.
         11   -1    0    0    0    0 -0.00000000000E+00 -0.00000000000E+00 -0.45593999997E+02  0.45594000000E+02  0.51100000000E-03 0. -1.
    9900012    2    1    2    0    0  0.70678475670E+00 -0.54257347757E+00  0.77404784477E+00  0.90007711587E+02  0.89999972580E+02 0.  0.
         12    1    1    2    0    0 -0.70678475670E+00  0.54257347757E+00 -0.77404784477E+00  0.11802884126E+01  0.00000000000E+00 0. -1.
         11    1    3    3    0    0  0.87365108770E+01 -0.19402205174E+01 -0.10182542979E+01  0.90071038651E+01  0.51100000000E-03 0. -1.
        -11    1    3    3    0    0  0.29989072452E+02  0.20085011643E+02 -0.91733234724E+01  0.37241133482E+02  0.51100000000E-03 0.  1.
         12    1    3    3    0    0 -0.38018798572E+02 -0.18687364603E+02  0.10965625615E+02  0.43759474241E+02  0.00000000000E+00 0. -1.
</event>
<event>
 7    1  0.1971192E-015  0.9000774E+02  0.7816164E-02  0.1186339E+00
        -11   -1    0    0    0    0  0.00000000000E+00  0.00000000000E+00  0.45593999997E+02  0.45594000000E+02  0.51100000000E-03 0.  1.
         11   -1    0    0    0    0 -0.00000000000E+00 -0.00000000000E+00 -0.45593999997E+02  0.45594000000E+02  0.51100000000E-03 0. -1.
    9900012    2    1    2    0    0  0.76569381055E+00  0.76936411709E+00  0.46348231893E+00  0.90007735616E+02  0.89999996926E+02 0.  0.
         12    1    1    2    0    0 -0.76569381055E+00 -0.76936411709E+00 -0.46348231893E+00  0.11802643840E+01  0.00000000000E+00 0. -1.
         11    1    3    3    0    0  0.44535064547E+00 -0.63100432963E+01 -0.11947354495E+02  0.13518663517E+02  0.51100000000E-03 0. -1.
        -11    1    3    3    0    0  0.26200111045E+02 -0.12796815462E+02 -0.15967268713E+02  0.33243916363E+02  0.51100000000E-03 0.  1.
         12    1    3    3    0    0 -0.25879767880E+02  0.19876222875E+02  0.28378105528E+02  0.43245155736E+02  0.00000000000E+00 0. -1.
</event>
<event>
 7    1  0.1971192E-015  0.9000660E+02  0.7816164E-02  0.1186341E+00
        -11   -1    0    0    0    0  0.00000000000E+00  0.00000000000E+00  0.45593999997E+02  0.45594000000E+02  0.51100000000E-03 0.  1.
         11   -1    0    0    0    0 -0.00000000000E+00 -0.00000000000E+00 -0.45593999997E+02  0.45594000000E+02  0.51100000000E-03 0. -1.
    9900012    2    1    2    0    0  0.11179102582E+01  0.26153121057E+00 -0.27853859206E+00  0.90006600124E+02  0.89998846438E+02 0.  0.
         12    1    1    2    0    0 -0.11179102582E+01 -0.26153121057E+00  0.27853859206E+00  0.11813998759E+01  0.00000000000E+00 0. -1.
         11    1    3    3    0    0  0.93800925552E+01  0.17623186539E+02 -0.35703186005E+02  0.40905749367E+02  0.51100000000E-03 0. -1.
        -11    1    3    3    0    0 -0.88077033097E+01  0.25824710002E+00 -0.76643458289E+00  0.88447584132E+01  0.51100000000E-03 0.  1.
        -12    1    3    3    0    0  0.54552101278E+00 -0.17619902428E+02  0.36191081996E+02  0.40256092344E+02  0.00000000000E+00 0.  1.
</event>
<event>
 7    1  0.1971192E-015  0.9000778E+02  0.7816164E-02  0.1186339E+00
        -11   -1    0    0    0    0  0.00000000000E+00  0.00000000000E+00  0.45593999997E+02  0.45594000000E+02  0.51100000000E-03 0. -1.
         11   -1    0    0    0    0 -0.00000000000E+00 -0.00000000000E+00 -0.45593999997E+02  0.45594000000E+02  0.51100000000E-03 0.  1.
    9900012    2    1    2    0    0  0.25009955195E+00  0.11313287297E+01 -0.22463606146E+00  0.90007781444E+02  0.90000043359E+02 0.  0.
         12    1    1    2    0    0 -0.25009955195E+00 -0.11313287297E+01  0.22463606146E+00  0.11802185563E+01  0.00000000000E+00 0. -1.
         11    1    3    3    0    0  0.68101075572E+01  0.27988618835E+01 -0.77705783276E+01  0.10704815766E+02  0.51100000000E-03 0. -1.
        -11    1    3    3    0    0  0.92713692836E+01 -0.36284832162E+02 -0.78107380237E+01  0.38256436872E+02  0.51100000000E-03 0.  1.
         12    1    3    3    0    0 -0.15831377289E+02  0.34617299008E+02  0.15356680290E+02  0.41046528806E+02  0.00000000000E+00 0. -1.
</event>
<event>
 7    1  0.1971192E-015  0.9000795E+02  0.7816164E-02  0.1186339E+00
        -11   -1    0    0    0    0  0.00000000000E+00  0.00000000000E+00  0.45593999997E+02  0.45594000000E+02  0.51100000000E-03 0.  1.
         11   -1    0    0    0    0 -0.00000000000E+00 -0.00000000000E+00 -0.45593999997E+02  0.45594000000E+02  0.51100000000E-03 0. -1.
    9900012    2    1    2    0    0  0.28752709535E-01 -0.18382185643E+00  0.11652947753E+01  0.90007945295E+02  0.90000209373E+02 0.  0.
         12    1    1    2    0    0 -0.28752709535E-01  0.18382185643E+00 -0.11652947753E+01  0.11800547049E+01  0.00000000000E+00 0. -1.
         11    1    3    3    0    0  0.58701410387E+01  0.20066171584E+02  0.31643518262E+02  0.37926534855E+02  0.51100000000E-03 0. -1.
        -11    1    3    3    0    0  0.73593822066E+01 -0.11018523865E+02  0.41541040955E+01  0.13886142579E+02  0.51100000000E-03 0.  1.
        -12    1    3    3    0    0 -0.13200770536E+02 -0.92314695752E+01 -0.34632327582E+02  0.38195267861E+02  0.00000000000E+00 0.  1.
</event>
<event>
 7    1  0.1971192E-015  0.9000769E+02  0.7816164E-02  0.1186339E+00
        -11   -1    0    0    0    0  0.00000000000E+00  0.00000000000E+00  0.45593999997E+02  0.45594000000E+02  0.51100000000E-03 0.  1.
         11   -1    0    0    0    0 -0.00000000000E+00 -0.00000000000E+00 -0.45593999997E+02  0.45594000000E+02  0.51100000000E-03 0. -1.
    9900012    2    1    2    0    0 -0.60170884591E+00 -0.76859815087E+00  0.66358081544E+00  0.90007688113E+02  0.89999948796E+02 0.  0.
         12    1    1    2    0    0  0.60170884591E+00  0.76859815087E+00 -0.66358081544E+00  0.11803118873E+01  0.00000000000E+00 0. -1.
         11    1    3    3    0    0  0.33206102716E+01  0.84092948038E+00  0.84051695539E+01  0.90763698943E+01  0.51100000000E-03 0. -1.
        -11    1    3    3    0    0  0.28365468487E+02 -0.24287943365E+02  0.84411123624E+01  0.38285197838E+02  0.51100000000E-03 0.  1.
         12    1    3    3    0    0 -0.32287787604E+02  0.22678415733E+02 -0.16182701101E+02  0.42646120380E+02  0.00000000000E+00 0. -1.
</event>
<event>
 7    1  0.1971192E-015  0.9000772E+02  0.7816164E-02  0.1186339E+00
        -11   -1    0    0    0    0  0.00000000000E+00  0.00000000000E+00  0.45593999997E+02  0.45594000000E+02  0.51100000000E-03 0. -1.
         11   -1    0    0    0    0 -0.00000000000E+00 -0.00000000000E+00 -0.45593999997E+02  0.45594000000E+02  0.51100000000E-03 0.  1.
    9900012    2    1    2    0    0  0.19951068586E+00  0.98124867988E+00  0.62483269578E+00  0.90007716397E+02  0.89999977454E+02 0.  0.
         12    1    1    2    0    0 -0.19951068586E+00 -0.98124867988E+00 -0.62483269578E+00  0.11802836029E+01  0.00000000000E+00 0. -1.
         11    1    3    3    0    0  0.12512603422E+01 -0.73872666776E+01 -0.32300517127E+01  0.81590805694E+01  0.51100000000E-03 0. -1.
        -11    1    3    3    0    0  0.13709011185E+02 -0.31896365857E+02 -0.11071187420E+02  0.36440174721E+02  0.51100000000E-03 0.  1.
         12    1    3    3    0    0 -0.14760760842E+02  0.40264881214E+02  0.14926071829E+02  0.45408461107E+02  0.00000000000E+00 0. -1.
</event>
<event>
 8    1  0.1971192E-015  0.9000770E+02  0.7816164E-02  0.1186339E+00
        -11   -1    0    0    0    0  0.00000000000E+00  0.00000000000E+00  0.45593999997E+02  0.45594000000E+02  0.51100000000E-03 0.  1.
         11   -1    0    0    0    0 -0.00000000000E+00 -0.00000000000E+00 -0.45593999997E+02  0.45594000000E+02  0.51100000000E-03 0. -1.
    9900012    2    1    2    0    0  0.91292684648E+00  0.31140282544E+00  0.68022548136E+00  0.90007697559E+02  0.89999958367E+02 0.  0.
         23    2    3    3    0    0 -0.49337361061E+01 -0.22183060411E+02  0.11291709404E+02  0.64457982590E+02  0.59252838726E+02 0.  0.
         12    1    1    2    0    0 -0.91292684648E+00 -0.31140282544E+00 -0.68022548136E+00  0.11803024410E+01  0.00000000000E+00 0. -1.
         11    1    4    4    0    0 -0.30568260373E+02 -0.16676101093E+01  0.47617670667E+01  0.30981831637E+02  0.51100000000E-03 0. -1.
        -11    1    4    4    0    0  0.25634524267E+02 -0.20515450302E+02  0.65299423371E+01  0.33476150953E+02  0.51100000000E-03 0.  1.
         12    1    3    3    0    0  0.58466629526E+01  0.22494463236E+02 -0.10611483922E+02  0.25549714969E+02  0.00000000000E+00 0. -1.
</event>
<event>
 7    1  0.1971192E-015  0.9000775E+02  0.7816164E-02  0.1186339E+00
        -11   -1    0    0    0    0  0.00000000000E+00  0.00000000000E+00  0.45593999997E+02  0.45594000000E+02  0.51100000000E-03 0. -1.
         11   -1    0    0    0    0 -0.00000000000E+00 -0.00000000000E+00 -0.45593999997E+02  0.45594000000E+02  0.51100000000E-03 0.  1.
    9900012    2    1    2    0    0  0.40189729864E+00 -0.10094497718E+01  0.46094878787E+00  0.90007752541E+02  0.90000014074E+02 0.  0.
         12    1    1    2    0    0 -0.40189729864E+00  0.10094497718E+01 -0.46094878787E+00  0.11802474594E+01  0.00000000000E+00 0. -1.
         11    1    3    3    0    0  0.18617392874E+02 -0.15734741680E+01  0.34407840185E+02  0.39153321760E+02  0.51100000000E-03 0. -1.
        -11    1    3    3    0    0  0.85421896650E+01  0.10513982849E+01 -0.14035312503E+01  0.87203407535E+01  0.51100000000E-03 0.  1.
        -12    1    3    3    0    0 -0.26757685241E+02 -0.48737388871E+00 -0.32543360147E+02  0.42134090027E+02  0.00000000000E+00 0.  1.
</event>
<event>
 7    1  0.1971192E-015  0.9000776E+02  0.7816164E-02  0.1186339E+00
        -11   -1    0    0    0    0  0.00000000000E+00  0.00000000000E+00  0.45593999997E+02  0.45594000000E+02  0.51100000000E-03 0.  1.
         11   -1    0    0    0    0 -0.00000000000E+00 -0.00000000000E+00 -0.45593999997E+02  0.45594000000E+02  0.51100000000E-03 0. -1.
    9900012    2    1    2    0    0  0.78475686832E+00  0.38601441611E+00  0.79253659554E+00  0.90007760733E+02  0.90000022375E+02 0.  0.
         12    1    1    2    0    0 -0.78475686832E+00 -0.38601441611E+00 -0.79253659554E+00  0.11802392669E+01  0.00000000000E+00 0. -1.
         11    1    3    3    0    0  0.59995328728E+01  0.59403354808E+01 -0.96329418983E+01  0.12809197875E+02  0.51100000000E-03 0. -1.
        -11    1    3    3    0    0 -0.36052022303E+02  0.15165919971E+02  0.23728539925E+01  0.39183974748E+02  0.51100000000E-03 0.  1.
         12    1    3    3    0    0  0.30837246299E+02 -0.20720241035E+02  0.80526245014E+01  0.38014588110E+02  0.00000000000E+00 0. -1.
</event>
<event>
 7    1  0.1971192E-015  0.9000754E+02  0.7816164E-02  0.1186339E+00
        -11   -1    0    0    0    0  0.00000000000E+00  0.00000000000E+00  0.45593999997E+02  0.45594000000E+02  0.51100000000E-03 0.  1.
         11   -1    0    0    0    0 -0.00000000000E+00 -0.00000000000E+00 -0.45593999997E+02  0.45594000000E+02  0.51100000000E-03 0. -1.
    9900012    2    1    2    0    0  0.79315424069E+00 -0.19071785659E+00  0.85323704386E+00  0.90007542291E+02  0.89999801049E+02 0.  0.
         12    1    1    2    0    0 -0.79315424069E+00  0.19071785659E+00 -0.85323704386E+00  0.11804577093E+01  0.00000000000E+00 0. -1.
         11    1    3    3    0    0 -0.54509537407E+01 -0.23761714115E+01  0.48360569488E+01  0.76646287799E+01  0.51100000000E-03 0. -1.
        -11    1    3    3    0    0 -0.25680004545E+02  0.46310459422E+01  0.27169489736E+02  0.37670816194E+02  0.51100000000E-03 0.  1.
         12    1    3    3    0    0  0.31924112527E+02 -0.24455923872E+01 -0.31152309641E+02  0.44672097317E+02  0.00000000000E+00 0. -1.
</event>
<event>
 7    1  0.1971192E-015  0.9000775E+02  0.7816164E-02  0.1186339E+00
        -11   -1    0    0    0    0  0.00000000000E+00  0.00000000000E+00  0.45593999997E+02  0.45594000000E+02  0.51100000000E-03 0.  1.
         11   -1    0    0    0    0 -0.00000000000E+00 -0.00000000000E+00 -0.45593999997E+02  0.45594000000E+02  0.51100000000E-03 0. -1.
    9900012    2    1    2    0    0 -0.29851246222E+00 -0.71109162657E+00  0.89343067539E+00  0.90007754533E+02  0.90000016092E+02 0.  0.
         12    1    1    2    0    0  0.29851246222E+00  0.71109162657E+00 -0.89343067539E+00  0.11802454674E+01  0.00000000000E+00 0. -1.
         11    1    3    3    0    0 -0.34699465905E+02  0.23452835882E+01  0.65815907270E+01  0.35395912560E+02  0.51100000000E-03 0. -1.
        -11    1    3    3    0    0 -0.84331564448E+01 -0.37093138165E+01  0.49684069010E+01  0.10467196569E+02  0.51100000000E-03 0.  1.
        -12    1    3    3    0    0  0.42834109887E+02  0.65293860171E+00 -0.10656566953E+02  0.44144645404E+02  0.00000000000E+00 0.  1.
</event>
<event>
 7    1  0.1971192E-015  0.9000776E+02  0.7816164E-02  0.1186339E+00
        -11   -1    0    0    0    0  0.00000000000E+00  0.00000000000E+00  0.45593999997E+02  0.45594000000E+02  0.51100000000E-03 0.  1.
         11   -1    0    0    0    0 -0.00000000000E+00 -0.00000000000E+00 -0.45593999997E+02  0.45594000000E+02  0.51100000000E-03 0. -1.
    9900012    2    1    2    0    0  0.31621412380E+00  0.52638458153E-01  0.11358724803E+01  0.90007759147E+02  0.90000020768E+02 0.  0.
         12    1    1    2    0    0 -0.31621412380E+00 -0.52638458153E-01 -0.11358724803E+01  0.11802408529E+01  0.00000000000E+00 0. -1.
         11    1    3    3    0    0  0.32327564501E+02  0.16829012492E+02 -0.14125985719E+02  0.39087473196E+02  0.51100000000E-03 0. -1.
        -11    1    3    3    0    0  0.13208588627E+01  0.68827524480E+01  0.54652311817E+01  0.88873900289E+01  0.51100000000E-03 0.  1.
        -12    1    3    3    0    0 -0.33332209240E+02 -0.23659126482E+02  0.97966270179E+01  0.42032895922E+02  0.00000000000E+00 0.  1.
</event>
<event>
 7    1  0.1971192E-015  0.9000790E+02  0.7816164E-02  0.1186339E+00
        -11   -1    0    0    0    0  0.00000000000E+00  0.00000000000E+00  0.45593999997E+02  0.45594000000E+02  0.51100000000E-03 0. -1.
         11   -1    0    0    0    0 -0.00000000000E+00 -0.00000000000E+00 -0.45593999997E+02  0.45594000000E+02  0.51100000000E-03 0.  1.
    9900012    2    1    2    0    0  0.14061879037E+00  0.41943488044E+00 -0.10940511333E+01  0.90007895282E+02  0.90000158700E+02 0.  0.
         12    1    1    2    0    0 -0.14061879037E+00 -0.41943488044E+00  0.10940511333E+01  0.11801047180E+01  0.00000000000E+00 0. -1.
         11    1    3    3    0    0 -0.51858324937E+01  0.18622702813E+01 -0.94724225292E+01  0.10958453271E+02  0.51100000000E-03 0. -1.
        -11    1    3    3    0    0 -0.49838453751E+01  0.37506351561E+02  0.84067439016E+01  0.38758721154E+02  0.51100000000E-03 0.  1.
         12    1    3    3    0    0  0.10310296659E+02 -0.38949186962E+02 -0.28372505677E-01  0.40290720858E+02  0.00000000000E+00 0. -1.
</event>
<event>
 7    1  0.1971192E-015  0.9000839E+02  0.7816164E-02  0.1186338E+00
        -11   -1    0    0    0    0  0.00000000000E+00  0.00000000000E+00  0.45593999997E+02  0.45594000000E+02  0.51100000000E-03 0.  1.
         11   -1    0    0    0    0 -0.00000000000E+00 -0.00000000000E+00 -0.45593999997E+02  0.45594000000E+02  0.51100000000E-03 0. -1.
    9900012    2    1    2    0    0 -0.68243725203E+00 -0.43547711051E+00 -0.85797455610E+00  0.90008389363E+02  0.90000659300E+02 0.  0.
         12    1    1    2    0    0  0.68243725203E+00  0.43547711051E+00  0.85797455610E+00  0.11796106373E+01  0.00000000000E+00 0. -1.
         11    1    3    3    0    0 -0.18806654246E+02 -0.30171520494E+02 -0.19123458976E+02  0.40369760667E+02  0.51100000000E-03 0. -1.
        -11    1    3    3    0    0 -0.57119214191E+01  0.11958826911E+01 -0.32482240140E+01  0.66788577777E+01  0.51100000000E-03 0.  1.
        -12    1    3    3    0    0  0.23836138413E+02  0.28540160692E+02  0.21513708434E+02  0.42959770918E+02  0.00000000000E+00 0.  1.
</event>
<event>
 7    1  0.2377744E-015  0.9000785E+02  0.7816164E-02  0.1186339E+00
        -11   -1    0    0    0    0  0.00000000000E+00  0.00000000000E+00  0.45593999997E+02  0.45594000000E+02  0.51100000000E-03 0.  1.
         11   -1    0    0    0    0 -0.00000000000E+00 -0.00000000000E+00 -0.45593999997E+02  0.45594000000E+02  0.51100000000E-03 0. -1.
    9900012    2    1    2    0    0  0.73539013732E-01  0.47184956998E+00  0.10792141826E+01  0.90007850325E+02  0.90000113149E+02 0.  0.
         12    1    1    2    0    0 -0.73539013732E-01 -0.47184956998E+00 -0.10792141826E+01  0.11801496749E+01  0.00000000000E+00 0. -1.
         11    1    3    3    0    0  0.12735811966E+02 -0.12293439812E+02 -0.37958286913E+02  0.41882706628E+02  0.51100000000E-03 0. -1.
        -11    1    3    3    0    0 -0.25535078706E+01 -0.60507043346E+01  0.68000572102E+01  0.94536873077E+01  0.51100000000E-03 0.  1.
        -12    1    3    3    0    0 -0.10108765081E+02  0.18815993717E+02  0.32237443886E+02  0.38671456390E+02  0.00000000000E+00 0.  1.
</event>
<event>
 7    1  0.1971192E-015  0.9000784E+02  0.7816164E-02  0.1186339E+00
        -11   -1    0    0    0    0  0.00000000000E+00  0.00000000000E+00  0.45593999997E+02  0.45594000000E+02  0.51100000000E-03 0. -1.
         11   -1    0    0    0    0 -0.00000000000E+00 -0.00000000000E+00 -0.45593999997E+02  0.45594000000E+02  0.51100000000E-03 0.  1.
    9900012    2    1    2    0    0 -0.10655851772E+01  0.38921722440E+00 -0.32530282769E+00  0.90007837406E+02  0.90000100060E+02 0.  0.
         12    1    1    2    0    0  0.10655851772E+01 -0.38921722440E+00  0.32530282769E+00  0.11801625936E+01  0.00000000000E+00 0. -1.
         11    1    3    3    0    0 -0.24232644797E+02  0.82256973655E+01  0.95834066928E+01  0.27326266761E+02  0.51100000000E-03 0. -1.
        -11    1    3    3    0    0 -0.17749700195E+02  0.56914550109E+01 -0.50608132403E+01  0.19314666657E+02  0.51100000000E-03 0.  1.
        -12    1    3    3    0    0  0.40916759815E+02 -0.13527935152E+02 -0.48478962802E+01  0.43366903988E+02  0.00000000000E+00 0.  1.
</event>
<event>
 7    1  0.1971192E-015  0.9000771E+02  0.7816164E-02  0.1186339E+00
        -11   -1    0    0    0    0  0.00000000000E+00  0.00000000000E+00  0.45593999997E+02  0.45594000000E+02  0.51100000000E-03 0. -1.
         11   -1    0    0    0    0 -0.00000000000E+00 -0.00000000000E+00 -0.45593999997E+02  0.45594000000E+02  0.51100000000E-03 0.  1.
    9900012    2    1    2    0    0 -0.72025944883E+00 -0.49784954032E+00  0.79148990390E+00  0.90007710160E+02  0.89999971134E+02 0.  0.
         12    1    1    2    0    0  0.72025944883E+00  0.49784954032E+00 -0.79148990390E+00  0.11802898400E+01  0.00000000000E+00 0. -1.
         11    1    3    3    0    0 -0.76451975370E+01 -0.50233280012E+01 -0.41828400711E+01  0.10058778301E+02  0.51100000000E-03 0. -1.
        -11    1    3    3    0    0 -0.22634160880E+02 -0.98745332652E+01 -0.25228210195E+02  0.35302609477E+02  0.51100000000E-03 0.  1.
         12    1    3    3    0    0  0.29559098968E+02  0.14400011726E+02  0.30202540170E+02  0.44646322382E+02  0.00000000000E+00 0. -1.
</event>
<event>
 7    1  0.1971192E-015  0.9000775E+02  0.7816164E-02  0.1186339E+00
        -11   -1    0    0    0    0  0.00000000000E+00  0.00000000000E+00  0.45593999997E+02  0.45594000000E+02  0.51100000000E-03 0.  1.
         11   -1    0    0    0    0 -0.00000000000E+00 -0.00000000000E+00 -0.45593999997E+02  0.45594000000E+02  0.51100000000E-03 0. -1.
    9900012    2    1    2    0    0  0.99232386987E+00  0.59274177356E+00 -0.23862065724E+00  0.90007750327E+02  0.90000011831E+02 0.  0.
         12    1    1    2    0    0 -0.99232386987E+00 -0.59274177356E+00  0.23862065724E+00  0.11802496731E+01  0.00000000000E+00 0. -1.
         11    1    3    3    0    0 -0.42032821330E+01 -0.61967446130E+01 -0.28452532355E+02  0.29421315779E+02  0.51100000000E-03 0. -1.
        -11    1    3    3    0    0 -0.89968896588E+01  0.11072125412E+02 -0.11417702663E+02  0.18272928584E+02  0.51100000000E-03 0.  1.
        -12    1    3    3    0    0  0.14192495662E+02 -0.42826390257E+01  0.39631614361E+02  0.42313505964E+02  0.00000000000E+00 0.  1.
</event>
<event>
 7    1  0.1971192E-015  0.9000774E+02  0.7816164E-02  0.1186339E+00
        -11   -1    0    0    0    0  0.00000000000E+00  0.00000000000E+00  0.45593999997E+02  0.45594000000E+02  0.51100000000E-03 0.  1.
         11   -1    0    0    0    0 -0.00000000000E+00 -0.00000000000E+00 -0.45593999997E+02  0.45594000000E+02  0.51100000000E-03 0. -1.
    9900012    2    1    2    0    0 -0.30444895207E+00  0.38511008195E+00  0.10733244322E+01  0.90007735506E+02  0.89999996814E+02 0.  0.
         12    1    1    2    0    0  0.30444895207E+00 -0.38511008195E+00 -0.10733244322E+01  0.11802644942E+01  0.00000000000E+00 0. -1.
         11    1    3    3    0    0  0.34039799953E+02 -0.16507363362E+02 -0.15448000627E+02  0.40863697210E+02  0.51100000000E-03 0. -1.
        -11    1    3    3    0    0 -0.39718141924E+01 -0.67060617619E+01  0.34193009526E+01  0.85110628947E+01  0.51100000000E-03 0.  1.
        -12    1    3    3    0    0 -0.30372434713E+02  0.23598535206E+02  0.13102024107E+02  0.40632975401E+02  0.00000000000E+00 0.  1.
</event>
<event>
 7    1  0.1971192E-015  0.9000805E+02  0.7816164E-02  0.1186338E+00
        -11   -1    0    0    0    0  0.00000000000E+00  0.00000000000E+00  0.45593999997E+02  0.45594000000E+02  0.51100000000E-03 0. -1.
         11   -1    0    0    0    0 -0.00000000000E+00 -0.00000000000E+00 -0.45593999997E+02  0.45594000000E+02  0.51100000000E-03 0.  1.
    9900012    2    1    2    0    0 -0.42358904911E+00  0.11010293203E+01 -0.24361163414E-01  0.90008048004E+02  0.90000313437E+02 0.  0.
         12    1    1    2    0    0  0.42358904911E+00 -0.11010293203E+01  0.24361163414E-01  0.11799519961E+01  0.00000000000E+00 0. -1.
         11    1    3    3    0    0 -0.14372312579E+02  0.21748278724E+02  0.28687873716E+02  0.38762676570E+02  0.51100000000E-03 0. -1.
        -11    1    3    3    0    0 -0.68299607706E+01 -0.13442089456E+01  0.39376541899E+01  0.79975235291E+01  0.51100000000E-03 0.  1.
        -12    1    3    3    0    0  0.20778684300E+02 -0.19303040458E+02 -0.32649889069E+02  0.43247847905E+02  0.00000000000E+00 0.  1.
</event>
<event>
 7    1  0.1971192E-015  0.9000777E+02  0.7816164E-02  0.1186339E+00
        -11   -1    0    0    0    0  0.00000000000E+00  0.00000000000E+00  0.45593999997E+02  0.45594000000E+02  0.51100000000E-03 0. -1.
         11   -1    0    0    0    0 -0.00000000000E+00 -0.00000000000E+00 -0.45593999997E+02  0.45594000000E+02  0.51100000000E-03 0.  1.
    9900012    2    1    2    0    0 -0.32346643259E+00 -0.11310220762E+01  0.95461906007E-01  0.90007765089E+02  0.90000026788E+02 0.  0.
         12    1    1    2    0    0  0.32346643259E+00  0.11310220762E+01 -0.95461906007E-01  0.11802349111E+01  0.00000000000E+00 0. -1.
         11    1    3    3    0    0  0.39211868593E+01 -0.45258280827E+01  0.41158757905E+01  0.72663099303E+01  0.51100000000E-03 0. -1.
        -11    1    3    3    0    0 -0.39325740735E+02 -0.23880991946E+01 -0.19504160153E+02  0.43961678376E+02  0.51100000000E-03 0.  1.
         12    1    3    3    0    0  0.35081087443E+02  0.57829052011E+01  0.15483746269E+02  0.38779776782E+02  0.00000000000E+00 0. -1.
</event>
<event>
 7    1  0.1971192E-015  0.9000773E+02  0.7816164E-02  0.1186339E+00
        -11   -1    0    0    0    0  0.00000000000E+00  0.00000000000E+00  0.45593999997E+02  0.45594000000E+02  0.51100000000E-03 0.  1.
         11   -1    0    0    0    0 -0.00000000000E+00 -0.00000000000E+00 -0.45593999997E+02  0.45594000000E+02  0.51100000000E-03 0. -1.
    9900012    2    1    2    0    0 -0.33818066260E+00  0.11207052244E+01  0.15067409228E+00  0.90007725014E+02  0.89999986184E+02 0.  0.
         12    1    1    2    0    0  0.33818066260E+00 -0.11207052244E+01 -0.15067409228E+00  0.11802749860E+01  0.00000000000E+00 0. -1.
         11    1    3    3    0    0  0.31249259270E+01  0.10894829823E+02  0.18432801862E+01  0.11483037971E+02  0.51100000000E-03 0. -1.
        -11    1    3    3    0    0  0.20970129092E+02 -0.31960542104E+02  0.15574817968E+02  0.41277082270E+02  0.51100000000E-03 0.  1.
         12    1    3    3    0    0 -0.24433235682E+02  0.22186417505E+02 -0.17267424062E+02  0.37247604773E+02  0.00000000000E+00 0. -1.
</event>
<event>
 7    1  0.1971192E-015  0.9000774E+02  0.7816164E-02  0.1186339E+00
        -11   -1    0    0    0    0  0.00000000000E+00  0.00000000000E+00  0.45593999997E+02  0.45594000000E+02  0.51100000000E-03 0. -1.
         11   -1    0    0    0    0 -0.00000000000E+00 -0.00000000000E+00 -0.45593999997E+02  0.45594000000E+02  0.51100000000E-03 0.  1.
    9900012    2    1    2    0    0 -0.26830299609E+00  0.10833776007E+01 -0.38383706370E+00  0.90007735447E+02  0.89999996755E+02 0.  0.
         12    1    1    2    0    0  0.26830299609E+00 -0.10833776007E+01  0.38383706370E+00  0.11802645529E+01  0.00000000000E+00 0. -1.
         11    1    3    3    0    0  0.17757407218E+01 -0.19342658591E+01  0.19164536585E+01  0.32507590515E+01  0.51100000000E-03 0. -1.
        -11    1    3    3    0    0  0.38299048043E+02  0.15724865579E+02 -0.12500213927E+02  0.43247471914E+02  0.51100000000E-03 0.  1.
         12    1    3    3    0    0 -0.40343091761E+02 -0.12707222120E+02  0.10199923205E+02  0.43509504481E+02  0.00000000000E+00 0. -1.
</event>
<event>
 7    1  0.1971192E-015  0.9000773E+02  0.7816164E-02  0.1186339E+00
        -11   -1    0    0    0    0  0.00000000000E+00  0.00000000000E+00  0.45593999997E+02  0.45594000000E+02  0.51100000000E-03 0. -1.
         11   -1    0    0    0    0 -0.00000000000E+00 -0.00000000000E+00 -0.45593999997E+02  0.45594000000E+02  0.51100000000E-03 0.  1.
    9900012    2    1    2    0    0 -0.10606275871E+01  0.30759024986E+00 -0.41652292546E+00  0.90007731392E+02  0.89999992646E+02 0.  0.
         12    1    1    2    0    0  0.10606275871E+01 -0.30759024986E+00  0.41652292546E+00  0.11802686083E+01  0.00000000000E+00 0. -1.
         11    1    3    3    0    0 -0.13132516284E+02  0.34836081247E+02  0.21735949133E+02  0.43109941145E+02  0.51100000000E-03 0. -1.
        -11    1    3    3    0    0 -0.43257773560E+01 -0.17895859882E+01 -0.18815401528E+01  0.50453108280E+01  0.51100000000E-03 0.  1.
        -12    1    3    3    0    0  0.16397666053E+02 -0.32738905009E+02 -0.20270931906E+02  0.41852479418E+02  0.00000000000E+00 0.  1.
</event>
<event>
 7    1  0.1971192E-015  0.9000765E+02  0.7816164E-02  0.1186339E+00
        -11   -1    0    0    0    0  0.00000000000E+00  0.00000000000E+00  0.45593999997E+02  0.45594000000E+02  0.51100000000E-03 0. -1.
         11   -1    0    0    0    0 -0.00000000000E+00 -0.00000000000E+00 -0.45593999997E+02  0.45594000000E+02  0.51100000000E-03 0.  1.
    9900012    2    1    2    0    0 -0.11425702358E+01 -0.89217670316E-01  0.28248385855E+00  0.90007651040E+02  0.89999911234E+02 0.  0.
         12    1    1    2    0    0  0.11425702358E+01  0.89217670316E-01 -0.28248385855E+00  0.11803489597E+01  0.00000000000E+00 0. -1.
         11    1    3    3    0    0 -0.16873898575E+00  0.76185455392E+00 -0.87068165663E+01  0.87417132295E+01  0.51100000000E-03 0. -1.
        -11    1    3    3    0    0 -0.20083710232E+02  0.63061465848E+01 -0.30357765861E+02  0.36942074248E+02  0.51100000000E-03 0.  1.
         12    1    3    3    0    0  0.19109878982E+02 -0.71572188090E+01  0.39347066286E+02  0.44323863562E+02  0.00000000000E+00 0. -1.
</event>
<event>
 7    1  0.1971192E-015  0.9000775E+02  0.7816164E-02  0.1186339E+00
        -11   -1    0    0    0    0  0.00000000000E+00  0.00000000000E+00  0.45593999997E+02  0.45594000000E+02  0.51100000000E-03 0.  1.
         11   -1    0    0    0    0 -0.00000000000E+00 -0.00000000000E+00 -0.45593999997E+02  0.45594000000E+02  0.51100000000E-03 0. -1.
    9900012    2    1    2    0    0  0.68849375285E-01  0.11432758125E+01  0.28490036400E+00  0.90007750858E+02  0.90000012369E+02 0.  0.
         12    1    1    2    0    0 -0.68849375285E-01 -0.11432758125E+01 -0.28490036400E+00  0.11802491421E+01  0.00000000000E+00 0. -1.
         11    1    3    3    0    0 -0.86296522631E+00  0.12817261228E+02  0.81098851045E+01  0.15192008789E+02  0.51100000000E-03 0. -1.
        -11    1    3    3    0    0 -0.29076482073E+02  0.14201126462E+02  0.58800804441E+01  0.32889042990E+02  0.51100000000E-03 0.  1.
         12    1    3    3    0    0  0.30008296674E+02 -0.25875111877E+02 -0.13705065185E+02  0.41926699079E+02  0.00000000000E+00 0. -1.
</event>
<event>
 7    1  0.1971192E-015  0.9000772E+02  0.7816164E-02  0.1186339E+00
        -11   -1    0    0    0    0  0.00000000000E+00  0.00000000000E+00  0.45593999997E+02  0.45594000000E+02  0.51100000000E-03 0. -1.
         11   -1    0    0    0    0 -0.00000000000E+00 -0.00000000000E+00 -0.45593999997E+02  0.45594000000E+02  0.51100000000E-03 0.  1.
    9900012    2    1    2    0    0  0.88152020431E+00 -0.58782412943E+00  0.52004778070E+00  0.90007718351E+02  0.89999979433E+02 0.  0.
         12    1    1    2    0    0 -0.88152020431E+00  0.58782412943E+00 -0.52004778070E+00  0.11802816494E+01  0.00000000000E+00 0. -1.
         11    1    3    3    0    0 -0.83642163413E+01  0.54064570025E+01  0.17021753332E+00  0.99608667592E+01  0.51100000000E-03 0. -1.
        -11    1    3    3    0    0 -0.20068510350E+02  0.28438288693E+02 -0.70962860418E+00  0.34813574141E+02  0.51100000000E-03 0.  1.
         12    1    3    3    0    0  0.29314246896E+02 -0.34432569825E+02  0.10594588516E+01  0.45233277450E+02  0.00000000000E+00 0. -1.
</event>
<event>
 7    1  0.1971192E-015  0.9000782E+02  0.7816164E-02  0.1186339E+00
        -11   -1    0    0    0    0  0.00000000000E+00  0.00000000000E+00  0.45593999997E+02  0.45594000000E+02  0.51100000000E-03 0. -1.
         11   -1    0    0    0    0 -0.00000000000E+00 -0.00000000000E+00 -0.45593999997E+02  0.45594000000E+02  0.51100000000E-03 0.  1.
    9900012    2    1    2    0    0 -0.10874555808E+01  0.39867623521E+00 -0.22652757703E+00  0.90007823266E+02  0.90000085733E+02 0.  0.
         12    1    1    2    0    0  0.10874555808E+01 -0.39867623521E+00  0.22652757703E+00  0.11801767342E+01  0.00000000000E+00 0. -1.
         11    1    3    3    0    0  0.29957002439E+02  0.18338327869E+02 -0.12329119806E+02  0.37225306709E+02  0.51100000000E-03 0. -1.
        -11    1    3    3    0    0 -0.72342467094E+01  0.11181458492E+02  0.62597131857E+01  0.14715411951E+02  0.51100000000E-03 0.  1.
        -12    1    3    3    0    0 -0.23810211310E+02 -0.29121110125E+02  0.58428790436E+01  0.38067104606E+02  0.00000000000E+00 0.  1.
</event>
<event>
 7    1  0.1971192E-015  0.9000770E+02  0.7816164E-02  0.1186339E+00
        -11   -1    0    0    0    0  0.00000000000E+00  0.00000000000E+00  0.45593999997E+02  0.45594000000E+02  0.51100000000E-03 0.  1.
         11   -1    0    0    0    0 -0.00000000000E+00 -0.00000000000E+00 -0.45593999997E+02  0.45594000000E+02  0.51100000000E-03 0. -1.
    9900012    2    1    2    0    0 -0.34536837837E+00  0.11211561125E+01  0.12973711657E+00  0.90007702552E+02  0.89999963426E+02 0.  0.
         12    1    1    2    0    0  0.34536837837E+00 -0.11211561125E+01 -0.12973711657E+00  0.11802974476E+01  0.00000000000E+00 0. -1.
         11    1    3    3    0    0 -0.68568854701E+01  0.64338526265E+01 -0.41855798133E+01  0.10292250318E+02  0.51100000000E-03 0. -1.
        -11    1    3    3    0    0 -0.22447027156E+02 -0.30071288134E+01  0.32253674677E+02  0.39410802863E+02  0.51100000000E-03 0.  1.
         12    1    3    3    0    0  0.28958544248E+02 -0.23055677006E+01 -0.27938357747E+02  0.40304649372E+02  0.00000000000E+00 0. -1.
</event>
<event>
 7    1  0.1971192E-015  0.9000780E+02  0.7816164E-02  0.1186339E+00
        -11   -1    0    0    0    0  0.00000000000E+00  0.00000000000E+00  0.45593999997E+02  0.45594000000E+02  0.51100000000E-03 0. -1.
         11   -1    0    0    0    0 -0.00000000000E+00 -0.00000000000E+00 -0.45593999997E+02  0.45594000000E+02  0.51100000000E-03 0.  1.
    9900012    2    1    2    0    0 -0.10679953155E+01  0.25597529817E+00  0.43213729217E+00  0.90007796633E+02  0.90000058749E+02 0.  0.
         12    1    1    2    0    0  0.10679953155E+01 -0.25597529817E+00 -0.43213729217E+00  0.11802033666E+01  0.00000000000E+00 0. -1.
         11    1    3    3    0    0 -0.11643802156E+02  0.41289248096E+01 -0.19824661463E+01  0.12512246841E+02  0.51100000000E-03 0. -1.
        -11    1    3    3    0    0  0.28514257588E-01  0.17152004993E+02 -0.31708726547E+02  0.36050456693E+02  0.51100000000E-03 0.  1.
         12    1    3    3    0    0  0.10547292583E+02 -0.21024954504E+02  0.34123329985E+02  0.41445093099E+02  0.00000000000E+00 0. -1.
</event>
<event>
 7    1  0.1971192E-015  0.9000772E+02  0.7816164E-02  0.1186339E+00
        -11   -1    0    0    0    0  0.00000000000E+00  0.00000000000E+00  0.45593999997E+02  0.45594000000E+02  0.51100000000E-03 0.  1.
         11   -1    0    0    0    0 -0.00000000000E+00 -0.00000000000E+00 -0.45593999997E+02  0.45594000000E+02  0.51100000000E-03 0. -1.
    9900012    2    1    2    0    0 -0.17014370130E+00 -0.58486708361E+00  0.10109595773E+01  0.90007721367E+02  0.89999982489E+02 0.  0.
         12    1    1    2    0    0  0.17014370130E+00  0.58486708361E+00 -0.10109595773E+01  0.11802786330E+01  0.00000000000E+00 0. -1.
         11    1    3    3    0    0 -0.21555254116E+01 -0.27901473003E+01  0.90397043587E+01  0.97029617598E+01  0.51100000000E-03 0. -1.
        -11    1    3    3    0    0  0.88462480198E+01  0.13969575492E+02  0.33088985970E+02  0.36990351935E+02  0.51100000000E-03 0.  1.
         12    1    3    3    0    0 -0.68608663095E+01 -0.11764295275E+02 -0.41117730752E+02  0.43314407672E+02  0.00000000000E+00 0. -1.
</event>
<event>
 7    1  0.1971192E-015  0.9000787E+02  0.7816164E-02  0.1186339E+00
        -11   -1    0    0    0    0  0.00000000000E+00  0.00000000000E+00  0.45593999997E+02  0.45594000000E+02  0.51100000000E-03 0.  1.
         11   -1    0    0    0    0 -0.00000000000E+00 -0.00000000000E+00 -0.45593999997E+02  0.45594000000E+02  0.51100000000E-03 0. -1.
    9900012    2    1    2    0    0 -0.94966261702E+00 -0.40891314726E+00  0.56888592481E+00  0.90007872785E+02  0.90000135906E+02 0.  0.
         12    1    1    2    0    0  0.94966261702E+00  0.40891314726E+00 -0.56888592481E+00  0.11801272150E+01  0.00000000000E+00 0. -1.
         11    1    3    3    0    0  0.17004053533E+02  0.21545950769E+02 -0.96236260212E+01  0.29085735493E+02  0.51100000000E-03 0. -1.
        -11    1    3    3    0    0  0.10435277746E+02 -0.13584980253E+01 -0.14580984037E+02  0.17981813987E+02  0.51100000000E-03 0.  1.
        -12    1    3    3    0    0 -0.28388993896E+02 -0.20596365891E+02  0.24773495983E+02  0.42940323305E+02  0.00000000000E+00 0.  1.
</event>
<event>
 7    1  0.1971192E-015  0.9000774E+02  0.7816164E-02  0.1186339E+00
        -11   -1    0    0    0    0  0.00000000000E+00  0.00000000000E+00  0.45593999997E+02  0.45594000000E+02  0.51100000000E-03 0.  1.
         11   -1    0    0    0    0 -0.00000000000E+00 -0.00000000000E+00 -0.45593999997E+02  0.45594000000E+02  0.51100000000E-03 0. -1.
    9900012    2    1    2    0    0 -0.89316806911E-01  0.76772663372E+00  0.89198305480E+00  0.90007739247E+02  0.90000000605E+02 0.  0.
         12    1    1    2    0    0  0.89316806911E-01 -0.76772663372E+00 -0.89198305480E+00  0.11802607535E+01  0.00000000000E+00 0. -1.
         11    1    3    3    0    0 -0.14217761226E+02 -0.31951495656E+02  0.17680675866E+01  0.35016694192E+02  0.51100000000E-03 0. -1.
        -11    1    3    3    0    0  0.75183308954E+00 -0.98397518379E+01  0.27149695767E+01  0.10235088143E+02  0.51100000000E-03 0.  1.
        -12    1    3    3    0    0  0.13376611330E+02  0.42558974127E+02 -0.35910541085E+01  0.44755956911E+02  0.00000000000E+00 0.  1.
</event>
<event>
 7    1  0.1971192E-015  0.9000776E+02  0.7816164E-02  0.1186339E+00
        -11   -1    0    0    0    0  0.00000000000E+00  0.00000000000E+00  0.45593999997E+02  0.45594000000E+02  0.51100000000E-03 0. -1.
         11   -1    0    0    0    0 -0.00000000000E+00 -0.00000000000E+00 -0.45593999997E+02  0.45594000000E+02  0.51100000000E-03 0.  1.
    9900012    2    1    2    0    0  0.56050840408E+00 -0.90120012491E+00 -0.51635629176E+00  0.90007764788E+02  0.90000026483E+02 0.  0.
         12    1    1    2    0    0 -0.56050840408E+00  0.90120012491E+00  0.51635629176E+00  0.11802352122E+01  0.00000000000E+00 0. -1.
         11    1    3    3    0    0  0.10592977679E+02  0.27025112186E+01  0.69762641747E+00  0.10954516232E+02  0.51100000000E-03 0. -1.
        -11    1    3    3    0    0 -0.31157188740E+02  0.25805634146E+02 -0.10246712008E+02  0.41733634769E+02  0.51100000000E-03 0.  1.
         12    1    3    3    0    0  0.21124719465E+02 -0.29409345490E+02  0.90327292985E+01  0.37319613787E+02  0.00000000000E+00 0. -1.
</event>
<event>
 7    1  0.1971192E-015  0.9000774E+02  0.7816164E-02  0.1186339E+00
        -11   -1    0    0    0    0  0.00000000000E+00  0.00000000000E+00  0.45593999997E+02  0.45594000000E+02  0.51100000000E-03 0.  1.
         11   -1    0    0    0    0 -0.00000000000E+00 -0.00000000000E+00 -0.45593999997E+02  0.45594000000E+02  0.51100000000E-03 0. -1.
    9900012    2    1    2    0    0  0.77704062761E+00 -0.84499896749E-01  0.88434743781E+00  0.90007744621E+02  0.90000006050E+02 0.  0.
         12    1    1    2    0    0 -0.77704062761E+00  0.84499896749E-01 -0.88434743781E+00  0.11802553793E+01  0.00000000000E+00 0. -1.
         11    1    3    3    0    0  0.16202537765E+01  0.75148493975E+00 -0.85642013804E+01  0.87484568616E+01  0.51100000000E-03 0. -1.
        -11    1    3    3    0    0 -0.25547628946E+02 -0.31238318887E+02 -0.21266431623E+01  0.40410846602E+02  0.51100000000E-03 0.  1.
         12    1    3    3    0    0  0.24704415798E+02  0.30402334050E+02  0.11575191980E+02  0.40848441157E+02  0.00000000000E+00 0. -1.
</event>
<event>
 7    1  0.2085342E-015  0.9000781E+02  0.7816164E-02  0.1186339E+00
        -11   -1    0    0    0    0  0.00000000000E+00  0.00000000000E+00  0.45593999997E+02  0.45594000000E+02  0.51100000000E-03 0.  1.
         11   -1    0    0    0    0 -0.00000000000E+00 -0.00000000000E+00 -0.45593999997E+02  0.45594000000E+02  0.51100000000E-03 0. -1.
    9900012    2    1    2    0    0 -0.10474545577E+01 -0.54203954971E+00  0.43346000898E-01  0.90007810693E+02  0.90000072994E+02 0.  0.
         12    1    1    2    0    0  0.10474545577E+01  0.54203954971E+00 -0.43346000898E-01  0.11801893067E+01  0.00000000000E+00 0. -1.
         11    1    3    3    0    0  0.49143229439E+01 -0.10676386117E+02 -0.36084659207E+02  0.37950473263E+02  0.51100000000E-03 0. -1.
        -11    1    3    3    0    0 -0.62033353193E+01 -0.76130721699E+01 -0.19805956089E+01  0.10018133368E+02  0.51100000000E-03 0.  1.
        -12    1    3    3    0    0  0.24155781767E+00  0.17747418737E+02  0.38108600817E+02  0.42039204063E+02  0.00000000000E+00 0.  1.
</event>
<event>
 7    1  0.1971192E-015  0.9000775E+02  0.7816164E-02  0.1186339E+00
        -11   -1    0    0    0    0  0.00000000000E+00  0.00000000000E+00  0.45593999997E+02  0.45594000000E+02  0.51100000000E-03 0. -1.
         11   -1    0    0    0    0 -0.00000000000E+00 -0.00000000000E+00 -0.45593999997E+02  0.45594000000E+02  0.51100000000E-03 0.  1.
    9900012    2    1    2    0    0  0.16466108760E-01  0.11550313904E+01 -0.24213815395E+00  0.90007745989E+02  0.90000007436E+02 0.  0.
         12    1    1    2    0    0 -0.16466108760E-01 -0.11550313904E+01  0.24213815395E+00  0.11802540112E+01  0.00000000000E+00 0. -1.
         11    1    3    3    0    0 -0.12236138595E+02  0.36007374127E+02  0.18527471086E+02  0.42302733533E+02  0.51100000000E-03 0. -1.
        -11    1    3    3    0    0 -0.21758233052E+00  0.31999950790E+00 -0.91624990470E+01  0.91706668679E+01  0.51100000000E-03 0.  1.
        -12    1    3    3    0    0  0.12470187035E+02 -0.35172342245E+02 -0.96071101926E+01  0.38534345588E+02  0.00000000000E+00 0.  1.
</event>
<event>
 7    1  0.1971192E-015  0.9000773E+02  0.7816164E-02  0.1186339E+00
        -11   -1    0    0    0    0  0.00000000000E+00  0.00000000000E+00  0.45593999997E+02  0.45594000000E+02  0.51100000000E-03 0. -1.
         11   -1    0    0    0    0 -0.00000000000E+00 -0.00000000000E+00 -0.45593999997E+02  0.45594000000E+02  0.51100000000E-03 0.  1.
    9900012    2    1    2    0    0  0.24287557990E+00  0.75007934637E+00  0.87831545902E+00  0.90007726464E+02  0.89999987654E+02 0.  0.
         12    1    1    2    0    0 -0.24287557990E+00 -0.75007934637E+00 -0.87831545902E+00  0.11802735355E+01  0.00000000000E+00 0. -1.
         11    1    3    3    0    0  0.15247044562E+02 -0.20722743109E+02 -0.22018137160E+02  0.33863000666E+02  0.51100000000E-03 0. -1.
        -11    1    3    3    0    0  0.18948366430E+01  0.54081293837E+01 -0.12504556097E+02  0.13755078799E+02  0.51100000000E-03 0.  1.
        -12    1    3    3    0    0 -0.16899005625E+02  0.16064693072E+02  0.35401008716E+02  0.42389646999E+02  0.00000000000E+00 0.  1.
</event>
<event>
 7    1  0.1971192E-015  0.9000771E+02  0.7816164E-02  0.1186339E+00
        -11   -1    0    0    0    0  0.00000000000E+00  0.00000000000E+00  0.45593999997E+02  0.45594000000E+02  0.51100000000E-03 0. -1.
         11   -1    0    0    0    0 -0.00000000000E+00 -0.00000000000E+00 -0.45593999997E+02  0.45594000000E+02  0.51100000000E-03 0.  1.
    9900012    2    1    2    0    0 -0.47428324954E+00  0.30153628039E+00 -0.10378859300E+01  0.90007713623E+02  0.89999974642E+02 0.  0.
         12    1    1    2    0    0  0.47428324954E+00 -0.30153628039E+00  0.10378859300E+01  0.11802863774E+01  0.00000000000E+00 0. -1.
         11    1    3    3    0    0  0.12738068457E+02 -0.22308968863E+02  0.23262044937E+02  0.34656474354E+02  0.51100000000E-03 0. -1.
        -11    1    3    3    0    0  0.13691758908E+02 -0.44007459963E+00 -0.30348406480E+01  0.14030972371E+02  0.51100000000E-03 0.  1.
        -12    1    3    3    0    0 -0.26904110615E+02  0.23050579743E+02 -0.21265090219E+02  0.41320266898E+02  0.00000000000E+00 0.  1.
</event>
<event>
 7    1  0.1971192E-015  0.9000771E+02  0.7816164E-02  0.1186339E+00
        -11   -1    0    0    0    0  0.00000000000E+00  0.00000000000E+00  0.45593999997E+02  0.45594000000E+02  0.51100000000E-03 0.  1.
         11   -1    0    0    0    0 -0.00000000000E+00 -0.00000000000E+00 -0.45593999997E+02  0.45594000000E+02  0.51100000000E-03 0. -1.
    9900012    2    1    2    0    0 -0.10612123543E+01 -0.26541810025E+00  0.44325003428E+00  0.90007708078E+02  0.89999969024E+02 0.  0.
         12    1    1    2    0    0  0.10612123543E+01  0.26541810025E+00 -0.44325003428E+00  0.11802919223E+01  0.00000000000E+00 0. -1.
         11    1    3    3    0    0  0.47320704170E+01 -0.57678505906E+01 -0.41514472567E+02  0.42179521377E+02  0.51100000000E-03 0. -1.
        -11    1    3    3    0    0 -0.68249801830E+01 -0.49423382196E+01  0.59330562688E+01  0.10305737166E+02  0.51100000000E-03 0.  1.
        -12    1    3    3    0    0  0.10316974117E+01  0.10444770710E+02  0.36024666332E+02  0.37522449535E+02  0.00000000000E+00 0.  1.
</event>
<event>
 7    1  0.1971192E-015  0.9000778E+02  0.7816164E-02  0.1186339E+00
        -11   -1    0    0    0    0  0.00000000000E+00  0.00000000000E+00  0.45593999997E+02  0.45594000000E+02  0.51100000000E-03 0. -1.
         11   -1    0    0    0    0 -0.00000000000E+00 -0.00000000000E+00 -0.45593999997E+02  0.45594000000E+02  0.51100000000E-03 0.  1.
    9900012    2    1    2    0    0 -0.92218643827E+00  0.88630939222E-01 -0.73119030922E+00  0.90007778606E+02  0.90000040484E+02 0.  0.
         12    1    1    2    0    0  0.92218643827E+00 -0.88630939222E-01  0.73119030922E+00  0.11802213939E+01  0.00000000000E+00 0. -1.
         11    1    3    3    0    0  0.32005017637E+01 -0.61880361714E+01  0.51404291983E+01  0.86578874907E+01  0.51100000000E-03 0. -1.
        -11    1    3    3    0    0 -0.11367618806E+02 -0.35741878423E+02  0.35793395527E+01  0.37676468816E+02  0.51100000000E-03 0.  1.
         12    1    3    3    0    0  0.72449306036E+01  0.42018545534E+02 -0.94509590603E+01  0.43673422300E+02  0.00000000000E+00 0. -1.
</event>
<event>
 7    1  0.1971192E-015  0.9000777E+02  0.7816164E-02  0.1186339E+00
        -11   -1    0    0    0    0  0.00000000000E+00  0.00000000000E+00  0.45593999997E+02  0.45594000000E+02  0.51100000000E-03 0. -1.
         11   -1    0    0    0    0 -0.00000000000E+00 -0.00000000000E+00 -0.45593999997E+02  0.45594000000E+02  0.51100000000E-03 0.  1.
    9900012    2    1    2    0    0  0.50269208865E+00  0.39994963387E+00 -0.99009240530E+00  0.90007770354E+02  0.90000032123E+02 0.  0.
         12    1    1    2    0    0 -0.50269208865E+00 -0.39994963387E+00  0.99009240530E+00  0.11802296457E+01  0.00000000000E+00 0. -1.
         11    1    3    3    0    0 -0.18361593072E+01  0.18546179147E+02  0.25926702649E+02  0.31930019613E+02  0.51100000000E-03 0. -1.
        -11    1    3    3    0    0 -0.14371983218E+02  0.42046155493E+01  0.49003737359E+01  0.15755835634E+02  0.51100000000E-03 0.  1.
        -12    1    3    3    0    0  0.16710834613E+02 -0.22350845062E+02 -0.31817168791E+02  0.42321915107E+02  0.00000000000E+00 0.  1.
</event>
<event>
 7    1  0.1971192E-015  0.9000770E+02  0.7816164E-02  0.1186339E+00
        -11   -1    0    0    0    0  0.00000000000E+00  0.00000000000E+00  0.45593999997E+02  0.45594000000E+02  0.51100000000E-03 0.  1.
         11   -1    0    0    0    0 -0.00000000000E+00 -0.00000000000E+00 -0.45593999997E+02  0.45594000000E+02  0.51100000000E-03 0. -1.
    9900012    2    1    2    0    0  0.10118464985E+01  0.54176796430E+00  0.27524460488E+00  0.90007701116E+02  0.89999961970E+02 0.  0.
         12    1    1    2    0    0 -0.10118464985E+01 -0.54176796430E+00 -0.27524460488E+00  0.11802988843E+01  0.00000000000E+00 0. -1.
         11    1    3    3    0    0  0.29679970120E+02  0.34809121125E+01 -0.21364018566E+02  0.36734706546E+02  0.51100000000E-03 0. -1.
        -11    1    3    3    0    0  0.71376984257E+01  0.46326756766E+01 -0.31460886220E+01  0.90722817758E+01  0.51100000000E-03 0.  1.
        -12    1    3    3    0    0 -0.35805822048E+02 -0.75718198248E+01  0.24785351793E+02  0.44200712794E+02  0.00000000000E+00 0.  1.
</event>
<event>
 7    1  0.1971192E-015  0.9000773E+02  0.7816164E-02  0.1186339E+00
        -11   -1    0    0    0    0  0.00000000000E+00  0.00000000000E+00  0.45593999997E+02  0.45594000000E+02  0.51100000000E-03 0. -1.
         11   -1    0    0    0    0 -0.00000000000E+00 -0.00000000000E+00 -0.45593999997E+02  0.45594000000E+02  0.51100000000E-03 0.  1.
    9900012    2    1    2    0    0  0.11324476766E+01  0.59121061718E-01  0.32727381151E+00  0.90007728342E+02  0.89999989556E+02 0.  0.
         12    1    1    2    0    0 -0.11324476766E+01 -0.59121061718E-01 -0.32727381151E+00  0.11802716585E+01  0.00000000000E+00 0. -1.
         11    1    3    3    0    0 -0.75894854565E+01  0.14607830964E+02 -0.93156805065E+01  0.18914833294E+02  0.51100000000E-03 0. -1.
        -11    1    3    3    0    0 -0.18552920475E+02  0.19428367720E+02  0.34342907451E+01  0.27082590045E+02  0.51100000000E-03 0.  1.
         12    1    3    3    0    0  0.27274853608E+02 -0.33977077622E+02  0.62086635729E+01  0.44010305002E+02  0.00000000000E+00 0. -1.
</event>
<event>
 7    1  0.1971192E-015  0.9000773E+02  0.7816164E-02  0.1186339E+00
        -11   -1    0    0    0    0  0.00000000000E+00  0.00000000000E+00  0.45593999997E+02  0.45594000000E+02  0.51100000000E-03 0.  1.
         11   -1    0    0    0    0 -0.00000000000E+00 -0.00000000000E+00 -0.45593999997E+02  0.45594000000E+02  0.51100000000E-03 0. -1.
    9900012    2    1    2    0    0  0.86364040289E+00 -0.68830698479E-01  0.80152034412E+00  0.90007725764E+02  0.89999986944E+02 0.  0.
         12    1    1    2    0    0 -0.86364040289E+00  0.68830698479E-01 -0.80152034412E+00  0.11802742362E+01  0.00000000000E+00 0. -1.
         11    1    3    3    0    0 -0.37991304400E+01  0.82322010964E+01  0.36469117390E+01  0.97725376687E+01  0.51100000000E-03 0. -1.
        -11    1    3    3    0    0  0.16075140718E+02  0.31973728018E+02  0.86644005011E+01  0.36821206780E+02  0.51100000000E-03 0.  1.
         12    1    3    3    0    0 -0.11412369875E+02 -0.40274759813E+02 -0.11509791896E+02  0.43413981315E+02  0.00000000000E+00 0. -1.
</event>
<event>
 7    1  0.1971192E-015  0.9000771E+02  0.7816164E-02  0.1186339E+00
        -11   -1    0    0    0    0  0.00000000000E+00  0.00000000000E+00  0.45593999997E+02  0.45594000000E+02  0.51100000000E-03 0. -1.
         11   -1    0    0    0    0 -0.00000000000E+00 -0.00000000000E+00 -0.45593999997E+02  0.45594000000E+02  0.51100000000E-03 0.  1.
    9900012    2    1    2    0    0  0.20506225228E+00  0.10302167970E+01 -0.53822438812E+00  0.90007710769E+02  0.89999971751E+02 0.  0.
         12    1    1    2    0    0 -0.20506225228E+00 -0.10302167970E+01  0.53822438812E+00  0.11802892307E+01  0.00000000000E+00 0. -1.
         11    1    3    3    0    0  0.13013048713E+01  0.35843306644E+01 -0.94986274602E+01  0.10235465039E+02  0.51100000000E-03 0. -1.
        -11    1    3    3    0    0 -0.32723088694E+02  0.11517503077E+02 -0.14873233475E+02  0.37744754404E+02  0.51100000000E-03 0.  1.
         12    1    3    3    0    0  0.31626846075E+02 -0.14071616944E+02  0.23833636547E+02  0.42027491326E+02  0.00000000000E+00 0. -1.
</event>
<event>
 7    1  0.3008212E-015  0.9000783E+02  0.7816164E-02  0.1186339E+00
        -11   -1    0    0    0    0  0.00000000000E+00  0.00000000000E+00  0.45593999997E+02  0.45594000000E+02  0.51100000000E-03 0. -1.
         11   -1    0    0    0    0 -0.00000000000E+00 -0.00000000000E+00 -0.45593999997E+02  0.45594000000E+02  0.51100000000E-03 0.  1.
    9900012    2    1    2    0    0  0.30984354037E+00 -0.10220814974E+00 -0.11341742666E+01  0.90007830185E+02  0.90000092743E+02 0.  0.
         12    1    1    2    0    0 -0.30984354037E+00  0.10220814974E+00  0.11341742666E+01  0.11801698151E+01  0.00000000000E+00 0. -1.
         11    1    3    3    0    0  0.20317614552E+02  0.14212838774E+02  0.26885004864E+02  0.36573402000E+02  0.51100000000E-03 0. -1.
        -11    1    3    3    0    0 -0.21671096083E+01  0.68864398431E+01  0.61207388276E+01  0.94648223345E+01  0.51100000000E-03 0.  1.
        -12    1    3    3    0    0 -0.17840661403E+02 -0.21201486767E+02 -0.34139917958E+02  0.43969605850E+02  0.00000000000E+00 0.  1.
</event>
<event>
 7    1  0.1971192E-015  0.9000858E+02  0.7816164E-02  0.1186337E+00
        -11   -1    0    0    0    0  0.00000000000E+00  0.00000000000E+00  0.45593999997E+02  0.45594000000E+02  0.51100000000E-03 0.  1.
         11   -1    0    0    0    0 -0.00000000000E+00 -0.00000000000E+00 -0.45593999997E+02  0.45594000000E+02  0.51100000000E-03 0. -1.
    9900012    2    1    2    0    0  0.23828054175E+00  0.87468099173E+00 -0.75443793416E+00  0.90008584445E+02  0.90000856956E+02 0.  0.
         12    1    1    2    0    0 -0.23828054175E+00 -0.87468099173E+00  0.75443793416E+00  0.11794155546E+01  0.00000000000E+00 0. -1.
         11    1    3    3    0    0  0.32854732881E+02  0.21243960390E+02 -0.13845896925E+02  0.41502387734E+02  0.51100000000E-03 0. -1.
        -11    1    3    3    0    0  0.14768845939E+01 -0.88212559020E+01 -0.24875648864E+01  0.92835188973E+01  0.51100000000E-03 0.  1.
        -12    1    3    3    0    0 -0.34093336933E+02 -0.11548023496E+02  0.15579023878E+02  0.39222677814E+02  0.00000000000E+00 0.  1.
</event>
<event>
 7    1  0.1971192E-015  0.9000770E+02  0.7816164E-02  0.1186339E+00
        -11   -1    0    0    0    0  0.00000000000E+00  0.00000000000E+00  0.45593999997E+02  0.45594000000E+02  0.51100000000E-03 0.  1.
         11   -1    0    0    0    0 -0.00000000000E+00 -0.00000000000E+00 -0.45593999997E+02  0.45594000000E+02  0.51100000000E-03 0. -1.
    9900012    2    1    2    0    0 -0.10333674797E+01  0.56112605288E+00 -0.10196369355E+00  0.90007700296E+02  0.89999961140E+02 0.  0.
         12    1    1    2    0    0  0.10333674797E+01 -0.56112605288E+00  0.10196369355E+00  0.11802997035E+01  0.00000000000E+00 0. -1.
         11    1    3    3    0    0 -0.11434165189E+02  0.34088622058E+01 -0.31779902679E+02  0.33945878832E+02  0.51100000000E-03 0. -1.
        -11    1    3    3    0    0 -0.86993882840E+01  0.12235867994E+02 -0.13069078001E+01  0.15069964511E+02  0.51100000000E-03 0.  1.
        -12    1    3    3    0    0  0.19100185994E+02 -0.15083604147E+02  0.32984846786E+02  0.40991856954E+02  0.00000000000E+00 0.  1.
</event>
<event>
 7    1  0.1971192E-015  0.9000771E+02  0.7816164E-02  0.1186339E+00
        -11   -1    0    0    0    0  0.00000000000E+00  0.00000000000E+00  0.45593999997E+02  0.45594000000E+02  0.51100000000E-03 0.  1.
         11   -1    0    0    0    0 -0.00000000000E+00 -0.00000000000E+00 -0.45593999997E+02  0.45594000000E+02  0.51100000000E-03 0. -1.
    9900012    2    1    2    0    0 -0.43243985151E+00  0.10314441963E+01  0.37709624822E+00  0.90007710656E+02  0.89999971637E+02 0.  0.
         12    1    1    2    0    0  0.43243985151E+00 -0.10314441963E+01 -0.37709624822E+00  0.11802893440E+01  0.00000000000E+00 0. -1.
         11    1    3    3    0    0 -0.66426753789E+01 -0.53931399970E+01 -0.47852620861E+01  0.98035620420E+01  0.51100000000E-03 0. -1.
        -11    1    3    3    0    0 -0.23185050594E+02 -0.16987695991E+02  0.24656649991E+02  0.37869232566E+02  0.51100000000E-03 0.  1.
         12    1    3    3    0    0  0.29395286121E+02  0.23412280184E+02 -0.19494291657E+02  0.42334916048E+02  0.00000000000E+00 0. -1.
</event>
<event>
 7    1  0.1971192E-015  0.9000772E+02  0.7816164E-02  0.1186339E+00
        -11   -1    0    0    0    0  0.00000000000E+00  0.00000000000E+00  0.45593999997E+02  0.45594000000E+02  0.51100000000E-03 0.  1.
         11   -1    0    0    0    0 -0.00000000000E+00 -0.00000000000E+00 -0.45593999997E+02  0.45594000000E+02  0.51100000000E-03 0. -1.
    9900012    2    1    2    0    0 -0.55255739088E+00 -0.28818454964E+00  0.10023391610E+01  0.90007722999E+02  0.89999984143E+02 0.  0.
         12    1    1    2    0    0  0.55255739088E+00  0.28818454964E+00 -0.10023391610E+01  0.11802770008E+01  0.00000000000E+00 0. -1.
         11    1    3    3    0    0 -0.22036315934E+01  0.10217537164E+02 -0.49065028724E-01  0.10452581764E+02  0.51100000000E-03 0. -1.
        -11    1    3    3    0    0 -0.45874558504E+01 -0.19440733372E+01  0.39428881527E+02  0.39742431620E+02  0.51100000000E-03 0.  1.
         12    1    3    3    0    0  0.62385300529E+01 -0.85616483761E+01 -0.38377477338E+02  0.39812709615E+02  0.00000000000E+00 0. -1.
</event>
<event>
 7    1  0.1971192E-015  0.9000770E+02  0.7816164E-02  0.1186339E+00
        -11   -1    0    0    0    0  0.00000000000E+00  0.00000000000E+00  0.45593999997E+02  0.45594000000E+02  0.51100000000E-03 0. -1.
         11   -1    0    0    0    0 -0.00000000000E+00 -0.00000000000E+00 -0.45593999997E+02  0.45594000000E+02  0.51100000000E-03 0.  1.
    9900012    2    1    2    0    0 -0.91328935047E+00 -0.48923289378E-01 -0.74606700948E+00  0.90007700500E+02  0.89999961347E+02 0.  0.
         12    1    1    2    0    0  0.91328935047E+00  0.48923289378E-01  0.74606700948E+00  0.11802994995E+01  0.00000000000E+00 0. -1.
         11    1    3    3    0    0 -0.51820908787E+01  0.47097066917E+01 -0.88204408799E+01  0.11262130375E+02  0.51100000000E-03 0. -1.
        -11    1    3    3    0    0  0.59900441029E+00 -0.24127733144E+02 -0.28408801604E+02  0.37276887233E+02  0.51100000000E-03 0.  1.
         12    1    3    3    0    0  0.36697971180E+01  0.19369103163E+02  0.36483175474E+02  0.41468682893E+02  0.00000000000E+00 0. -1.
</event>
<event>
 7    1  0.1971192E-015  0.9000774E+02  0.7816164E-02  0.1186339E+00
        -11   -1    0    0    0    0  0.00000000000E+00  0.00000000000E+00  0.45593999997E+02  0.45594000000E+02  0.51100000000E-03 0. -1.
         11   -1    0    0    0    0 -0.00000000000E+00 -0.00000000000E+00 -0.45593999997E+02  0.45594000000E+02  0.51100000000E-03 0.  1.
    9900012    2    1    2    0    0  0.11644114418E+01  0.15616748056E+00 -0.11305950415E+00  0.90007735310E+02  0.89999996616E+02 0.  0.
         12    1    1    2    0    0 -0.11644114418E+01 -0.15616748056E+00  0.11305950415E+00  0.11802646903E+01  0.00000000000E+00 0. -1.
         11    1    3    3    0    0 -0.11823611294E+02 -0.33066240278E+02  0.11781540278E+02  0.37040231124E+02  0.51100000000E-03 0. -1.
        -11    1    3    3    0    0 -0.63784833291E+01  0.18198419094E+00  0.76571724187E+01  0.99674699666E+01  0.51100000000E-03 0.  1.
        -12    1    3    3    0    0  0.19366506064E+02  0.33040423567E+02 -0.19551772201E+02  0.43000034219E+02  0.00000000000E+00 0.  1.
</event>
<event>
 7    1  0.1971192E-015  0.9000784E+02  0.7816164E-02  0.1186339E+00
        -11   -1    0    0    0    0  0.00000000000E+00  0.00000000000E+00  0.45593999997E+02  0.45594000000E+02  0.51100000000E-03 0. -1.
         11   -1    0    0    0    0 -0.00000000000E+00 -0.00000000000E+00 -0.45593999997E+02  0.45594000000E+02  0.51100000000E-03 0.  1.
    9900012    2    1    2    0    0 -0.83008715600E+00 -0.54062752608E+00 -0.64145048857E+00  0.90007838343E+02  0.90000101009E+02 0.  0.
         12    1    1    2    0    0  0.83008715600E+00  0.54062752608E+00  0.64145048857E+00  0.11801616575E+01  0.00000000000E+00 0. -1.
         11    1    3    3    0    0  0.97906826648E+01 -0.33307638324E+01  0.16414021277E+01  0.10471182166E+02  0.51100000000E-03 0. -1.
        -11    1    3    3    0    0 -0.11836453233E+02 -0.31929921764E+00 -0.39977639206E+02  0.41694306732E+02  0.51100000000E-03 0.  1.
         12    1    3    3    0    0  0.12156834119E+01  0.31094355239E+01  0.37694786590E+02  0.37842349444E+02  0.00000000000E+00 0. -1.
</event>
<event>
 7    1  0.1971192E-015  0.9000792E+02  0.7816164E-02  0.1186339E+00
        -11   -1    0    0    0    0  0.00000000000E+00  0.00000000000E+00  0.45593999997E+02  0.45594000000E+02  0.51100000000E-03 0.  1.
         11   -1    0    0    0    0 -0.00000000000E+00 -0.00000000000E+00 -0.45593999997E+02  0.45594000000E+02  0.51100000000E-03 0. -1.
    9900012    2    1    2    0    0 -0.55182471665E+00 -0.86466368347E+00  0.58346240815E+00  0.90007922805E+02  0.90000186586E+02 0.  0.
         12    1    1    2    0    0  0.55182471665E+00  0.86466368347E+00 -0.58346240815E+00  0.11800771946E+01  0.00000000000E+00 0. -1.
         11    1    3    3    0    0 -0.47065710075E+01  0.90568934614E+01 -0.15990218765E+01  0.10331311681E+02  0.51100000000E-03 0. -1.
        -11    1    3    3    0    0 -0.11392182266E+02  0.30781991914E+02 -0.10215544373E+02  0.34375430035E+02  0.51100000000E-03 0.  1.
         12    1    3    3    0    0  0.15546928556E+02 -0.40703549059E+02  0.12398028658E+02  0.45301181090E+02  0.00000000000E+00 0. -1.
</event>
<event>
 7    1  0.1971192E-015  0.9000775E+02  0.7816164E-02  0.1186339E+00
        -11   -1    0    0    0    0  0.00000000000E+00  0.00000000000E+00  0.45593999997E+02  0.45594000000E+02  0.51100000000E-03 0.  1.
         11   -1    0    0    0    0 -0.00000000000E+00 -0.00000000000E+00 -0.45593999997E+02  0.45594000000E+02  0.51100000000E-03 0. -1.
    9900012    2    1    2    0    0  0.73940976235E+00  0.10377231071E+00 -0.91405263423E+00  0.90007750998E+02  0.90000012511E+02 0.  0.
         12    1    1    2    0    0 -0.73940976235E+00 -0.10377231071E+00  0.91405263423E+00  0.11802490022E+01  0.00000000000E+00 0. -1.
         11    1    3    3    0    0  0.24795333746E+01 -0.17899383861E+01  0.84912414284E+01  0.90251396907E+01  0.51100000000E-03 0. -1.
        -11    1    3    3    0    0  0.11235144266E+02  0.36328665768E+02 -0.19624448014E+02  0.42791580753E+02  0.51100000000E-03 0.  1.
         12    1    3    3    0    0 -0.12975267878E+02 -0.34434955072E+02  0.10219153952E+02  0.38191030554E+02  0.00000000000E+00 0. -1.
</event>
<event>
 7    1  0.1971192E-015  0.9000777E+02  0.7816164E-02  0.1186339E+00
        -11   -1    0    0    0    0  0.00000000000E+00  0.00000000000E+00  0.45593999997E+02  0.45594000000E+02  0.51100000000E-03 0.  1.
         11   -1    0    0    0    0 -0.00000000000E+00 -0.00000000000E+00 -0.45593999997E+02  0.45594000000E+02  0.51100000000E-03 0. -1.
    9900012    2    1    2    0    0 -0.81816443487E+00 -0.84725861366E+00  0.75443913094E-01  0.90007774604E+02  0.90000036429E+02 0.  0.
         12    1    1    2    0    0  0.81816443487E+00  0.84725861366E+00 -0.75443913094E-01  0.11802253958E+01  0.00000000000E+00 0. -1.
         11    1    3    3    0    0  0.83104025414E+01 -0.49736381135E+00  0.57449890049E+01  0.10115090711E+02  0.51100000000E-03 0. -1.
        -11    1    3    3    0    0  0.54249904449E+00  0.31218962528E+02  0.20849027416E+02  0.37544638378E+02  0.51100000000E-03 0.  1.
         12    1    3    3    0    0 -0.96710660208E+01 -0.31568857330E+02 -0.26518572507E+02  0.42348045515E+02  0.00000000000E+00 0. -1.
</event>
<event>
 7    1  0.1971192E-015  0.9000704E+02  0.7816164E-02  0.1186340E+00
        -11   -1    0    0    0    0  0.00000000000E+00  0.00000000000E+00  0.45593999997E+02  0.45594000000E+02  0.51100000000E-03 0.  1.
         11   -1    0    0    0    0 -0.00000000000E+00 -0.00000000000E+00 -0.45593999997E+02  0.45594000000E+02  0.51100000000E-03 0. -1.
    9900012    2    1    2    0    0 -0.68031844422E+00 -0.19845203084E+00  0.94469441019E+00  0.90007041100E+02  0.89999293240E+02 0.  0.
         12    1    1    2    0    0  0.68031844422E+00  0.19845203084E+00 -0.94469441019E+00  0.11809588997E+01  0.00000000000E+00 0. -1.
         11    1    3    3    0    0 -0.91092033177E+01  0.36900896480E+01 -0.29818626020E+02  0.31396573136E+02  0.51100000000E-03 0. -1.
        -11    1    3    3    0    0 -0.17898822493E+02  0.91767369311E+01  0.16101648446E+02  0.25765159232E+02  0.51100000000E-03 0.  1.
        -12    1    3    3    0    0  0.26327707367E+02 -0.13065278610E+02  0.14661671985E+02  0.32845308732E+02  0.00000000000E+00 0.  1.
</event>
<event>
 7    1  0.1971192E-015  0.9000772E+02  0.7816164E-02  0.1186339E+00
        -11   -1    0    0    0    0  0.00000000000E+00  0.00000000000E+00  0.45593999997E+02  0.45594000000E+02  0.51100000000E-03 0.  1.
         11   -1    0    0    0    0 -0.00000000000E+00 -0.00000000000E+00 -0.45593999997E+02  0.45594000000E+02  0.51100000000E-03 0. -1.
    9900012    2    1    2    0    0 -0.98218096694E-01  0.26148674763E-01  0.11758990186E+01  0.90007716538E+02  0.89999977597E+02 0.  0.
         12    1    1    2    0    0  0.98218096694E-01 -0.26148674763E-01 -0.11758990186E+01  0.11802834615E+01  0.00000000000E+00 0. -1.
         11    1    3    3    0    0  0.45450931483E+01  0.30718392463E+02 -0.29709612188E+02  0.42976023127E+02  0.51100000000E-03 0. -1.
        -11    1    3    3    0    0 -0.55352519471E+01 -0.96639332256E+01  0.20373462388E+01  0.11321722460E+02  0.51100000000E-03 0.  1.
        -12    1    3    3    0    0  0.89194070206E+00 -0.21028310562E+02  0.28848164968E+02  0.35709970951E+02  0.00000000000E+00 0.  1.
</event>
<event>
 7    1  0.1971192E-015  0.9000776E+02  0.7816164E-02  0.1186339E+00
        -11   -1    0    0    0    0  0.00000000000E+00  0.00000000000E+00  0.45593999997E+02  0.45594000000E+02  0.51100000000E-03 0.  1.
         11   -1    0    0    0    0 -0.00000000000E+00 -0.00000000000E+00 -0.45593999997E+02  0.45594000000E+02  0.51100000000E-03 0. -1.
    9900012    2    1    2    0    0 -0.44342037524E+00  0.91306253061E+00 -0.60221367932E+00  0.90007760139E+02  0.90000021773E+02 0.  0.
         12    1    1    2    0    0  0.44342037524E+00 -0.91306253061E+00  0.60221367932E+00  0.11802398610E+01  0.00000000000E+00 0. -1.
         11    1    3    3    0    0  0.12051682423E+01  0.18902050202E+02 -0.48515372755E+01  0.19551914140E+02  0.51100000000E-03 0.  1.
        -11    1    3    3    0    0  0.54480180775E+01  0.23489071860E+02  0.13119072313E+02  0.27450454576E+02  0.51100000000E-03 0. -1.
        -12    1    3    3    0    0 -0.70966066951E+01 -0.41478059532E+02 -0.88697487172E+01  0.43005391423E+02  0.00000000000E+00 0.  1.
</event>
<event>
 7    1  0.1971192E-015  0.9000774E+02  0.7816164E-02  0.1186339E+00
        -11   -1    0    0    0    0  0.00000000000E+00  0.00000000000E+00  0.45593999997E+02  0.45594000000E+02  0.51100000000E-03 0.  1.
         11   -1    0    0    0    0 -0.00000000000E+00 -0.00000000000E+00 -0.45593999997E+02  0.45594000000E+02  0.51100000000E-03 0. -1.
    9900012    2    1    2    0    0  0.57891745567E+00  0.10134630192E+01  0.17540718392E+00  0.90007737151E+02  0.89999998482E+02 0.  0.
         12    1    1    2    0    0 -0.57891745567E+00 -0.10134630192E+01 -0.17540718392E+00  0.11802628487E+01  0.00000000000E+00 0. -1.
         11    1    3    3    0    0  0.71885017503E+01 -0.28670461158E+02 -0.13217326751E+02  0.32378505635E+02  0.51100000000E-03 0. -1.
        -11    1    3    3    0    0  0.11041805709E+02 -0.30144695099E+01  0.16785063058E+02  0.20316171930E+02  0.51100000000E-03 0.  1.
        -12    1    3    3    0    0 -0.17651390004E+02  0.32698393687E+02 -0.33923291233E+01  0.37313059586E+02  0.00000000000E+00 0.  1.
</event>
<event>
 7    1  0.1971192E-015  0.9000808E+02  0.7816164E-02  0.1186338E+00
        -11   -1    0    0    0    0  0.00000000000E+00  0.00000000000E+00  0.45593999997E+02  0.45594000000E+02  0.51100000000E-03 0.  1.
         11   -1    0    0    0    0 -0.00000000000E+00 -0.00000000000E+00 -0.45593999997E+02  0.45594000000E+02  0.51100000000E-03 0. -1.
    9900012    2    1    2    0    0 -0.40264926875E+00  0.10215556227E+01 -0.43186734166E+00  0.90008079780E+02  0.90000345633E+02 0.  0.
         12    1    1    2    0    0  0.40264926875E+00 -0.10215556227E+01  0.43186734166E+00  0.11799202196E+01  0.00000000000E+00 0. -1.
         11    1    3    3    0    0  0.59694229209E+01  0.27797985928E+02 -0.28436135123E+02  0.40211637776E+02  0.51100000000E-03 0. -1.
        -11    1    3    3    0    0 -0.75009018196E+01  0.50582382297E+01  0.39101030518E+01  0.98558717642E+01  0.51100000000E-03 0.  1.
        -12    1    3    3    0    0  0.11288296299E+01 -0.31834668535E+02  0.24094164730E+02  0.39940570240E+02  0.00000000000E+00 0.  1.
</event>
<event>
 7    1  0.1971192E-015  0.9000826E+02  0.7816164E-02  0.1186338E+00
        -11   -1    0    0    0    0  0.00000000000E+00  0.00000000000E+00  0.45593999997E+02  0.45594000000E+02  0.51100000000E-03 0.  1.
         11   -1    0    0    0    0 -0.00000000000E+00 -0.00000000000E+00 -0.45593999997E+02  0.45594000000E+02  0.51100000000E-03 0. -1.
    9900012    2    1    2    0    0  0.39148540073E+00 -0.10118639516E-01  0.11128444487E+01  0.90008260210E+02  0.90000528443E+02 0.  0.
         12    1    1    2    0    0 -0.39148540073E+00  0.10118639516E-01 -0.11128444487E+01  0.11797397903E+01  0.00000000000E+00 0. -1.
         11    1    3    3    0    0  0.91244622041E+01 -0.16197675300E+01  0.35187861225E+01  0.99126844700E+01  0.51100000000E-03 0. -1.
        -11    1    3    3    0    0 -0.16730159051E+02  0.29570948400E+02  0.23367854924E+02  0.41235856425E+02  0.51100000000E-03 0.  1.
         12    1    3    3    0    0  0.79971822472E+01 -0.27961299509E+02 -0.25773796597E+02  0.38859719314E+02  0.00000000000E+00 0. -1.
</event>
<event>
 7    1  0.1971192E-015  0.9000777E+02  0.7816164E-02  0.1186339E+00
        -11   -1    0    0    0    0  0.00000000000E+00  0.00000000000E+00  0.45593999997E+02  0.45594000000E+02  0.51100000000E-03 0.  1.
         11   -1    0    0    0    0 -0.00000000000E+00 -0.00000000000E+00 -0.45593999997E+02  0.45594000000E+02  0.51100000000E-03 0. -1.
    9900012    2    1    2    0    0 -0.11780929487E+01  0.19620472843E-01 -0.68154648805E-01  0.90007774168E+02  0.90000035987E+02 0.  0.
         12    1    1    2    0    0  0.11780929487E+01 -0.19620472843E-01  0.68154648805E-01  0.11802258321E+01  0.00000000000E+00 0. -1.
         11    1    3    3    0    0  0.10902428281E+02  0.13145762697E+02 -0.34292447273E+02  0.38309867653E+02  0.51100000000E-03 0. -1.
        -11    1    3    3    0    0  0.32250332451E+01  0.74696893773E+01 -0.91427166985E+00  0.81873678171E+01  0.51100000000E-03 0.  1.
        -12    1    3    3    0    0 -0.15305554475E+02 -0.20595831602E+02  0.35138564294E+02  0.43510538698E+02  0.00000000000E+00 0.  1.
</event>
<event>
 7    1  0.1971192E-015  0.9000766E+02  0.7816164E-02  0.1186339E+00
        -11   -1    0    0    0    0  0.00000000000E+00  0.00000000000E+00  0.45593999997E+02  0.45594000000E+02  0.51100000000E-03 0.  1.
         11   -1    0    0    0    0 -0.00000000000E+00 -0.00000000000E+00 -0.45593999997E+02  0.45594000000E+02  0.51100000000E-03 0. -1.
    9900012    2    1    2    0    0 -0.99239985361E+00  0.62870395123E+00 -0.11434003834E+00  0.90007661162E+02  0.89999921489E+02 0.  0.
         12    1    1    2    0    0  0.99239985361E+00 -0.62870395123E+00  0.11434003834E+00  0.11803388378E+01  0.00000000000E+00 0. -1.
         11    1    3    3    0    0 -0.21293343284E+02  0.23724266252E+02 -0.28423343588E+02  0.42709878698E+02  0.51100000000E-03 0. -1.
        -11    1    3    3    0    0 -0.19336891365E+01 -0.98634669096E+01  0.17199692531E+01  0.10197324534E+02  0.51100000000E-03 0.  1.
        -12    1    3    3    0    0  0.22234632567E+02 -0.13232095392E+02  0.26589034296E+02  0.37100457930E+02  0.00000000000E+00 0.  1.
</event>
<event>
 7    1  0.1971192E-015  0.9000779E+02  0.7816164E-02  0.1186339E+00
        -11   -1    0    0    0    0  0.00000000000E+00  0.00000000000E+00  0.45593999997E+02  0.45594000000E+02  0.51100000000E-03 0. -1.
         11   -1    0    0    0    0 -0.00000000000E+00 -0.00000000000E+00 -0.45593999997E+02  0.45594000000E+02  0.51100000000E-03 0.  1.
    9900012    2    1    2    0    0 -0.10219076440E+01 -0.54827310232E+00  0.21908543068E+00  0.90007789403E+02  0.90000051423E+02 0.  0.
         12    1    1    2    0    0  0.10219076440E+01  0.54827310232E+00 -0.21908543068E+00  0.11802105971E+01  0.00000000000E+00 0. -1.
         11    1    3    3    0    0  0.77538729028E+00  0.30763181241E+02  0.20407758458E+02  0.36924939419E+02  0.51100000000E-03 0. -1.
        -11    1    3    3    0    0 -0.13397157304E+01  0.87212174952E+01 -0.17051708614E+01  0.89867725444E+01  0.51100000000E-03 0.  1.
        -12    1    3    3    0    0 -0.45757920381E+00 -0.40032671839E+02 -0.18483502166E+02  0.44096077440E+02  0.00000000000E+00 0.  1.
</event>
<event>
 7    1  0.1971192E-015  0.9000766E+02  0.7816164E-02  0.1186339E+00
        -11   -1    0    0    0    0  0.00000000000E+00  0.00000000000E+00  0.45593999997E+02  0.45594000000E+02  0.51100000000E-03 0.  1.
         11   -1    0    0    0    0 -0.00000000000E+00 -0.00000000000E+00 -0.45593999997E+02  0.45594000000E+02  0.51100000000E-03 0. -1.
    9900012    2    1    2    0    0  0.29660814660E+00 -0.87794551364E+00 -0.73104746041E+00  0.90007663138E+02  0.89999923492E+02 0.  0.
         12    1    1    2    0    0 -0.29660814660E+00  0.87794551364E+00  0.73104746041E+00  0.11803368616E+01  0.00000000000E+00 0. -1.
         11    1    3    3    0    0 -0.25476527127E+01 -0.95578162789E+01 -0.35363664940E+02  0.36720991062E+02  0.51100000000E-03 0. -1.
        -11    1    3    3    0    0  0.16602676647E+01  0.16326674085E+01 -0.88856050880E+01  0.91856447584E+01  0.51100000000E-03 0.  1.
        -12    1    3    3    0    0  0.11839931946E+01  0.70472033568E+01  0.43518222567E+02  0.44101027318E+02  0.00000000000E+00 0.  1.
</event>
<event>
 7    1  0.1971192E-015  0.9000763E+02  0.7816164E-02  0.1186339E+00
        -11   -1    0    0    0    0  0.00000000000E+00  0.00000000000E+00  0.45593999997E+02  0.45594000000E+02  0.51100000000E-03 0.  1.
         11   -1    0    0    0    0 -0.00000000000E+00 -0.00000000000E+00 -0.45593999997E+02  0.45594000000E+02  0.51100000000E-03 0. -1.
    9900012    2    1    2    0    0 -0.56987798332E+00  0.85778968582E-01  0.10301232722E+01  0.90007630184E+02  0.89999890102E+02 0.  0.
         12    1    1    2    0    0  0.56987798332E+00 -0.85778968582E-01 -0.10301232722E+01  0.11803698163E+01  0.00000000000E+00 0. -1.
         11    1    3    3    0    0  0.58283194241E+01  0.50947236847E+01  0.47821445911E+01  0.90991441292E+01  0.51100000000E-03 0. -1.
        -11    1    3    3    0    0 -0.12696943018E+02  0.28513163785E+02 -0.25629358349E+02  0.40386592834E+02  0.51100000000E-03 0.  1.
         12    1    3    3    0    0  0.62987456108E+01 -0.33522108502E+02  0.21877337030E+02  0.40521893221E+02  0.00000000000E+00 0. -1.
</event>
<event>
 7    1  0.1971192E-015  0.9000770E+02  0.7816164E-02  0.1186339E+00
        -11   -1    0    0    0    0  0.00000000000E+00  0.00000000000E+00  0.45593999997E+02  0.45594000000E+02  0.51100000000E-03 0. -1.
         11   -1    0    0    0    0 -0.00000000000E+00 -0.00000000000E+00 -0.45593999997E+02  0.45594000000E+02  0.51100000000E-03 0.  1.
    9900012    2    1    2    0    0 -0.88770673462E+00 -0.48193128317E+00 -0.61059295756E+00  0.90007701407E+02  0.89999962266E+02 0.  0.
         12    1    1    2    0    0  0.88770673462E+00  0.48193128317E+00  0.61059295756E+00  0.11802985928E+01  0.00000000000E+00 0. -1.
         11    1    3    3    0    0 -0.13408327238E+02 -0.16643870054E+02  0.35217760941E+02  0.41195780557E+02  0.51100000000E-03 0. -1.
        -11    1    3    3    0    0 -0.56131207507E+01  0.83334593232E+01 -0.29756572008E+01  0.10478941020E+02  0.51100000000E-03 0.  1.
        -12    1    3    3    0    0  0.18133741255E+02  0.78284794480E+01 -0.32852696698E+02  0.38332979831E+02  0.00000000000E+00 0.  1.
</event>
<event>
 7    1  0.1971192E-015  0.9000787E+02  0.7816164E-02  0.1186339E+00
        -11   -1    0    0    0    0  0.00000000000E+00  0.00000000000E+00  0.45593999997E+02  0.45594000000E+02  0.51100000000E-03 0.  1.
         11   -1    0    0    0    0 -0.00000000000E+00 -0.00000000000E+00 -0.45593999997E+02  0.45594000000E+02  0.51100000000E-03 0. -1.
    9900012    2    1    2    0    0 -0.80663200743E+00  0.84393678777E+00  0.17271521588E+00  0.90007866515E+02  0.90000129553E+02 0.  0.
         12    1    1    2    0    0  0.80663200743E+00 -0.84393678777E+00 -0.17271521588E+00  0.11801334852E+01  0.00000000000E+00 0. -1.
         11    1    3    3    0    0 -0.23538084110E+01 -0.11893661913E+01  0.99979311186E+01  0.10339904878E+02  0.51100000000E-03 0. -1.
        -11    1    3    3    0    0 -0.63764289526E+01 -0.20496861791E+02  0.27787727058E+02  0.35113216383E+02  0.51100000000E-03 0.  1.
         12    1    3    3    0    0  0.79236053562E+01  0.22530164770E+02 -0.37612942961E+02  0.44554745253E+02  0.00000000000E+00 0. -1.
</event>
<event>
 7    1  0.1971192E-015  0.9000775E+02  0.7816164E-02  0.1186339E+00
        -11   -1    0    0    0    0  0.00000000000E+00  0.00000000000E+00  0.45593999997E+02  0.45594000000E+02  0.51100000000E-03 0.  1.
         11   -1    0    0    0    0 -0.00000000000E+00 -0.00000000000E+00 -0.45593999997E+02  0.45594000000E+02  0.51100000000E-03 0. -1.
    9900012    2    1    2    0    0  0.82445430987E+00 -0.71275795560E+00  0.45304458734E+00  0.90007746548E+02  0.90000008003E+02 0.  0.
         12    1    1    2    0    0 -0.82445430987E+00  0.71275795560E+00 -0.45304458734E+00  0.11802534518E+01  0.00000000000E+00 0. -1.
         11    1    3    3    0    0  0.47020338879E+01 -0.88049811534E+01 -0.31525601022E+01  0.10467829348E+02  0.51100000000E-03 0. -1.
        -11    1    3    3    0    0 -0.17394947673E+00 -0.33819799423E+02  0.13335125378E+02  0.36354293564E+02  0.51100000000E-03 0.  1.
         12    1    3    3    0    0 -0.37036301013E+01  0.41912022621E+02 -0.97295206883E+01  0.43185623637E+02  0.00000000000E+00 0. -1.
</event>
<event>
 7    1  0.1971192E-015  0.9000771E+02  0.7816164E-02  0.1186339E+00
        -11   -1    0    0    0    0  0.00000000000E+00  0.00000000000E+00  0.45593999997E+02  0.45594000000E+02  0.51100000000E-03 0. -1.
         11   -1    0    0    0    0 -0.00000000000E+00 -0.00000000000E+00 -0.45593999997E+02  0.45594000000E+02  0.51100000000E-03 0.  1.
    9900012    2    1    2    0    0 -0.32944140573E+00  0.55538477550E+00 -0.98798219124E+00  0.90007706520E+02  0.89999967446E+02 0.  0.
         12    1    1    2    0    0  0.32944140573E+00 -0.55538477550E+00  0.98798219124E+00  0.11802934800E+01  0.00000000000E+00 0. -1.
         11    1    3    3    0    0 -0.38952223983E+01 -0.17122860581E+01  0.25447486242E+02  0.25800760404E+02  0.51100000000E-03 0. -1.
        -11    1    3    3    0    0  0.14169128385E+02  0.27215201194E+02 -0.89963219708E+01  0.31974445804E+02  0.51100000000E-03 0.  1.
         12    1    3    3    0    0 -0.10603347393E+02 -0.24947530361E+02 -0.17439146463E+02  0.32232500312E+02  0.00000000000E+00 0. -1.
</event>
<event>
 7    1  0.1971192E-015  0.9000778E+02  0.7816164E-02  0.1186339E+00
        -11   -1    0    0    0    0  0.00000000000E+00  0.00000000000E+00  0.45593999997E+02  0.45594000000E+02  0.51100000000E-03 0.  1.
         11   -1    0    0    0    0 -0.00000000000E+00 -0.00000000000E+00 -0.45593999997E+02  0.45594000000E+02  0.51100000000E-03 0. -1.
    9900012    2    1    2    0    0  0.22300906058E+00  0.54505316427E+00  0.10227974157E+01  0.90007775214E+02  0.90000037046E+02 0.  0.
         12    1    1    2    0    0 -0.22300906058E+00 -0.54505316427E+00 -0.10227974157E+01  0.11802247865E+01  0.00000000000E+00 0. -1.
         11    1    3    3    0    0 -0.31834880353E+02  0.52149889073E+01 -0.22361743149E+02  0.39251793249E+02  0.51100000000E-03 0. -1.
        -11    1    3    3    0    0  0.26096697263E+01 -0.75470399707E+01 -0.52691782292E+01  0.95672581167E+01  0.51100000000E-03 0.  1.
        -12    1    3    3    0    0  0.29448219687E+02  0.28771042277E+01  0.28653718794E+02  0.41188723847E+02  0.00000000000E+00 0.  1.
</event>
<event>
 7    1  0.1971192E-015  0.9000781E+02  0.7816164E-02  0.1186339E+00
        -11   -1    0    0    0    0  0.00000000000E+00  0.00000000000E+00  0.45593999997E+02  0.45594000000E+02  0.51100000000E-03 0.  1.
         11   -1    0    0    0    0 -0.00000000000E+00 -0.00000000000E+00 -0.45593999997E+02  0.45594000000E+02  0.51100000000E-03 0. -1.
    9900012    2    1    2    0    0 -0.42419742557E+00 -0.10813414818E+01  0.20884680868E+00  0.90007805166E+02  0.90000067394E+02 0.  0.
         12    1    1    2    0    0  0.42419742557E+00  0.10813414818E+01 -0.20884680868E+00  0.11801948338E+01  0.00000000000E+00 0. -1.
         11    1    3    3    0    0 -0.50343944611E+01  0.79959779178E+01 -0.33574263634E+01  0.10027616990E+02  0.51100000000E-03 0. -1.
        -11    1    3    3    0    0 -0.20291007924E+02  0.28115119921E+02  0.58527960343E+01  0.35163051523E+02  0.51100000000E-03 0.  1.
         12    1    3    3    0    0  0.24901204959E+02 -0.37192439320E+02 -0.22865228622E+01  0.44817136653E+02  0.00000000000E+00 0. -1.
</event>
<event>
 7    1  0.1971192E-015  0.9000775E+02  0.7816164E-02  0.1186339E+00
        -11   -1    0    0    0    0  0.00000000000E+00  0.00000000000E+00  0.45593999997E+02  0.45594000000E+02  0.51100000000E-03 0.  1.
         11   -1    0    0    0    0 -0.00000000000E+00 -0.00000000000E+00 -0.45593999997E+02  0.45594000000E+02  0.51100000000E-03 0. -1.
    9900012    2    1    2    0    0 -0.87466856002E+00 -0.70147033550E+00  0.36861625392E+00  0.90007752711E+02  0.90000014246E+02 0.  0.
         12    1    1    2    0    0  0.87466856002E+00  0.70147033550E+00 -0.36861625392E+00  0.11802472894E+01  0.00000000000E+00 0. -1.
         11    1    3    3    0    0  0.12425405176E+02  0.33576432890E+02  0.34114558609E+01  0.35963948209E+02  0.51100000000E-03 0. -1.
        -11    1    3    3    0    0  0.12770965492E+02 -0.11088087092E+02  0.60905062288E+01  0.17976025739E+02  0.51100000000E-03 0.  1.
        -12    1    3    3    0    0 -0.26071039228E+02 -0.23189816134E+02 -0.91333458357E+01  0.36067778763E+02  0.00000000000E+00 0.  1.
</event>
<event>
 7    1  0.1971192E-015  0.9000780E+02  0.7816164E-02  0.1186339E+00
        -11   -1    0    0    0    0  0.00000000000E+00  0.00000000000E+00  0.45593999997E+02  0.45594000000E+02  0.51100000000E-03 0.  1.
         11   -1    0    0    0    0 -0.00000000000E+00 -0.00000000000E+00 -0.45593999997E+02  0.45594000000E+02  0.51100000000E-03 0. -1.
    9900012    2    1    2    0    0 -0.52118150479E-01 -0.19300300371E+00  0.11631435535E+01  0.90007801124E+02  0.90000063299E+02 0.  0.
         12    1    1    2    0    0  0.52118150479E-01  0.19300300371E+00 -0.11631435535E+01  0.11801988761E+01  0.00000000000E+00 0. -1.
         11    1    3    3    0    0  0.88434268290E+01  0.40914610636E+01  0.63681561940E+00  0.97648239159E+01  0.51100000000E-03 0. -1.
        -11    1    3    3    0    0 -0.20415258095E+02  0.19260141468E+02  0.29808804477E+02  0.40942650587E+02  0.51100000000E-03 0.  1.
         12    1    3    3    0    0  0.11519713115E+02 -0.23544605535E+02 -0.29282476543E+02  0.39300326621E+02  0.00000000000E+00 0. -1.
</event>
<event>
 7    1  0.1971192E-015  0.9000758E+02  0.7816164E-02  0.1186339E+00
        -11   -1    0    0    0    0  0.00000000000E+00  0.00000000000E+00  0.45593999997E+02  0.45594000000E+02  0.51100000000E-03 0. -1.
         11   -1    0    0    0    0 -0.00000000000E+00 -0.00000000000E+00 -0.45593999997E+02  0.45594000000E+02  0.51100000000E-03 0.  1.
    9900012    2    1    2    0    0 -0.29445304926E+00  0.74110030044E+00 -0.87031808423E+00  0.90007582353E+02  0.89999841640E+02 0.  0.
         12    1    1    2    0    0  0.29445304926E+00 -0.74110030044E+00  0.87031808423E+00  0.11804176470E+01  0.00000000000E+00 0. -1.
         11    1    3    3    0    0 -0.15337533869E+02 -0.27157201423E+02 -0.17767690532E+02  0.35894907179E+02  0.51100000000E-03 0. -1.
        -11    1    3    3    0    0 -0.33211352314E+00 -0.41634001372E+01 -0.91347607617E+01  0.10044304582E+02  0.51100000000E-03 0.  1.
        -12    1    3    3    0    0  0.15375194343E+02  0.32061701860E+02  0.26032133209E+02  0.44068370592E+02  0.00000000000E+00 0.  1.
</event>
<event>
 7    1  0.1971192E-015  0.9000775E+02  0.7816164E-02  0.1186339E+00
        -11   -1    0    0    0    0  0.00000000000E+00  0.00000000000E+00  0.45593999997E+02  0.45594000000E+02  0.51100000000E-03 0.  1.
         11   -1    0    0    0    0 -0.00000000000E+00 -0.00000000000E+00 -0.45593999997E+02  0.45594000000E+02  0.51100000000E-03 0. -1.
    9900012    2    1    2    0    0 -0.84107648811E+00  0.42329667663E+00  0.71162571071E+00  0.90007745414E+02  0.90000006854E+02 0.  0.
         12    1    1    2    0    0  0.84107648811E+00 -0.42329667663E+00 -0.71162571071E+00  0.11802545859E+01  0.00000000000E+00 0. -1.
         11    1    3    3    0    0 -0.89922817902E+01  0.15386480002E+02  0.26306144824E+02  0.31774489050E+02  0.51100000000E-03 0. -1.
        -11    1    3    3    0    0 -0.21847012081E+01  0.14259986719E+02  0.44175615418E+01  0.15087577367E+02  0.51100000000E-03 0.  1.
        -12    1    3    3    0    0  0.10335906510E+02 -0.29223170044E+02 -0.30012080655E+02  0.43145678996E+02  0.00000000000E+00 0.  1.
</event>
<event>
 7    1  0.1971192E-015  0.9000762E+02  0.7816164E-02  0.1186339E+00
        -11   -1    0    0    0    0  0.00000000000E+00  0.00000000000E+00  0.45593999997E+02  0.45594000000E+02  0.51100000000E-03 0.  1.
         11   -1    0    0    0    0 -0.00000000000E+00 -0.00000000000E+00 -0.45593999997E+02  0.45594000000E+02  0.51100000000E-03 0. -1.
    9900012    2    1    2    0    0 -0.71142237170E+00 -0.23630134114E+00  0.91177035054E+00  0.90007624938E+02  0.89999884787E+02 0.  0.
         12    1    1    2    0    0  0.71142237170E+00  0.23630134114E+00 -0.91177035054E+00  0.11803750620E+01  0.00000000000E+00 0. -1.
         11    1    3    3    0    0 -0.67308912205E+01  0.10310469608E+02 -0.81515088115E+01  0.14766779484E+02  0.51100000000E-03 0. -1.
        -11    1    3    3    0    0 -0.41114341399E+01  0.23203505620E+02  0.26886520856E+02  0.35751805098E+02  0.51100000000E-03 0.  1.
         12    1    3    3    0    0  0.10130902989E+02 -0.33750276569E+02 -0.17823241693E+02  0.39489040357E+02  0.00000000000E+00 0. -1.
</event>
<event>
 7    1  0.1971192E-015  0.9000787E+02  0.7816164E-02  0.1186339E+00
        -11   -1    0    0    0    0  0.00000000000E+00  0.00000000000E+00  0.45593999997E+02  0.45594000000E+02  0.51100000000E-03 0. -1.
         11   -1    0    0    0    0 -0.00000000000E+00 -0.00000000000E+00 -0.45593999997E+02  0.45594000000E+02  0.51100000000E-03 0.  1.
    9900012    2    1    2    0    0  0.10255125122E+01 -0.54931216918E+00 -0.19823565001E+00  0.90007865624E+02  0.90000128650E+02 0.  0.
         12    1    1    2    0    0 -0.10255125122E+01  0.54931216918E+00  0.19823565001E+00  0.11801343757E+01  0.00000000000E+00 0. -1.
         11    1    3    3    0    0  0.34737766416E+00  0.75452096604E+01  0.58111655135E+01  0.95299792732E+01  0.51100000000E-03 0. -1.
        -11    1    3    3    0    0  0.12235956970E+02  0.32999951982E+02  0.69298280603E+01  0.35871130328E+02  0.51100000000E-03 0.  1.
         12    1    3    3    0    0 -0.11557822122E+02 -0.41094473811E+02 -0.12939229224E+02  0.44606756024E+02  0.00000000000E+00 0. -1.
</event>
<event>
 7    1  0.1971192E-015  0.9000774E+02  0.7816164E-02  0.1186339E+00
        -11   -1    0    0    0    0  0.00000000000E+00  0.00000000000E+00  0.45593999997E+02  0.45594000000E+02  0.51100000000E-03 0.  1.
         11   -1    0    0    0    0 -0.00000000000E+00 -0.00000000000E+00 -0.45593999997E+02  0.45594000000E+02  0.51100000000E-03 0. -1.
    9900012    2    1    2    0    0 -0.98021947411E+00  0.35923183809E+00 -0.55056900155E+00  0.90007744114E+02  0.90000005536E+02 0.  0.
         12    1    1    2    0    0  0.98021947411E+00 -0.35923183809E+00  0.55056900155E+00  0.11802558860E+01  0.00000000000E+00 0. -1.
         11    1    3    3    0    0 -0.33841390228E+01  0.21533829255E+00  0.96316197497E+01  0.10211114864E+02  0.51100000000E-03 0. -1.
        -11    1    3    3    0    0  0.16295397945E+02 -0.11982091071E+02  0.29656594890E+02  0.35897411068E+02  0.51100000000E-03 0.  1.
         12    1    3    3    0    0 -0.13891478396E+02  0.12125984617E+02 -0.39838783642E+02  0.43899218182E+02  0.00000000000E+00 0. -1.
</event>
<event>
 7    1  0.1971192E-015  0.9000776E+02  0.7816164E-02  0.1186339E+00
        -11   -1    0    0    0    0  0.00000000000E+00  0.00000000000E+00  0.45593999997E+02  0.45594000000E+02  0.51100000000E-03 0.  1.
         11   -1    0    0    0    0 -0.00000000000E+00 -0.00000000000E+00 -0.45593999997E+02  0.45594000000E+02  0.51100000000E-03 0. -1.
    9900012    2    1    2    0    0 -0.80393552756E+00  0.70579189765E+00  0.49851204211E+00  0.90007759011E+02  0.90000020630E+02 0.  0.
         12    1    1    2    0    0  0.80393552756E+00 -0.70579189765E+00 -0.49851204211E+00  0.11802409887E+01  0.00000000000E+00 0. -1.
         11    1    3    3    0    0  0.15595351244E+01 -0.75212192505E+01 -0.55299350541E+01  0.94647277183E+01  0.51100000000E-03 0. -1.
        -11    1    3    3    0    0  0.20149236522E+02 -0.10490238138E+02 -0.27737075942E+02  0.35852227416E+02  0.51100000000E-03 0.  1.
         12    1    3    3    0    0 -0.22512707174E+02  0.18717249286E+02  0.33765523038E+02  0.44690803877E+02  0.00000000000E+00 0. -1.
</event>
<event>
 7    1  0.1971192E-015  0.9000781E+02  0.7816164E-02  0.1186339E+00
        -11   -1    0    0    0    0  0.00000000000E+00  0.00000000000E+00  0.45593999997E+02  0.45594000000E+02  0.51100000000E-03 0.  1.
         11   -1    0    0    0    0 -0.00000000000E+00 -0.00000000000E+00 -0.45593999997E+02  0.45594000000E+02  0.51100000000E-03 0. -1.
    9900012    2    1    2    0    0 -0.15386267252E-01  0.64631212631E+00  0.98736641563E+00  0.90007809956E+02  0.90000072247E+02 0.  0.
         12    1    1    2    0    0  0.15386267252E-01 -0.64631212631E+00 -0.98736641563E+00  0.11801900442E+01  0.00000000000E+00 0. -1.
         11    1    3    3    0    0  0.52956113588E+01  0.18039928312E+01 -0.37294671411E+01  0.67236013576E+01  0.51100000000E-03 0. -1.
        -11    1    3    3    0    0  0.31042516653E+02  0.21236507020E+02 -0.85537912107E+01  0.38571938179E+02  0.51100000000E-03 0.  1.
         12    1    3    3    0    0 -0.36353514279E+02 -0.22394187725E+02  0.13270624767E+02  0.44712270419E+02  0.00000000000E+00 0. -1.
</event>
<event>
 7    1  0.1971192E-015  0.9000773E+02  0.7816164E-02  0.1186339E+00
        -11   -1    0    0    0    0  0.00000000000E+00  0.00000000000E+00  0.45593999997E+02  0.45594000000E+02  0.51100000000E-03 0.  1.
         11   -1    0    0    0    0 -0.00000000000E+00 -0.00000000000E+00 -0.45593999997E+02  0.45594000000E+02  0.51100000000E-03 0. -1.
    9900012    2    1    2    0    0  0.53192728349E+00  0.70993011326E+00 -0.77851723007E+00  0.90007730337E+02  0.89999991577E+02 0.  0.
         12    1    1    2    0    0 -0.53192728349E+00 -0.70993011326E+00  0.77851723007E+00  0.11802696633E+01  0.00000000000E+00 0. -1.
         11    1    3    3    0    0 -0.12438894782E+02 -0.12432658225E+02 -0.33044644251E+02  0.37433215302E+02  0.51100000000E-03 0. -1.
        -11    1    3    3    0    0  0.53791396221E+01  0.68877034601E+00 -0.80471230693E+01  0.97039032156E+01  0.51100000000E-03 0.  1.
        -12    1    3    3    0    0  0.75916824432E+01  0.12453817992E+02  0.40313250090E+02  0.42870611819E+02  0.00000000000E+00 0.  1.
</event>
<event>
 7    1  0.1971192E-015  0.9000777E+02  0.7816164E-02  0.1186339E+00
        -11   -1    0    0    0    0  0.00000000000E+00  0.00000000000E+00  0.45593999997E+02  0.45594000000E+02  0.51100000000E-03 0.  1.
         11   -1    0    0    0    0 -0.00000000000E+00 -0.00000000000E+00 -0.45593999997E+02  0.45594000000E+02  0.51100000000E-03 0. -1.
    9900012    2    1    2    0    0  0.74656758535E+00 -0.72022559275E+00  0.56288894262E+00  0.90007774587E+02  0.90000036411E+02 0.  0.
         12    1    1    2    0    0 -0.74656758535E+00  0.72022559275E+00 -0.56288894262E+00  0.11802254131E+01  0.00000000000E+00 0. -1.
         11    1    3    3    0    0  0.42953619587E+01  0.90838747754E+01  0.74393313932E+01  0.12502422450E+02  0.51100000000E-03 0. -1.
        -11    1    3    3    0    0 -0.29121770540E+02  0.12209753384E+02  0.17289722313E+02  0.36001251298E+02  0.51100000000E-03 0.  1.
         12    1    3    3    0    0  0.25572976167E+02 -0.22013853752E+02 -0.24166164763E+02  0.41504100839E+02  0.00000000000E+00 0. -1.
</event>
<event>
 7    1  0.1971192E-015  0.9000778E+02  0.7816164E-02  0.1186339E+00
        -11   -1    0    0    0    0  0.00000000000E+00  0.00000000000E+00  0.45593999997E+02  0.45594000000E+02  0.51100000000E-03 0.  1.
         11   -1    0    0    0    0 -0.00000000000E+00 -0.00000000000E+00 -0.45593999997E+02  0.45594000000E+02  0.51100000000E-03 0. -1.
    9900012    2    1    2    0    0 -0.72118806451E+00 -0.76337790446E+00 -0.53858158998E+00  0.90007776217E+02  0.90000038063E+02 0.  0.
         12    1    1    2    0    0  0.72118806451E+00  0.76337790446E+00  0.53858158998E+00  0.11802237832E+01  0.00000000000E+00 0. -1.
         11    1    3    3    0    0 -0.29318443820E+02 -0.16705293896E+02 -0.16615916832E+02  0.37612852652E+02  0.51100000000E-03 0. -1.
        -11    1    3    3    0    0 -0.24774652305E+01 -0.62494061531E+01 -0.53654753625E+01  0.86012346417E+01  0.51100000000E-03 0.  1.
        -12    1    3    3    0    0  0.31074720986E+02  0.22191322145E+02  0.21442810604E+02  0.43793688923E+02  0.00000000000E+00 0.  1.
</event>
<event>
 7    1  0.3387069E-015  0.9000779E+02  0.7816164E-02  0.1186339E+00
        -11   -1    0    0    0    0  0.00000000000E+00  0.00000000000E+00  0.45593999997E+02  0.45594000000E+02  0.51100000000E-03 0.  1.
         11   -1    0    0    0    0 -0.00000000000E+00 -0.00000000000E+00 -0.45593999997E+02  0.45594000000E+02  0.51100000000E-03 0. -1.
    9900012    2    1    2    0    0 -0.21569665730E+00 -0.84503391386E+00  0.79516288636E+00  0.90007791807E+02  0.90000053859E+02 0.  0.
         12    1    1    2    0    0  0.21569665730E+00  0.84503391386E+00 -0.79516288636E+00  0.11802081932E+01  0.00000000000E+00 0. -1.
         11    1    3    3    0    0 -0.13292034394E+02  0.65966510473E+01 -0.35703439243E+02  0.38664318919E+02  0.51100000000E-03 0. -1.
        -11    1    3    3    0    0  0.53005392714E+01 -0.70135554642E+01 -0.43153097907E+01  0.97932413259E+01  0.51100000000E-03 0.  1.
        -12    1    3    3    0    0  0.77757984657E+01 -0.42812949699E+00  0.40813911920E+02  0.41550231562E+02  0.00000000000E+00 0.  1.
</event>
<event>
 7    1  0.1971192E-015  0.9000776E+02  0.7816164E-02  0.1186339E+00
        -11   -1    0    0    0    0  0.00000000000E+00  0.00000000000E+00  0.45593999997E+02  0.45594000000E+02  0.51100000000E-03 0. -1.
         11   -1    0    0    0    0 -0.00000000000E+00 -0.00000000000E+00 -0.45593999997E+02  0.45594000000E+02  0.51100000000E-03 0.  1.
    9900012    2    1    2    0    0 -0.65827613438E+00  0.78036943247E+00 -0.59215886635E+00  0.90007764412E+02  0.90000026102E+02 0.  0.
         12    1    1    2    0    0  0.65827613438E+00 -0.78036943247E+00  0.59215886635E+00  0.11802355880E+01  0.00000000000E+00 0. -1.
         11    1    3    3    0    0 -0.11786423804E+02 -0.34208488335E+02  0.21661974822E+02  0.42170862141E+02  0.51100000000E-03 0. -1.
        -11    1    3    3    0    0 -0.15242888316E+01  0.14576567078E+01 -0.96010603524E+01  0.98299837065E+01  0.51100000000E-03 0.  1.
        -12    1    3    3    0    0  0.12652436501E+02  0.33531201060E+02 -0.12653073336E+02  0.38006918565E+02  0.00000000000E+00 0.  1.
</event>
<event>
 7    1  0.1971192E-015  0.9000768E+02  0.7816164E-02  0.1186339E+00
        -11   -1    0    0    0    0  0.00000000000E+00  0.00000000000E+00  0.45593999997E+02  0.45594000000E+02  0.51100000000E-03 0.  1.
         11   -1    0    0    0    0 -0.00000000000E+00 -0.00000000000E+00 -0.45593999997E+02  0.45594000000E+02  0.51100000000E-03 0. -1.
    9900012    2    1    2    0    0  0.75062151203E+00  0.34372474067E-01  0.91024425645E+00  0.90007678549E+02  0.89999939106E+02 0.  0.
         12    1    1    2    0    0 -0.75062151203E+00 -0.34372474067E-01 -0.91024425645E+00  0.11803214510E+01  0.00000000000E+00 0. -1.
         11    1    3    3    0    0 -0.31650429939E+01 -0.20128669759E+02  0.29994852954E+02  0.36261164452E+02  0.51100000000E-03 0. -1.
        -11    1    3    3    0    0  0.76940341560E+01 -0.46244970640E+01  0.58722734892E+01  0.10726962799E+02  0.51100000000E-03 0.  1.
        -12    1    3    3    0    0 -0.37783696501E+01  0.24787539297E+02 -0.34956882187E+02  0.43019551298E+02  0.00000000000E+00 0.  1.
</event>
<event>
 7    1  0.1971192E-015  0.9000781E+02  0.7816164E-02  0.1186339E+00
        -11   -1    0    0    0    0  0.00000000000E+00  0.00000000000E+00  0.45593999997E+02  0.45594000000E+02  0.51100000000E-03 0.  1.
         11   -1    0    0    0    0 -0.00000000000E+00 -0.00000000000E+00 -0.45593999997E+02  0.45594000000E+02  0.51100000000E-03 0. -1.
    9900012    2    1    2    0    0 -0.58156156329E-01  0.13331426940E+00  0.11711980160E+01  0.90007805259E+02  0.90000067489E+02 0.  0.
         12    1    1    2    0    0  0.58156156329E-01 -0.13331426940E+00 -0.11711980160E+01  0.11801947405E+01  0.00000000000E+00 0. -1.
         11    1    3    3    0    0 -0.53999340650E+01  0.71801176394E+01 -0.31996010132E+01  0.95368141497E+01  0.51100000000E-03 0. -1.
        -11    1    3    3    0    0 -0.20730894665E+02 -0.23586080701E+02  0.27620189960E+02  0.41820426710E+02  0.51100000000E-03 0.  1.
         12    1    3    3    0    0  0.26072672574E+02  0.16539277331E+02 -0.23249390931E+02  0.38650564400E+02  0.00000000000E+00 0. -1.
</event>
<event>
 7    1  0.1971192E-015  0.9000775E+02  0.7816164E-02  0.1186339E+00
        -11   -1    0    0    0    0  0.00000000000E+00  0.00000000000E+00  0.45593999997E+02  0.45594000000E+02  0.51100000000E-03 0.  1.
         11   -1    0    0    0    0 -0.00000000000E+00 -0.00000000000E+00 -0.45593999997E+02  0.45594000000E+02  0.51100000000E-03 0. -1.
    9900012    2    1    2    0    0  0.24788172532E+00  0.86866028701E+00  0.75959472997E+00  0.90007745706E+02  0.90000007150E+02 0.  0.
         12    1    1    2    0    0 -0.24788172532E+00 -0.86866028701E+00 -0.75959472997E+00  0.11802542937E+01  0.00000000000E+00 0. -1.
         11    1    3    3    0    0 -0.94008651875E+01  0.21444819938E+02 -0.29941648206E+02  0.38009983767E+02  0.51100000000E-03 0. -1.
        -11    1    3    3    0    0 -0.74100157858E+01  0.43191442189E+01 -0.49719978139E+00  0.85913065719E+01  0.51100000000E-03 0.  1.
        -12    1    3    3    0    0  0.17058762699E+02 -0.24895303870E+02  0.31198442717E+02  0.43406455367E+02  0.00000000000E+00 0.  1.
</event>
<event>
 7    1  0.1971192E-015  0.9000768E+02  0.7816164E-02  0.1186339E+00
        -11   -1    0    0    0    0  0.00000000000E+00  0.00000000000E+00  0.45593999997E+02  0.45594000000E+02  0.51100000000E-03 0.  1.
         11   -1    0    0    0    0 -0.00000000000E+00 -0.00000000000E+00 -0.45593999997E+02  0.45594000000E+02  0.51100000000E-03 0. -1.
    9900012    2    1    2    0    0  0.13178338771E+00 -0.45670482906E+00  0.10803739719E+01  0.90007680517E+02  0.89999941100E+02 0.  0.
         12    1    1    2    0    0 -0.13178338771E+00  0.45670482906E+00 -0.10803739719E+01  0.11803194827E+01  0.00000000000E+00 0. -1.
         11    1    3    3    0    0 -0.24503216901E+02 -0.35415420747E+02  0.39309465127E+01  0.43244791662E+02  0.51100000000E-03 0. -1.
        -11    1    3    3    0    0 -0.11737156739E+01  0.10662198428E+02  0.22265053805E+01  0.10955245788E+02  0.51100000000E-03 0.  1.
        -12    1    3    3    0    0  0.25808715963E+02  0.24296517489E+02 -0.50770779213E+01  0.35807643067E+02  0.00000000000E+00 0.  1.
</event>
<event>
 7    1  0.1971192E-015  0.9000774E+02  0.7816164E-02  0.1186339E+00
        -11   -1    0    0    0    0  0.00000000000E+00  0.00000000000E+00  0.45593999997E+02  0.45594000000E+02  0.51100000000E-03 0.  1.
         11   -1    0    0    0    0 -0.00000000000E+00 -0.00000000000E+00 -0.45593999997E+02  0.45594000000E+02  0.51100000000E-03 0. -1.
    9900012    2    1    2    0    0 -0.59439053125E+00 -0.57061492377E+00  0.84505202785E+00  0.90007739679E+02  0.90000001043E+02 0.  0.
         12    1    1    2    0    0  0.59439053125E+00  0.57061492377E+00 -0.84505202785E+00  0.11802603207E+01  0.00000000000E+00 0. -1.
         11    1    3    3    0    0 -0.26849070664E+02 -0.20388687695E+01 -0.23992213505E+02  0.36064607173E+02  0.51100000000E-03 0. -1.
        -11    1    3    3    0    0 -0.90555191024E+01  0.44732498867E+01 -0.90768000493E+00  0.10140822157E+02  0.51100000000E-03 0.  1.
        -12    1    3    3    0    0  0.35310199235E+02 -0.30049960410E+01  0.25744945538E+02  0.43802310350E+02  0.00000000000E+00 0.  1.
</event>
<event>
 7    1  0.1971192E-015  0.9000776E+02  0.7816164E-02  0.1186339E+00
        -11   -1    0    0    0    0  0.00000000000E+00  0.00000000000E+00  0.45593999997E+02  0.45594000000E+02  0.51100000000E-03 0. -1.
         11   -1    0    0    0    0 -0.00000000000E+00 -0.00000000000E+00 -0.45593999997E+02  0.45594000000E+02  0.51100000000E-03 0.  1.
    9900012    2    1    2    0    0 -0.46292451367E+00  0.23093492585E-01 -0.10854152718E+01  0.90007763275E+02  0.90000024950E+02 0.  0.
         12    1    1    2    0    0  0.46292451367E+00 -0.23093492585E-01  0.10854152718E+01  0.11802367250E+01  0.00000000000E+00 0. -1.
         11    1    3    3    0    0 -0.11070981124E+02  0.20967959366E+01 -0.38715904664E+01  0.11914377417E+02  0.51100000000E-03 0. -1.
        -11    1    3    3    0    0  0.64243014983E+01 -0.27091024511E+02  0.29974450425E+02  0.40910425778E+02  0.51100000000E-03 0.  1.
         12    1    3    3    0    0  0.41837551118E+01  0.25017322067E+02 -0.27188275230E+02  0.37182960079E+02  0.00000000000E+00 0. -1.
</event>
<event>
 7    1  0.1971192E-015  0.9000774E+02  0.7816164E-02  0.1186339E+00
        -11   -1    0    0    0    0  0.00000000000E+00  0.00000000000E+00  0.45593999997E+02  0.45594000000E+02  0.51100000000E-03 0. -1.
         11   -1    0    0    0    0 -0.00000000000E+00 -0.00000000000E+00 -0.45593999997E+02  0.45594000000E+02  0.51100000000E-03 0.  1.
    9900012    2    1    2    0    0 -0.30694894039E+00 -0.30654613437E+00 -0.10976412647E+01  0.90007743871E+02  0.90000005290E+02 0.  0.
         12    1    1    2    0    0  0.30694894039E+00  0.30654613437E+00  0.10976412647E+01  0.11802561292E+01  0.00000000000E+00 0. -1.
         11    1    3    3    0    0 -0.51563635741E+01 -0.16560393355E+01 -0.19613630672E+02  0.20347605755E+02  0.51100000000E-03 0. -1.
        -11    1    3    3    0    0  0.31509142105E+02  0.17181759849E+02  0.68834506960E+01  0.36543409822E+02  0.51100000000E-03 0.  1.
         12    1    3    3    0    0 -0.26659727471E+02 -0.15832266648E+02  0.11632538711E+02  0.33116728294E+02  0.00000000000E+00 0. -1.
</event>
<event>
 7    1  0.4225405E-015  0.9000783E+02  0.7816164E-02  0.1186339E+00
        -11   -1    0    0    0    0  0.00000000000E+00  0.00000000000E+00  0.45593999997E+02  0.45594000000E+02  0.51100000000E-03 0. -1.
         11   -1    0    0    0    0 -0.00000000000E+00 -0.00000000000E+00 -0.45593999997E+02  0.45594000000E+02  0.51100000000E-03 0.  1.
    9900012    2    1    2    0    0  0.62856737943E+00  0.14483259750E+00 -0.98829914599E+00  0.90007826863E+02  0.90000089377E+02 0.  0.
         12    1    1    2    0    0 -0.62856737943E+00 -0.14483259750E+00  0.98829914599E+00  0.11801731372E+01  0.00000000000E+00 0. -1.
         11    1    3    3    0    0 -0.14988100162E+02  0.17765887576E+02  0.32239032472E+02  0.39744498019E+02  0.51100000000E-03 0. -1.
        -11    1    3    3    0    0 -0.18856707786E+01  0.71410724767E+01 -0.68354284058E+01  0.10063486084E+02  0.51100000000E-03 0.  1.
        -12    1    3    3    0    0  0.17502338320E+02 -0.24762127455E+02 -0.26391903212E+02  0.40199842760E+02  0.00000000000E+00 0.  1.
</event>
<event>
 7    1  0.1971192E-015  0.9000784E+02  0.7816164E-02  0.1186339E+00
        -11   -1    0    0    0    0  0.00000000000E+00  0.00000000000E+00  0.45593999997E+02  0.45594000000E+02  0.51100000000E-03 0.  1.
         11   -1    0    0    0    0 -0.00000000000E+00 -0.00000000000E+00 -0.45593999997E+02  0.45594000000E+02  0.51100000000E-03 0. -1.
    9900012    2    1    2    0    0 -0.73500881074E+00  0.27298747548E+00  0.88205083183E+00  0.90007841628E+02  0.90000104337E+02 0.  0.
         12    1    1    2    0    0  0.73500881074E+00 -0.27298747548E+00 -0.88205083183E+00  0.11801583722E+01  0.00000000000E+00 0. -1.
         11    1    3    3    0    0 -0.32555090627E+01 -0.33420215257E+01  0.81634077577E+01  0.94025886657E+01  0.51100000000E-03 0. -1.
        -11    1    3    3    0    0 -0.13335731732E+02  0.11813748547E+01  0.33879497896E+02  0.36428804061E+02  0.51100000000E-03 0.  1.
         12    1    3    3    0    0  0.15856231984E+02  0.24336341465E+01 -0.41160854822E+02  0.44176448901E+02  0.00000000000E+00 0. -1.
</event>
<event>
 7    1  0.1971192E-015  0.9000775E+02  0.7816164E-02  0.1186339E+00
        -11   -1    0    0    0    0  0.00000000000E+00  0.00000000000E+00  0.45593999997E+02  0.45594000000E+02  0.51100000000E-03 0.  1.
         11   -1    0    0    0    0 -0.00000000000E+00 -0.00000000000E+00 -0.45593999997E+02  0.45594000000E+02  0.51100000000E-03 0. -1.
    9900012    2    1    2    0    0  0.90689389413E+00 -0.74044333119E+00 -0.14928098708E+00  0.90007746775E+02  0.90000008232E+02 0.  0.
         12    1    1    2    0    0 -0.90689389413E+00  0.74044333119E+00  0.14928098708E+00  0.11802532250E+01  0.00000000000E+00 0. -1.
         11    1    3    3    0    0  0.59176692568E+01 -0.71191072390E+01 -0.15091585076E+01  0.93796618796E+01  0.51100000000E-03 0. -1.
        -11    1    3    3    0    0  0.34456150712E+02  0.18289222176E+02  0.45816730243E+01  0.39277394232E+02  0.51100000000E-03 0.  1.
         12    1    3    3    0    0 -0.39466926075E+02 -0.11910558268E+02 -0.32217955038E+01  0.41350690663E+02  0.00000000000E+00 0. -1.
</event>
<event>
 7    1  0.1971192E-015  0.9000777E+02  0.7816164E-02  0.1186339E+00
        -11   -1    0    0    0    0  0.00000000000E+00  0.00000000000E+00  0.45593999997E+02  0.45594000000E+02  0.51100000000E-03 0.  1.
         11   -1    0    0    0    0 -0.00000000000E+00 -0.00000000000E+00 -0.45593999997E+02  0.45594000000E+02  0.51100000000E-03 0. -1.
    9900012    2    1    2    0    0 -0.10338884859E+01 -0.18535687226E-01 -0.56891617119E+00  0.90007773504E+02  0.90000035314E+02 0.  0.
         12    1    1    2    0    0  0.10338884859E+01  0.18535687226E-01  0.56891617119E+00  0.11802264964E+01  0.00000000000E+00 0. -1.
         11    1    3    3    0    0 -0.27002157755E+01 -0.15103815684E+02 -0.30717619317E+02  0.34336402697E+02  0.51100000000E-03 0. -1.
        -11    1    3    3    0    0 -0.29480044621E+01 -0.19200751962E+01 -0.10657629263E+02  0.11223300799E+02  0.51100000000E-03 0.  1.
        -12    1    3    3    0    0  0.46143317517E+01  0.17005355193E+02  0.40806332408E+02  0.44448070007E+02  0.00000000000E+00 0.  1.
</event>
<event>
 7    1  0.1971192E-015  0.9000772E+02  0.7816164E-02  0.1186339E+00
        -11   -1    0    0    0    0  0.00000000000E+00  0.00000000000E+00  0.45593999997E+02  0.45594000000E+02  0.51100000000E-03 0.  1.
         11   -1    0    0    0    0 -0.00000000000E+00 -0.00000000000E+00 -0.45593999997E+02  0.45594000000E+02  0.51100000000E-03 0. -1.
    9900012    2    1    2    0    0 -0.40474044779E+00 -0.10407455374E+01  0.38221632492E+00  0.90007722311E+02  0.89999983446E+02 0.  0.
         12    1    1    2    0    0  0.40474044779E+00  0.10407455374E+01 -0.38221632492E+00  0.11802776888E+01  0.00000000000E+00 0. -1.
         11    1    3    3    0    0 -0.21587367584E+01  0.87824429753E+01  0.80623925411E+01  0.12115841810E+02  0.51100000000E-03 0. -1.
        -11    1    3    3    0    0 -0.41092179484E+01  0.21757676699E+02  0.24085463119E+02  0.32716841251E+02  0.51100000000E-03 0.  1.
         12    1    3    3    0    0  0.58632142591E+01 -0.31580865211E+02 -0.31765639335E+02  0.45175039251E+02  0.00000000000E+00 0. -1.
</event>
<event>
 7    1  0.1971192E-015  0.9000759E+02  0.7816164E-02  0.1186339E+00
        -11   -1    0    0    0    0  0.00000000000E+00  0.00000000000E+00  0.45593999997E+02  0.45594000000E+02  0.51100000000E-03 0.  1.
         11   -1    0    0    0    0 -0.00000000000E+00 -0.00000000000E+00 -0.45593999997E+02  0.45594000000E+02  0.51100000000E-03 0. -1.
    9900012    2    1    2    0    0 -0.72611864080E+00  0.15277334917E+00  0.91802627432E+00  0.90007593198E+02  0.89999852629E+02 0.  0.
         12    1    1    2    0    0  0.72611864080E+00 -0.15277334917E+00 -0.91802627432E+00  0.11804068015E+01  0.00000000000E+00 0. -1.
         11    1    3    3    0    0  0.15153736378E+02  0.23262631990E+02  0.24916439724E+02  0.37304352857E+02  0.51100000000E-03 0. -1.
        -11    1    3    3    0    0  0.94822227852E+01 -0.46713644506E+01  0.33578978602E+01  0.11090972594E+02  0.51100000000E-03 0.  1.
        -12    1    3    3    0    0 -0.25362077804E+02 -0.18438494190E+02 -0.27356311310E+02  0.41612267747E+02  0.00000000000E+00 0.  1.
</event>
<event>
 7    1  0.1971192E-015  0.9000776E+02  0.7816164E-02  0.1186339E+00
        -11   -1    0    0    0    0  0.00000000000E+00  0.00000000000E+00  0.45593999997E+02  0.45594000000E+02  0.51100000000E-03 0.  1.
         11   -1    0    0    0    0 -0.00000000000E+00 -0.00000000000E+00 -0.45593999997E+02  0.45594000000E+02  0.51100000000E-03 0. -1.
    9900012    2    1    2    0    0 -0.46948262251E+00  0.10030281617E+01  0.40803591961E+00  0.90007757339E+02  0.90000018936E+02 0.  0.
         12    1    1    2    0    0  0.46948262251E+00 -0.10030281617E+01 -0.40803591961E+00  0.11802426605E+01  0.00000000000E+00 0. -1.
         11    1    3    3    0    0  0.82300938427E+01  0.25995935798E+00 -0.10710481586E+01  0.83035635691E+01  0.51100000000E-03 0. -1.
        -11    1    3    3    0    0 -0.78247671483E+01  0.16365078761E+02  0.37925992960E+02  0.42040738885E+02  0.51100000000E-03 0.  1.
         12    1    3    3    0    0 -0.87480931693E+00 -0.15622009957E+02 -0.36446908881E+02  0.39663454885E+02  0.00000000000E+00 0. -1.
</event>
<event>
 7    1  0.1971192E-015  0.9000804E+02  0.7816164E-02  0.1186338E+00
        -11   -1    0    0    0    0  0.00000000000E+00  0.00000000000E+00  0.45593999997E+02  0.45594000000E+02  0.51100000000E-03 0. -1.
         11   -1    0    0    0    0 -0.00000000000E+00 -0.00000000000E+00 -0.45593999997E+02  0.45594000000E+02  0.51100000000E-03 0.  1.
    9900012    2    1    2    0    0 -0.11056846624E+01  0.19404437351E+00 -0.36347628924E+00  0.90008039490E+02  0.90000304811E+02 0.  0.
         12    1    1    2    0    0  0.11056846624E+01 -0.19404437351E+00  0.36347628924E+00  0.11799605097E+01  0.00000000000E+00 0. -1.
         11    1    3    3    0    0 -0.33098335435E+02 -0.25924133791E+02 -0.78098032415E+00  0.42049618927E+02  0.51100000000E-03 0. -1.
        -11    1    3    3    0    0  0.10708367087E+02 -0.35641266648E+01  0.16884534592E+01  0.11411529253E+02  0.51100000000E-03 0.  1.
        -12    1    3    3    0    0  0.21284283685E+02  0.29682304829E+02 -0.12709494243E+01  0.36546891310E+02  0.00000000000E+00 0.  1.
</event>
<event>
 7    1  0.1971192E-015  0.9000776E+02  0.7816164E-02  0.1186339E+00
        -11   -1    0    0    0    0  0.00000000000E+00  0.00000000000E+00  0.45593999997E+02  0.45594000000E+02  0.51100000000E-03 0. -1.
         11   -1    0    0    0    0 -0.00000000000E+00 -0.00000000000E+00 -0.45593999997E+02  0.45594000000E+02  0.51100000000E-03 0.  1.
    9900012    2    1    2    0    0 -0.40347919625E-02  0.74675029375E+00 -0.91395724737E+00  0.90007758444E+02  0.90000020055E+02 0.  0.
         12    1    1    2    0    0  0.40347919625E-02 -0.74675029375E+00  0.91395724737E+00  0.11802415561E+01  0.00000000000E+00 0. -1.
         11    1    3    3    0    0  0.30944635558E+01  0.16177045882E+01  0.10039295472E+02  0.10629211009E+02  0.51100000000E-03 0. -1.
        -11    1    3    3    0    0  0.31266012237E+02 -0.22011812280E+02 -0.41406309441E+01  0.38460736160E+02  0.51100000000E-03 0.  1.
         12    1    3    3    0    0 -0.34364510585E+02  0.21140857986E+02 -0.68126217751E+01  0.40917811275E+02  0.00000000000E+00 0. -1.
</event>
<event>
 7    1  0.1971192E-015  0.9000777E+02  0.7816164E-02  0.1186339E+00
        -11   -1    0    0    0    0  0.00000000000E+00  0.00000000000E+00  0.45593999997E+02  0.45594000000E+02  0.51100000000E-03 0.  1.
         11   -1    0    0    0    0 -0.00000000000E+00 -0.00000000000E+00 -0.45593999997E+02  0.45594000000E+02  0.51100000000E-03 0. -1.
    9900012    2    1    2    0    0  0.93505105401E+00 -0.65160100776E+00 -0.30667542272E+00  0.90007765209E+02  0.90000026910E+02 0.  0.
         12    1    1    2    0    0 -0.93505105401E+00  0.65160100776E+00  0.30667542272E+00  0.11802347910E+01  0.00000000000E+00 0. -1.
         11    1    3    3    0    0  0.30889809137E+02  0.17919240176E+02 -0.70238028847E+01  0.36395237109E+02  0.51100000000E-03 0. -1.
        -11    1    3    3    0    0  0.78506749359E+01  0.27127621418E+01 -0.35442375457E+01  0.90307140044E+01  0.51100000000E-03 0.  1.
        -12    1    3    3    0    0 -0.37805433019E+02 -0.21283603325E+02  0.10261365008E+02  0.44581814096E+02  0.00000000000E+00 0.  1.
</event>
<event>
 7    1  0.1971192E-015  0.9000779E+02  0.7816164E-02  0.1186339E+00
        -11   -1    0    0    0    0  0.00000000000E+00  0.00000000000E+00  0.45593999997E+02  0.45594000000E+02  0.51100000000E-03 0.  1.
         11   -1    0    0    0    0 -0.00000000000E+00 -0.00000000000E+00 -0.45593999997E+02  0.45594000000E+02  0.51100000000E-03 0. -1.
    9900012    2    1    2    0    0  0.11553396721E+01 -0.15807803214E+00 -0.18191073129E+00  0.90007792418E+02  0.90000054478E+02 0.  0.
         12    1    1    2    0    0 -0.11553396721E+01  0.15807803214E+00  0.18191073129E+00  0.11802075819E+01  0.00000000000E+00 0. -1.
         11    1    3    3    0    0  0.95296624314E+00  0.88620065629E+00  0.64787115444E+01  0.66081162066E+01  0.51100000000E-03 0. -1.
        -11    1    3    3    0    0  0.11557677901E+02  0.17636203156E+02  0.32388621017E+02  0.38647617674E+02  0.51100000000E-03 0.  1.
         12    1    3    3    0    0 -0.11355304472E+02 -0.18680481845E+02 -0.39049243293E+02  0.44752058537E+02  0.00000000000E+00 0. -1.
</event>
<event>
 7    1  0.1971192E-015  0.9000776E+02  0.7816164E-02  0.1186339E+00
        -11   -1    0    0    0    0  0.00000000000E+00  0.00000000000E+00  0.45593999997E+02  0.45594000000E+02  0.51100000000E-03 0.  1.
         11   -1    0    0    0    0 -0.00000000000E+00 -0.00000000000E+00 -0.45593999997E+02  0.45594000000E+02  0.51100000000E-03 0. -1.
    9900012    2    1    2    0    0 -0.33141717252E+00  0.11265400753E+01 -0.11844156033E+00  0.90007763462E+02  0.90000025139E+02 0.  0.
         12    1    1    2    0    0  0.33141717252E+00 -0.11265400753E+01  0.11844156033E+00  0.11802365385E+01  0.00000000000E+00 0. -1.
         11    1    3    3    0    0  0.37687079140E+02 -0.74147282117E+00  0.98016200445E+01  0.38947881481E+02  0.51100000000E-03 0. -1.
        -11    1    3    3    0    0 -0.58510840695E+00  0.71479212972E+01  0.66532121500E+01  0.97826562288E+01  0.51100000000E-03 0.  1.
        -12    1    3    3    0    0 -0.37433387906E+02 -0.52799084006E+01 -0.16573273755E+02  0.41277225752E+02  0.00000000000E+00 0.  1.
</event>
<event>
 7    1  0.1971192E-015  0.9000775E+02  0.7816164E-02  0.1186339E+00
        -11   -1    0    0    0    0  0.00000000000E+00  0.00000000000E+00  0.45593999997E+02  0.45594000000E+02  0.51100000000E-03 0.  1.
         11   -1    0    0    0    0 -0.00000000000E+00 -0.00000000000E+00 -0.45593999997E+02  0.45594000000E+02  0.51100000000E-03 0. -1.
    9900012    2    1    2    0    0  0.84079861743E-01 -0.64120014319E+00  0.98731280815E+00  0.90007748490E+02  0.90000009970E+02 0.  0.
         12    1    1    2    0    0 -0.84079861743E-01  0.64120014319E+00 -0.98731280815E+00  0.11802515104E+01  0.00000000000E+00 0. -1.
         11    1    3    3    0    0 -0.92799839279E+01 -0.29384073120E+02 -0.17807829091E+02  0.35590176060E+02  0.51100000000E-03 0. -1.
        -11    1    3    3    0    0 -0.13223877405E+01 -0.97025684165E+01 -0.10566826250E+01  0.98491178105E+01  0.51100000000E-03 0.  1.
        -12    1    3    3    0    0  0.10686451530E+02  0.38445441393E+02  0.19851824524E+02  0.44568454619E+02  0.00000000000E+00 0.  1.
</event>
<event>
 7    1  0.1971192E-015  0.9000773E+02  0.7816164E-02  0.1186339E+00
        -11   -1    0    0    0    0  0.00000000000E+00  0.00000000000E+00  0.45593999997E+02  0.45594000000E+02  0.51100000000E-03 0. -1.
         11   -1    0    0    0    0 -0.00000000000E+00 -0.00000000000E+00 -0.45593999997E+02  0.45594000000E+02  0.51100000000E-03 0.  1.
    9900012    2    1    2    0    0  0.55940148939E+00 -0.10257248627E+01 -0.16732187228E+00  0.90007729637E+02  0.89999990868E+02 0.  0.
         12    1    1    2    0    0 -0.55940148939E+00  0.10257248627E+01  0.16732187228E+00  0.11802703628E+01  0.00000000000E+00 0. -1.
         11    1    3    3    0    0  0.15075113366E+01 -0.62100118495E+01 -0.64881718457E+01  0.91067673607E+01  0.51100000000E-03 0. -1.
        -11    1    3    3    0    0 -0.36303819086E+02  0.15107675155E+02  0.16729006279E+02  0.42732526021E+02  0.51100000000E-03 0.  1.
         12    1    3    3    0    0  0.35355709238E+02 -0.99233881687E+01 -0.10408156306E+02  0.38168436255E+02  0.00000000000E+00 0. -1.
</event>
<event>
 7    1  0.1971192E-015  0.9000773E+02  0.7816164E-02  0.1186339E+00
        -11   -1    0    0    0    0  0.00000000000E+00  0.00000000000E+00  0.45593999997E+02  0.45594000000E+02  0.51100000000E-03 0. -1.
         11   -1    0    0    0    0 -0.00000000000E+00 -0.00000000000E+00 -0.45593999997E+02  0.45594000000E+02  0.51100000000E-03 0.  1.
    9900012    2    1    2    0    0 -0.88667810164E+00  0.71323205247E+00 -0.31325970779E+00  0.90007733225E+02  0.89999994503E+02 0.  0.
         12    1    1    2    0    0  0.88667810164E+00 -0.71323205247E+00  0.31325970779E+00  0.11802667754E+01  0.00000000000E+00 0. -1.
         11    1    3    3    0    0 -0.14661750355E+01  0.74475846217E+01 -0.80597191505E+01  0.11071371143E+02  0.51100000000E-03 0. -1.
        -11    1    3    3    0    0  0.68854611804E+01 -0.79057652038E+01 -0.34576101394E+02  0.36130561676E+02  0.51100000000E-03 0.  1.
         12    1    3    3    0    0 -0.63059642466E+01  0.11714126346E+01  0.42322560837E+02  0.42805800406E+02  0.00000000000E+00 0. -1.
</event>
<event>
 7    1  0.1971192E-015  0.9000747E+02  0.7816164E-02  0.1186340E+00
        -11   -1    0    0    0    0  0.00000000000E+00  0.00000000000E+00  0.45593999997E+02  0.45594000000E+02  0.51100000000E-03 0. -1.
         11   -1    0    0    0    0 -0.00000000000E+00 -0.00000000000E+00 -0.45593999997E+02  0.45594000000E+02  0.51100000000E-03 0.  1.
    9900012    2    1    2    0    0 -0.98639391196E-01  0.62382829253E+00 -0.99737154080E+00  0.90007474075E+02  0.89999731933E+02 0.  0.
         12    1    1    2    0    0  0.98639391196E-01 -0.62382829253E+00  0.99737154080E+00  0.11805259245E+01  0.00000000000E+00 0. -1.
         11    1    3    3    0    0 -0.35713821329E+02  0.15993914972E+01  0.20763087548E+02  0.41341757242E+02  0.51100000000E-03 0. -1.
        -11    1    3    3    0    0  0.58525290998E+01 -0.15451390369E+01  0.55909114535E+01  0.82400147239E+01  0.51100000000E-03 0.  1.
        -12    1    3    3    0    0  0.29762652838E+02  0.56957583225E+00 -0.27351370542E+02  0.40425702110E+02  0.00000000000E+00 0.  1.
</event>
<event>
 7    1  0.1971192E-015  0.9000774E+02  0.7816164E-02  0.1186339E+00
        -11   -1    0    0    0    0  0.00000000000E+00  0.00000000000E+00  0.45593999997E+02  0.45594000000E+02  0.51100000000E-03 0. -1.
         11   -1    0    0    0    0 -0.00000000000E+00 -0.00000000000E+00 -0.45593999997E+02  0.45594000000E+02  0.51100000000E-03 0.  1.
    9900012    2    1    2    0    0  0.29501060438E+00 -0.94456062112E+00 -0.64325569603E+00  0.90007744132E+02  0.90000005554E+02 0.  0.
         12    1    1    2    0    0 -0.29501060438E+00  0.94456062112E+00  0.64325569603E+00  0.11802558681E+01  0.00000000000E+00 0. -1.
         11    1    3    3    0    0  0.74575173779E+01  0.73437497425E+01 -0.39520127678E+00  0.10473844091E+02  0.51100000000E-03 0. -1.
        -11    1    3    3    0    0  0.25049138476E+02  0.11821540599E+02 -0.22354750737E+02  0.35594143357E+02  0.51100000000E-03 0.  1.
         12    1    3    3    0    0 -0.32211645250E+02 -0.20109850962E+02  0.22106696317E+02  0.43939756685E+02  0.00000000000E+00 0. -1.
</event>
<event>
 7    1  0.1971192E-015  0.9000774E+02  0.7816164E-02  0.1186339E+00
        -11   -1    0    0    0    0  0.00000000000E+00  0.00000000000E+00  0.45593999997E+02  0.45594000000E+02  0.51100000000E-03 0.  1.
         11   -1    0    0    0    0 -0.00000000000E+00 -0.00000000000E+00 -0.45593999997E+02  0.45594000000E+02  0.51100000000E-03 0. -1.
    9900012    2    1    2    0    0  0.27859869835E+00  0.11410188764E+01  0.11604686891E+00  0.90007742322E+02  0.90000003721E+02 0.  0.
         12    1    1    2    0    0 -0.27859869835E+00 -0.11410188764E+01 -0.11604686891E+00  0.11802576781E+01  0.00000000000E+00 0. -1.
         11    1    3    3    0    0  0.26170180979E+02 -0.97171920257E+01 -0.23835352688E+02  0.36707304877E+02  0.51100000000E-03 0. -1.
        -11    1    3    3    0    0  0.70989545860E+01 -0.46326250065E+01 -0.18110299725E+01  0.86681140098E+01  0.51100000000E-03 0.  1.
        -12    1    3    3    0    0 -0.32990536867E+02  0.15490835909E+02  0.25762429529E+02  0.44632323435E+02  0.00000000000E+00 0.  1.
</event>
<event>
 7    1  0.1971192E-015  0.9000766E+02  0.7816164E-02  0.1186339E+00
        -11   -1    0    0    0    0  0.00000000000E+00  0.00000000000E+00  0.45593999997E+02  0.45594000000E+02  0.51100000000E-03 0.  1.
         11   -1    0    0    0    0 -0.00000000000E+00 -0.00000000000E+00 -0.45593999997E+02  0.45594000000E+02  0.51100000000E-03 0. -1.
    9900012    2    1    2    0    0 -0.10201222240E+01 -0.29032383374E+00  0.51793225423E+00  0.90007664836E+02  0.89999925211E+02 0.  0.
         12    1    1    2    0    0  0.10201222240E+01  0.29032383374E+00 -0.51793225423E+00  0.11803351644E+01  0.00000000000E+00 0. -1.
         11    1    3    3    0    0 -0.85741648748E+01  0.23581914758E+02 -0.26748968755E+02  0.36676018550E+02  0.51100000000E-03 0. -1.
        -11    1    3    3    0    0 -0.76341861355E+01  0.45969770905E+01 -0.26834201092E+01  0.93066503140E+01  0.51100000000E-03 0.  1.
        -12    1    3    3    0    0  0.15188228786E+02 -0.28469215682E+02  0.29950321119E+02  0.44024995972E+02  0.00000000000E+00 0.  1.
</event>
<event>
 7    1  0.2720556E-015  0.9000775E+02  0.7816164E-02  0.1186339E+00
        -11   -1    0    0    0    0  0.00000000000E+00  0.00000000000E+00  0.45593999997E+02  0.45594000000E+02  0.51100000000E-03 0. -1.
         11   -1    0    0    0    0 -0.00000000000E+00 -0.00000000000E+00 -0.45593999997E+02  0.45594000000E+02  0.51100000000E-03 0.  1.
    9900012    2    1    2    0    0 -0.61290484774E+00  0.76511952539E+00 -0.65721302022E+00  0.90007750368E+02  0.90000011873E+02 0.  0.
         12    1    1    2    0    0  0.61290484774E+00 -0.76511952539E+00  0.65721302022E+00  0.11802496323E+01  0.00000000000E+00 0. -1.
         11    1    3    3    0    0  0.23196496212E+02 -0.27502109392E+02  0.16656968920E+02  0.39647169778E+02  0.51100000000E-03 0. -1.
        -11    1    3    3    0    0 -0.65303146620E+01 -0.70147207490E+00  0.63667293092E+01  0.91472572399E+01  0.51100000000E-03 0.  1.
        -12    1    3    3    0    0 -0.17279086397E+02  0.28968700993E+02 -0.23680911250E+02  0.41213323350E+02  0.00000000000E+00 0.  1.
</event>
<event>
 7    1  0.1971192E-015  0.9000765E+02  0.7816164E-02  0.1186339E+00
        -11   -1    0    0    0    0  0.00000000000E+00  0.00000000000E+00  0.45593999997E+02  0.45594000000E+02  0.51100000000E-03 0.  1.
         11   -1    0    0    0    0 -0.00000000000E+00 -0.00000000000E+00 -0.45593999997E+02  0.45594000000E+02  0.51100000000E-03 0. -1.
    9900012    2    1    2    0    0 -0.11085502275E+01  0.40030026303E+00 -0.64111258769E-01  0.90007646595E+02  0.89999906730E+02 0.  0.
         12    1    1    2    0    0  0.11085502275E+01 -0.40030026303E+00  0.64111258769E-01  0.11803534051E+01  0.00000000000E+00 0. -1.
         11    1    3    3    0    0  0.62251001556E+01  0.10178756981E+02 -0.45227020189E+01  0.12759851074E+02  0.51100000000E-03 0. -1.
        -11    1    3    3    0    0  0.23712154318E+02 -0.27142297171E+02  0.16574024109E+02  0.39669495000E+02  0.51100000000E-03 0.  1.
         12    1    3    3    0    0 -0.31045804701E+02  0.17363840453E+02 -0.12115433349E+02  0.37578300521E+02  0.00000000000E+00 0. -1.
</event>
<event>
 7    1  0.1971192E-015  0.9000774E+02  0.7816164E-02  0.1186339E+00
        -11   -1    0    0    0    0  0.00000000000E+00  0.00000000000E+00  0.45593999997E+02  0.45594000000E+02  0.51100000000E-03 0.  1.
         11   -1    0    0    0    0 -0.00000000000E+00 -0.00000000000E+00 -0.45593999997E+02  0.45594000000E+02  0.51100000000E-03 0. -1.
    9900012    2    1    2    0    0  0.36664771479E+00  0.79561887025E+00 -0.79093639628E+00  0.90007737183E+02  0.89999998514E+02 0.  0.
         12    1    1    2    0    0 -0.36664771479E+00 -0.79561887025E+00  0.79093639628E+00  0.11802628167E+01  0.00000000000E+00 0. -1.
         11    1    3    3    0    0  0.23851447042E+01 -0.80731681018E+01 -0.52251661455E+01  0.99079422672E+01  0.51100000000E-03 0. -1.
        -11    1    3    3    0    0 -0.33466292031E+02  0.69897442639E+01  0.25108479602E+02  0.42417979388E+02  0.51100000000E-03 0.  1.
         12    1    3    3    0    0  0.31447795042E+02  0.18790427082E+01 -0.20674249853E+02  0.37681815528E+02  0.00000000000E+00 0. -1.
</event>
<event>
 7    1  0.1971192E-015  0.9000772E+02  0.7816164E-02  0.1186339E+00
        -11   -1    0    0    0    0  0.00000000000E+00  0.00000000000E+00  0.45593999997E+02  0.45594000000E+02  0.51100000000E-03 0. -1.
         11   -1    0    0    0    0 -0.00000000000E+00 -0.00000000000E+00 -0.45593999997E+02  0.45594000000E+02  0.51100000000E-03 0.  1.
    9900012    2    1    2    0    0 -0.51240155154E+00  0.11882973327E+00 -0.10565899007E+01  0.90007721188E+02  0.89999982308E+02 0.  0.
         12    1    1    2    0    0  0.51240155154E+00 -0.11882973327E+00  0.10565899007E+01  0.11802788119E+01  0.00000000000E+00 0. -1.
         11    1    3    3    0    0 -0.21073448450E+02  0.33024486156E+02 -0.15026709226E+02  0.41958418772E+02  0.51100000000E-03 0. -1.
        -11    1    3    3    0    0 -0.29487531059E+01 -0.41644361122E+01  0.93227164078E+01  0.10627827365E+02  0.51100000000E-03 0.  1.
        -12    1    3    3    0    0  0.23509800004E+02 -0.28741220310E+02  0.46474029178E+01  0.37421475051E+02  0.00000000000E+00 0.  1.
</event>
<event>
 7    1  0.1971192E-015  0.9000777E+02  0.7816164E-02  0.1186339E+00
        -11   -1    0    0    0    0  0.00000000000E+00  0.00000000000E+00  0.45593999997E+02  0.45594000000E+02  0.51100000000E-03 0. -1.
         11   -1    0    0    0    0 -0.00000000000E+00 -0.00000000000E+00 -0.45593999997E+02  0.45594000000E+02  0.51100000000E-03 0.  1.
    9900012    2    1    2    0    0 -0.55216089050E+00  0.61220753767E+00 -0.84455313777E+00  0.90007767090E+02  0.90000028816E+02 0.  0.
         12    1    1    2    0    0  0.55216089050E+00 -0.61220753767E+00  0.84455313777E+00  0.11802329095E+01  0.00000000000E+00 0. -1.
         11    1    3    3    0    0 -0.12102140852E+02  0.26517772954E+02  0.19386512744E+02  0.35007013187E+02  0.51100000000E-03 0. -1.
        -11    1    3    3    0    0 -0.13141852035E+01  0.91270607661E+01  0.44693169496E+01  0.10247200361E+02  0.51100000000E-03 0.  1.
        -12    1    3    3    0    0  0.12864165165E+02 -0.35032626182E+02 -0.24700382832E+02  0.44753553542E+02  0.00000000000E+00 0.  1.
</event>
<event>
 7    1  0.1971192E-015  0.9000772E+02  0.7816164E-02  0.1186339E+00
        -11   -1    0    0    0    0  0.00000000000E+00  0.00000000000E+00  0.45593999997E+02  0.45594000000E+02  0.51100000000E-03 0. -1.
         11   -1    0    0    0    0 -0.00000000000E+00 -0.00000000000E+00 -0.45593999997E+02  0.45594000000E+02  0.51100000000E-03 0.  1.
    9900012    2    1    2    0    0  0.17634698443E+00  0.21960605026E+00 -0.11461859327E+01  0.90007717293E+02  0.89999978361E+02 0.  0.
         12    1    1    2    0    0 -0.17634698443E+00 -0.21960605026E+00  0.11461859327E+01  0.11802827071E+01  0.00000000000E+00 0. -1.
         11    1    3    3    0    0 -0.29070200846E+02  0.88051747609E+01 -0.12258360862E+01  0.30399183446E+02  0.51100000000E-03 0. -1.
        -11    1    3    3    0    0 -0.30711023196E+01  0.15219313074E+02 -0.96852376733E+01  0.18299261979E+02  0.51100000000E-03 0.  1.
        -12    1    3    3    0    0  0.32317650150E+02 -0.23804881785E+02  0.97648878268E+01  0.41309271868E+02  0.00000000000E+00 0.  1.
</event>
<event>
 7    1  0.1971192E-015  0.9000773E+02  0.7816164E-02  0.1186339E+00
        -11   -1    0    0    0    0  0.00000000000E+00  0.00000000000E+00  0.45593999997E+02  0.45594000000E+02  0.51100000000E-03 0.  1.
         11   -1    0    0    0    0 -0.00000000000E+00 -0.00000000000E+00 -0.45593999997E+02  0.45594000000E+02  0.51100000000E-03 0. -1.
    9900012    2    1    2    0    0  0.19300207610E+00  0.38736515371E+00  0.10980575940E+01  0.90007732215E+02  0.89999993481E+02 0.  0.
         12    1    1    2    0    0 -0.19300207610E+00 -0.38736515371E+00 -0.10980575940E+01  0.11802677846E+01  0.00000000000E+00 0. -1.
         11    1    3    3    0    0 -0.15282099819E+02  0.53899234791E+01  0.43716164866E+01  0.16784066282E+02  0.51100000000E-03 0. -1.
        -11    1    3    3    0    0 -0.28156541094E+02  0.42221923191E+01  0.42389467111E+00  0.28474504409E+02  0.51100000000E-03 0.  1.
         12    1    3    3    0    0  0.43631642989E+02 -0.92247506445E+01 -0.36974535637E+01  0.44749161525E+02  0.00000000000E+00 0. -1.
</event>
<event>
 7    1  0.1971192E-015  0.9000785E+02  0.7816164E-02  0.1186339E+00
        -11   -1    0    0    0    0  0.00000000000E+00  0.00000000000E+00  0.45593999997E+02  0.45594000000E+02  0.51100000000E-03 0. -1.
         11   -1    0    0    0    0 -0.00000000000E+00 -0.00000000000E+00 -0.45593999997E+02  0.45594000000E+02  0.51100000000E-03 0.  1.
    9900012    2    1    2    0    0  0.61212779430E+00 -0.17455135338E+00 -0.99377018995E+00  0.90007852635E+02  0.90000115490E+02 0.  0.
         12    1    1    2    0    0 -0.61212779430E+00  0.17455135338E+00  0.99377018995E+00  0.11801473645E+01  0.00000000000E+00 0. -1.
         11    1    3    3    0    0  0.27790856635E+01 -0.68960452551E+01 -0.58113431944E+01  0.94366555129E+01  0.51100000000E-03 0. -1.
        -11    1    3    3    0    0  0.33569281405E+00 -0.36814896868E+02  0.25122443038E+01  0.36902041851E+02  0.51100000000E-03 0.  1.
         12    1    3    3    0    0 -0.25026506832E+01  0.43536390770E+02  0.23053287006E+01  0.43669155271E+02  0.00000000000E+00 0. -1.
</event>
<event>
 7    1  0.1971192E-015  0.9000778E+02  0.7816164E-02  0.1186339E+00
        -11   -1    0    0    0    0  0.00000000000E+00  0.00000000000E+00  0.45593999997E+02  0.45594000000E+02  0.51100000000E-03 0.  1.
         11   -1    0    0    0    0 -0.00000000000E+00 -0.00000000000E+00 -0.45593999997E+02  0.45594000000E+02  0.51100000000E-03 0. -1.
    9900012    2    1    2    0    0  0.13780506046E+00 -0.69063523281E-01  0.11701146559E+01  0.90007776160E+02  0.90000038005E+02 0.  0.
         12    1    1    2    0    0 -0.13780506046E+00  0.69063523281E-01 -0.11701146559E+01  0.11802238402E+01  0.00000000000E+00 0. -1.
         11    1    3    3    0    0  0.40383490177E+01  0.71923493411E+01 -0.17820313122E+01  0.84388262034E+01  0.51100000000E-03 0. -1.
        -11    1    3    3    0    0 -0.15163994700E+02  0.31878330988E+02  0.16061004357E+02  0.38783122400E+02  0.51100000000E-03 0.  1.
         12    1    3    3    0    0  0.11263450743E+02 -0.39139743853E+02 -0.13108858389E+02  0.42785827557E+02  0.00000000000E+00 0. -1.
</event>
<event>
 7    1  0.1971192E-015  0.9000773E+02  0.7816164E-02  0.1186339E+00
        -11   -1    0    0    0    0  0.00000000000E+00  0.00000000000E+00  0.45593999997E+02  0.45594000000E+02  0.51100000000E-03 0.  1.
         11   -1    0    0    0    0 -0.00000000000E+00 -0.00000000000E+00 -0.45593999997E+02  0.45594000000E+02  0.51100000000E-03 0. -1.
    9900012    2    1    2    0    0 -0.11439312735E+01 -0.27515408464E+00  0.93589197495E-01  0.90007725682E+02  0.89999986861E+02 0.  0.
         12    1    1    2    0    0  0.11439312735E+01  0.27515408464E+00 -0.93589197495E-01  0.11802743184E+01  0.00000000000E+00 0. -1.
         11    1    3    3    0    0 -0.35680822597E+02 -0.79435329816E+01  0.12012651345E+02  0.38477585814E+02  0.51100000000E-03 0. -1.
        -11    1    3    3    0    0  0.10944636339E+01 -0.26558946503E+01  0.98851779663E+01  0.10294093973E+02  0.51100000000E-03 0.  1.
        -12    1    3    3    0    0  0.33442427690E+02  0.10324273547E+02 -0.21804240114E+02  0.41236045895E+02  0.00000000000E+00 0.  1.
</event>
<event>
 7    1  0.1971192E-015  0.9000773E+02  0.7816164E-02  0.1186339E+00
        -11   -1    0    0    0    0  0.00000000000E+00  0.00000000000E+00  0.45593999997E+02  0.45594000000E+02  0.51100000000E-03 0. -1.
         11   -1    0    0    0    0 -0.00000000000E+00 -0.00000000000E+00 -0.45593999997E+02  0.45594000000E+02  0.51100000000E-03 0.  1.
    9900012    2    1    2    0    0  0.50162616623E+00 -0.10346417101E+01  0.26633712870E+00  0.90007725564E+02  0.89999986741E+02 0.  0.
         12    1    1    2    0    0 -0.50162616623E+00  0.10346417101E+01 -0.26633712870E+00  0.11802744364E+01  0.00000000000E+00 0. -1.
         11    1    3    3    0    0  0.31666425815E+02 -0.12438767153E+02  0.25568434226E+02  0.42558551211E+02  0.51100000000E-03 0. -1.
        -11    1    3    3    0    0 -0.77526103702E+01  0.85239806464E+01  0.16417795687E+01  0.11638584709E+02  0.51100000000E-03 0.  1.
        -12    1    3    3    0    0 -0.23412189278E+02  0.28801447961E+01 -0.26943876666E+02  0.35810589644E+02  0.00000000000E+00 0.  1.
</event>
<event>
 7    1  0.4129209E-015  0.9000776E+02  0.7816164E-02  0.1186339E+00
        -11   -1    0    0    0    0  0.00000000000E+00  0.00000000000E+00  0.45593999997E+02  0.45594000000E+02  0.51100000000E-03 0. -1.
         11   -1    0    0    0    0 -0.00000000000E+00 -0.00000000000E+00 -0.45593999997E+02  0.45594000000E+02  0.51100000000E-03 0.  1.
    9900012    2    1    2    0    0 -0.15056771029E+00 -0.24012586335E+00 -0.11456996421E+01  0.90007763271E+02  0.90000024947E+02 0.  0.
         12    1    1    2    0    0  0.15056771029E+00  0.24012586335E+00  0.11456996421E+01  0.11802367286E+01  0.00000000000E+00 0. -1.
         11    1    3    3    0    0 -0.95485221118E+01 -0.13459363391E+02  0.36857453646E+02  0.40383172572E+02  0.51100000000E-03 0. -1.
        -11    1    3    3    0    0  0.23418428003E+01  0.90295146025E+01  0.13495433176E+01  0.94253715622E+01  0.51100000000E-03 0.  1.
        -12    1    3    3    0    0  0.70561116012E+01  0.41897229253E+01 -0.39352696606E+02  0.40199219138E+02  0.00000000000E+00 0.  1.
</event>
<event>
 7    1  0.1971192E-015  0.9000780E+02  0.7816164E-02  0.1186339E+00
        -11   -1    0    0    0    0  0.00000000000E+00  0.00000000000E+00  0.45593999997E+02  0.45594000000E+02  0.51100000000E-03 0.  1.
         11   -1    0    0    0    0 -0.00000000000E+00 -0.00000000000E+00 -0.45593999997E+02  0.45594000000E+02  0.51100000000E-03 0. -1.
    9900012    2    1    2    0    0 -0.24325123258E+00  0.66250914257E+00  0.94593039529E+00  0.90007799238E+02  0.90000061388E+02 0.  0.
         12    1    1    2    0    0  0.24325123258E+00 -0.66250914257E+00 -0.94593039529E+00  0.11802007621E+01  0.00000000000E+00 0. -1.
         11    1    3    3    0    0  0.64350009575E-01 -0.34828645567E+02 -0.19631802247E+02  0.39980574692E+02  0.51100000000E-03 0. -1.
        -11    1    3    3    0    0  0.34374905122E+01  0.46529794895E+01 -0.65826066329E+01  0.87634051313E+01  0.51100000000E-03 0.  1.
        -12    1    3    3    0    0 -0.37450917543E+01  0.30838175220E+02  0.27160339276E+02  0.41263819415E+02  0.00000000000E+00 0.  1.
</event>
<event>
 7    1  0.1971192E-015  0.9000773E+02  0.7816164E-02  0.1186339E+00
        -11   -1    0    0    0    0  0.00000000000E+00  0.00000000000E+00  0.45593999997E+02  0.45594000000E+02  0.51100000000E-03 0.  1.
         11   -1    0    0    0    0 -0.00000000000E+00 -0.00000000000E+00 -0.45593999997E+02  0.45594000000E+02  0.51100000000E-03 0. -1.
    9900012    2    1    2    0    0  0.89416279095E+00  0.72098966473E+00 -0.27143058265E+00  0.90007734032E+02  0.89999995322E+02 0.  0.
         12    1    1    2    0    0 -0.89416279095E+00 -0.72098966473E+00  0.27143058265E+00  0.11802659677E+01  0.00000000000E+00 0. -1.
         11    1    3    3    0    0  0.21954652913E+02 -0.87198504935E+00 -0.29804823601E+02  0.37028295297E+02  0.51100000000E-03 0. -1.
        -11    1    3    3    0    0  0.24936504713E+01  0.53500514068E+01 -0.71200421923E+01  0.92485860438E+01  0.51100000000E-03 0.  1.
        -12    1    3    3    0    0 -0.23554140593E+02 -0.37570766928E+01  0.36653435211E+02  0.43730852691E+02  0.00000000000E+00 0.  1.
</event>
<event>
 7    1  0.1971192E-015  0.9000776E+02  0.7816164E-02  0.1186339E+00
        -11   -1    0    0    0    0  0.00000000000E+00  0.00000000000E+00  0.45593999997E+02  0.45594000000E+02  0.51100000000E-03 0.  1.
         11   -1    0    0    0    0 -0.00000000000E+00 -0.00000000000E+00 -0.45593999997E+02  0.45594000000E+02  0.51100000000E-03 0. -1.
    9900012    2    1    2    0    0  0.10487443144E+00 -0.79791401814E+00  0.86331187698E+00  0.90007757303E+02  0.90000018899E+02 0.  0.
         12    1    1    2    0    0 -0.10487443144E+00  0.79791401814E+00 -0.86331187698E+00  0.11802426969E+01  0.00000000000E+00 0. -1.
         11    1    3    3    0    0 -0.74969742549E+01  0.16775188875E+01  0.71923195774E+01  0.10523694872E+02  0.51100000000E-03 0. -1.
        -11    1    3    3    0    0 -0.91808887215E+01  0.23558527255E+02  0.24908801783E+02  0.35492834920E+02  0.51100000000E-03 0.  1.
         12    1    3    3    0    0  0.16782737408E+02 -0.26033960161E+02 -0.31237809484E+02  0.43991227511E+02  0.00000000000E+00 0. -1.
</event>
<event>
 7    1  0.1971192E-015  0.9000759E+02  0.7816164E-02  0.1186339E+00
        -11   -1    0    0    0    0  0.00000000000E+00  0.00000000000E+00  0.45593999997E+02  0.45594000000E+02  0.51100000000E-03 0.  1.
         11   -1    0    0    0    0 -0.00000000000E+00 -0.00000000000E+00 -0.45593999997E+02  0.45594000000E+02  0.51100000000E-03 0. -1.
    9900012    2    1    2    0    0  0.50511875653E+00 -0.10317071947E+01 -0.27167379691E+00  0.90007588485E+02  0.89999847852E+02 0.  0.
         12    1    1    2    0    0 -0.50511875653E+00  0.10317071947E+01  0.27167379691E+00  0.11804115154E+01  0.00000000000E+00 0. -1.
         11    1    3    3    0    0 -0.29167956641E+01  0.60480787001E+01 -0.64047922961E+01  0.92794567474E+01  0.51100000000E-03 0. -1.
        -11    1    3    3    0    0  0.38636443009E+02 -0.16668359441E+02 -0.54672108896E+01  0.42432291124E+02  0.51100000000E-03 0.  1.
         12    1    3    3    0    0 -0.35214528589E+02  0.95885735459E+01  0.11600329389E+02  0.38295840613E+02  0.00000000000E+00 0. -1.
</event>
<event>
 7    1  0.1971192E-015  0.9000781E+02  0.7816164E-02  0.1186339E+00
        -11   -1    0    0    0    0  0.00000000000E+00  0.00000000000E+00  0.45593999997E+02  0.45594000000E+02  0.51100000000E-03 0.  1.
         11   -1    0    0    0    0 -0.00000000000E+00 -0.00000000000E+00 -0.45593999997E+02  0.45594000000E+02  0.51100000000E-03 0. -1.
    9900012    2    1    2    0    0  0.77429345429E+00  0.51892797886E-01  0.88916923145E+00  0.90007811397E+02  0.90000073708E+02 0.  0.
         12    1    1    2    0    0 -0.77429345429E+00 -0.51892797886E-01 -0.88916923145E+00  0.11801886027E+01  0.00000000000E+00 0. -1.
         11    1    3    3    0    0 -0.62762744480E+01  0.32751478013E+01 -0.37120673992E+02  0.37789716219E+02  0.51100000000E-03 0. -1.
        -11    1    3    3    0    0  0.10762278835E+02  0.80257902712E+00 -0.27136541663E+01  0.11128103972E+02  0.51100000000E-03 0.  1.
        -12    1    3    3    0    0 -0.37117109329E+01 -0.40258340305E+01  0.40723497389E+02  0.41089991206E+02  0.00000000000E+00 0.  1.
</event>
<event>
 7    1  0.1971192E-015  0.9000772E+02  0.7816164E-02  0.1186339E+00
        -11   -1    0    0    0    0  0.00000000000E+00  0.00000000000E+00  0.45593999997E+02  0.45594000000E+02  0.51100000000E-03 0.  1.
         11   -1    0    0    0    0 -0.00000000000E+00 -0.00000000000E+00 -0.45593999997E+02  0.45594000000E+02  0.51100000000E-03 0. -1.
    9900012    2    1    2    0    0 -0.51539626662E+00 -0.28095133984E+00  0.10239578586E+01  0.90007721786E+02  0.89999982913E+02 0.  0.
         12    1    1    2    0    0  0.51539626662E+00  0.28095133984E+00 -0.10239578586E+01  0.11802782143E+01  0.00000000000E+00 0. -1.
         11    1    3    3    0    0 -0.14208074691E+02  0.31057421800E+02  0.38951986219E+01  0.34374487747E+02  0.51100000000E-03 0. -1.
        -11    1    3    3    0    0 -0.11417671609E+02  0.40242314241E+01  0.61984161949E+00  0.12121958069E+02  0.51100000000E-03 0.  1.
        -12    1    3    3    0    0  0.25110350034E+02 -0.35362604564E+02 -0.34910823828E+01  0.43511275970E+02  0.00000000000E+00 0.  1.
</event>
<event>
 7    1  0.1971192E-015  0.9000771E+02  0.7816164E-02  0.1186339E+00
        -11   -1    0    0    0    0  0.00000000000E+00  0.00000000000E+00  0.45593999997E+02  0.45594000000E+02  0.51100000000E-03 0. -1.
         11   -1    0    0    0    0 -0.00000000000E+00 -0.00000000000E+00 -0.45593999997E+02  0.45594000000E+02  0.51100000000E-03 0.  1.
    9900012    2    1    2    0    0  0.51864365931E+00 -0.24549663918E+00 -0.10314161006E+01  0.90007712316E+02  0.89999973318E+02 0.  0.
         12    1    1    2    0    0 -0.51864365931E+00  0.24549663918E+00  0.10314161006E+01  0.11802876843E+01  0.00000000000E+00 0. -1.
         11    1    3    3    0    0  0.37284676619E+02  0.64199267671E+01  0.16379158184E+02  0.41226683026E+02  0.51100000000E-03 0. -1.
        -11    1    3    3    0    0 -0.54929903359E+01  0.40337130257E+01  0.53379098022E+01  0.86566197168E+01  0.51100000000E-03 0.  1.
        -12    1    3    3    0    0 -0.31273042624E+02 -0.10699136432E+02 -0.22748484086E+02  0.40124409573E+02  0.00000000000E+00 0.  1.
</event>
<event>
 7    1  0.1971192E-015  0.9000769E+02  0.7816164E-02  0.1186339E+00
        -11   -1    0    0    0    0  0.00000000000E+00  0.00000000000E+00  0.45593999997E+02  0.45594000000E+02  0.51100000000E-03 0.  1.
         11   -1    0    0    0    0 -0.00000000000E+00 -0.00000000000E+00 -0.45593999997E+02  0.45594000000E+02  0.51100000000E-03 0. -1.
    9900012    2    1    2    0    0  0.78871893259E+00  0.82135451660E+00  0.31053571499E+00  0.90007689352E+02  0.89999950051E+02 0.  0.
         12    1    1    2    0    0 -0.78871893259E+00 -0.82135451660E+00 -0.31053571499E+00  0.11803106484E+01  0.00000000000E+00 0. -1.
         11    1    3    3    0    0 -0.13011190330E+00 -0.66711180224E+01 -0.21785808138E+00  0.66759424189E+01  0.51100000000E-03 0. -1.
        -11    1    3    3    0    0 -0.10559345802E+01 -0.35652283114E+02 -0.13169749860E+02  0.38021607025E+02  0.51100000000E-03 0.  1.
         12    1    3    3    0    0  0.19747654161E+01  0.43144755653E+02  0.13698143656E+02  0.45310139908E+02  0.00000000000E+00 0. -1.
</event>
<event>
 7    1  0.1971192E-015  0.9000777E+02  0.7816164E-02  0.1186339E+00
        -11   -1    0    0    0    0  0.00000000000E+00  0.00000000000E+00  0.45593999997E+02  0.45594000000E+02  0.51100000000E-03 0.  1.
         11   -1    0    0    0    0 -0.00000000000E+00 -0.00000000000E+00 -0.45593999997E+02  0.45594000000E+02  0.51100000000E-03 0. -1.
    9900012    2    1    2    0    0  0.10550233349E+00  0.10366621481E+01  0.55420120524E+00  0.90007772002E+02  0.90000033792E+02 0.  0.
         12    1    1    2    0    0 -0.10550233349E+00 -0.10366621481E+01 -0.55420120524E+00  0.11802279981E+01  0.00000000000E+00 0. -1.
         11    1    3    3    0    0  0.84512197358E+01  0.16365413727E+01  0.11835837203E+01  0.86892032644E+01  0.51100000000E-03 0. -1.
        -11    1    3    3    0    0  0.35808211698E+02 -0.42695957728E+01  0.58757378440E+01  0.36537402323E+02  0.51100000000E-03 0.  1.
         12    1    3    3    0    0 -0.44153929100E+02  0.36697165482E+01 -0.65051203591E+01  0.44781166414E+02  0.00000000000E+00 0. -1.
</event>
<event>
 7    1  0.1971192E-015  0.9000770E+02  0.7816164E-02  0.1186339E+00
        -11   -1    0    0    0    0  0.00000000000E+00  0.00000000000E+00  0.45593999997E+02  0.45594000000E+02  0.51100000000E-03 0. -1.
         11   -1    0    0    0    0 -0.00000000000E+00 -0.00000000000E+00 -0.45593999997E+02  0.45594000000E+02  0.51100000000E-03 0.  1.
    9900012    2    1    2    0    0  0.11642241394E+00  0.21485353505E+00 -0.11547308257E+01  0.90007695167E+02  0.89999955943E+02 0.  0.
         12    1    1    2    0    0 -0.11642241394E+00 -0.21485353505E+00  0.11547308257E+01  0.11803048334E+01  0.00000000000E+00 0. -1.
         11    1    3    3    0    0 -0.27861748550E+02 -0.20030676997E+02  0.91901517386E+01  0.35524131833E+02  0.51100000000E-03 0. -1.
        -11    1    3    3    0    0 -0.91852368253E+01 -0.27279719641E+01  0.12203279885E-01  0.95817824936E+01  0.51100000000E-03 0.  1.
        -12    1    3    3    0    0  0.37163407789E+02  0.22973502496E+02 -0.10357085844E+02  0.44901780840E+02  0.00000000000E+00 0.  1.
</event>
<event>
 7    1  0.1971192E-015  0.9000762E+02  0.7816164E-02  0.1186339E+00
        -11   -1    0    0    0    0  0.00000000000E+00  0.00000000000E+00  0.45593999997E+02  0.45594000000E+02  0.51100000000E-03 0. -1.
         11   -1    0    0    0    0 -0.00000000000E+00 -0.00000000000E+00 -0.45593999997E+02  0.45594000000E+02  0.51100000000E-03 0.  1.
    9900012    2    1    2    0    0  0.57373386392E+00 -0.10287534807E+01  0.76134991324E-01  0.90007618364E+02  0.89999878126E+02 0.  0.
         12    1    1    2    0    0 -0.57373386392E+00  0.10287534807E+01 -0.76134991324E-01  0.11803816364E+01  0.00000000000E+00 0. -1.
         11    1    3    3    0    0 -0.33495838226E+01  0.36187848929E+01  0.79158155776E+01  0.93260630711E+01  0.51100000000E-03 0. -1.
        -11    1    3    3    0    0 -0.14428145874E+02  0.24548679535E+02  0.21279135762E+02  0.35547301998E+02  0.51100000000E-03 0.  1.
         12    1    3    3    0    0  0.18351463561E+02 -0.29196217908E+02 -0.29118816348E+02  0.45134253295E+02  0.00000000000E+00 0. -1.
</event>
<event>
 7    1  0.1971192E-015  0.9000771E+02  0.7816164E-02  0.1186339E+00
        -11   -1    0    0    0    0  0.00000000000E+00  0.00000000000E+00  0.45593999997E+02  0.45594000000E+02  0.51100000000E-03 0.  1.
         11   -1    0    0    0    0 -0.00000000000E+00 -0.00000000000E+00 -0.45593999997E+02  0.45594000000E+02  0.51100000000E-03 0. -1.
    9900012    2    1    2    0    0 -0.19263205864E+00  0.25611322456E+00  0.11359517816E+01  0.90007708704E+02  0.89999969659E+02 0.  0.
         12    1    1    2    0    0  0.19263205864E+00 -0.25611322456E+00 -0.11359517816E+01  0.11802912962E+01  0.00000000000E+00 0. -1.
         11    1    3    3    0    0 -0.12911039612E+02 -0.66145580023E+01 -0.40437164880E+02  0.42960582226E+02  0.51100000000E-03 0. -1.
        -11    1    3    3    0    0  0.28211372280E+01  0.90203977041E+01  0.94500325629E+01  0.13365234966E+02  0.51100000000E-03 0.  1.
        -12    1    3    3    0    0  0.98972703249E+01 -0.21497264772E+01  0.32123084098E+02  0.33681891512E+02  0.00000000000E+00 0.  1.
</event>
<event>
 7    1  0.1971192E-015  0.9000781E+02  0.7816164E-02  0.1186339E+00
        -11   -1    0    0    0    0  0.00000000000E+00  0.00000000000E+00  0.45593999997E+02  0.45594000000E+02  0.51100000000E-03 0. -1.
         11   -1    0    0    0    0 -0.00000000000E+00 -0.00000000000E+00 -0.45593999997E+02  0.45594000000E+02  0.51100000000E-03 0.  1.
    9900012    2    1    2    0    0  0.49806826440E+00  0.96296855048E+00 -0.46634479408E+00  0.90007805994E+02  0.90000068233E+02 0.  0.
         12    1    1    2    0    0 -0.49806826440E+00 -0.96296855048E+00  0.46634479408E+00  0.11801940062E+01  0.00000000000E+00 0. -1.
         11    1    3    3    0    0 -0.40378548712E+02  0.84377521754E+01 -0.34769424942E+01  0.41397004568E+02  0.51100000000E-03 0. -1.
        -11    1    3    3    0    0  0.45066220777E+01  0.67618834972E+01  0.49333967407E+01  0.95063723177E+01  0.51100000000E-03 0.  1.
        -12    1    3    3    0    0  0.36369994899E+02 -0.14236667122E+02 -0.19227990405E+01  0.39104429108E+02  0.00000000000E+00 0.  1.
</event>
<event>
 7    1  0.1971192E-015  0.9000772E+02  0.7816164E-02  0.1186339E+00
        -11   -1    0    0    0    0  0.00000000000E+00  0.00000000000E+00  0.45593999997E+02  0.45594000000E+02  0.51100000000E-03 0. -1.
         11   -1    0    0    0    0 -0.00000000000E+00 -0.00000000000E+00 -0.45593999997E+02  0.45594000000E+02  0.51100000000E-03 0.  1.
    9900012    2    1    2    0    0 -0.93929883900E+00  0.12395352033E+00 -0.70385033079E+00  0.90007723731E+02  0.89999984884E+02 0.  0.
         12    1    1    2    0    0  0.93929883900E+00 -0.12395352033E+00  0.70385033079E+00  0.11802762695E+01  0.00000000000E+00 0. -1.
         11    1    3    3    0    0 -0.12096045515E+02 -0.33890237410E+02  0.10732586424E+02  0.37550644740E+02  0.51100000000E-03 0. -1.
        -11    1    3    3    0    0 -0.33500296783E+00  0.12101672712E+01  0.11009545503E+02  0.11080921634E+02  0.51100000000E-03 0.  1.
        -12    1    3    3    0    0  0.11491749644E+02  0.32804023659E+02 -0.22445982258E+02  0.41376157357E+02  0.00000000000E+00 0.  1.
</event>
<event>
 7    1  0.1971192E-015  0.9000805E+02  0.7816164E-02  0.1186338E+00
        -11   -1    0    0    0    0  0.00000000000E+00  0.00000000000E+00  0.45593999997E+02  0.45594000000E+02  0.51100000000E-03 0.  1.
         11   -1    0    0    0    0 -0.00000000000E+00 -0.00000000000E+00 -0.45593999997E+02  0.45594000000E+02  0.51100000000E-03 0. -1.
    9900012    2    1    2    0    0 -0.47465537663E+00  0.88919653226E+00  0.61344185585E+00  0.90008051226E+02  0.90000316701E+02 0.  0.
         12    1    1    2    0    0  0.47465537663E+00 -0.88919653226E+00 -0.61344185585E+00  0.11799487743E+01  0.00000000000E+00 0. -1.
         11    1    3    3    0    0 -0.81075461946E+01  0.32730404675E+02 -0.54059842646E+01  0.34150202951E+02  0.51100000000E-03 0. -1.
        -11    1    3    3    0    0 -0.94192536244E+01  0.76314745561E+01  0.41689132032E+01  0.12819578008E+02  0.51100000000E-03 0.  1.
        -12    1    3    3    0    0  0.17052144442E+02 -0.39472682699E+02  0.18505129172E+01  0.43038270267E+02  0.00000000000E+00 0.  1.
</event>
<event>
 7    1  0.1971192E-015  0.9000771E+02  0.7816164E-02  0.1186339E+00
        -11   -1    0    0    0    0  0.00000000000E+00  0.00000000000E+00  0.45593999997E+02  0.45594000000E+02  0.51100000000E-03 0.  1.
         11   -1    0    0    0    0 -0.00000000000E+00 -0.00000000000E+00 -0.45593999997E+02  0.45594000000E+02  0.51100000000E-03 0. -1.
    9900012    2    1    2    0    0 -0.22359826303E+00  0.84534063869E+00  0.79277508107E+00  0.90007707957E+02  0.89999968902E+02 0.  0.
         12    1    1    2    0    0  0.22359826303E+00 -0.84534063869E+00 -0.79277508107E+00  0.11802920434E+01  0.00000000000E+00 0. -1.
         11    1    3    3    0    0  0.74012344498E+01  0.28196694136E+01 -0.46067377985E+01  0.91624691207E+01  0.51100000000E-03 0. -1.
        -11    1    3    3    0    0  0.31553132605E+02 -0.13702958456E+02  0.16950195707E+02  0.38349450875E+02  0.51100000000E-03 0.  1.
         12    1    3    3    0    0 -0.39177965318E+02  0.11728629682E+02 -0.11550682827E+02  0.42495787961E+02  0.00000000000E+00 0. -1.
</event>
<event>
 7    1  0.1971192E-015  0.9000775E+02  0.7816164E-02  0.1186339E+00
        -11   -1    0    0    0    0  0.00000000000E+00  0.00000000000E+00  0.45593999997E+02  0.45594000000E+02  0.51100000000E-03 0. -1.
         11   -1    0    0    0    0 -0.00000000000E+00 -0.00000000000E+00 -0.45593999997E+02  0.45594000000E+02  0.51100000000E-03 0.  1.
    9900012    2    1    2    0    0  0.89972108537E+00  0.73230926440E+00 -0.21727545161E+00  0.90007752775E+02  0.90000014312E+02 0.  0.
         12    1    1    2    0    0 -0.89972108537E+00 -0.73230926440E+00  0.21727545161E+00  0.11802472250E+01  0.00000000000E+00 0. -1.
         11    1    3    3    0    0  0.77133444310E+01 -0.46858374372E+01 -0.39065726172E+01  0.98343309215E+01  0.51100000000E-03 0. -1.
        -11    1    3    3    0    0 -0.27026774993E+02 -0.11206728941E+02 -0.27019035561E+02  0.39825439395E+02  0.51100000000E-03 0.  1.
         12    1    3    3    0    0  0.20213151648E+02  0.16624875643E+02  0.30708332726E+02  0.40347982459E+02  0.00000000000E+00 0. -1.
</event>
<event>
 7    1  0.1971192E-015  0.9000773E+02  0.7816164E-02  0.1186339E+00
        -11   -1    0    0    0    0  0.00000000000E+00  0.00000000000E+00  0.45593999997E+02  0.45594000000E+02  0.51100000000E-03 0. -1.
         11   -1    0    0    0    0 -0.00000000000E+00 -0.00000000000E+00 -0.45593999997E+02  0.45594000000E+02  0.51100000000E-03 0.  1.
    9900012    2    1    2    0    0 -0.20475743694E+00  0.96322632209E+00 -0.65062828374E+00  0.90007725575E+02  0.89999986752E+02 0.  0.
         12    1    1    2    0    0  0.20475743694E+00 -0.96322632209E+00  0.65062828374E+00  0.11802744254E+01  0.00000000000E+00 0. -1.
         11    1    3    3    0    0  0.73355279307E+01 -0.38208252835E+00 -0.57505630976E+01  0.93287155216E+01  0.51100000000E-03 0. -1.
        -11    1    3    3    0    0  0.20940956694E+02  0.10254951347E+02 -0.27784676614E+02  0.36272247645E+02  0.51100000000E-03 0.  1.
         12    1    3    3    0    0 -0.28481242062E+02 -0.89096424966E+01  0.32884611428E+02  0.44406762408E+02  0.00000000000E+00 0. -1.
</event>
<event>
 7    1  0.1971192E-015  0.9000771E+02  0.7816164E-02  0.1186339E+00
        -11   -1    0    0    0    0  0.00000000000E+00  0.00000000000E+00  0.45593999997E+02  0.45594000000E+02  0.51100000000E-03 0.  1.
         11   -1    0    0    0    0 -0.00000000000E+00 -0.00000000000E+00 -0.45593999997E+02  0.45594000000E+02  0.51100000000E-03 0. -1.
    9900012    2    1    2    0    0  0.62624918315E+00  0.18760275109E+00 -0.98270367873E+00  0.90007707938E+02  0.89999968883E+02 0.  0.
         12    1    1    2    0    0 -0.62624918315E+00 -0.18760275109E+00  0.98270367873E+00  0.11802920621E+01  0.00000000000E+00 0. -1.
         11    1    3    3    0    0  0.38316494163E+02 -0.82710512263E+01 -0.11239433276E+01  0.39215140727E+02  0.51100000000E-03 0. -1.
        -11    1    3    3    0    0 -0.10566280558E+00 -0.59775727447E+01  0.77808616150E+01  0.98124588294E+01  0.51100000000E-03 0.  1.
        -12    1    3    3    0    0 -0.37584582174E+02  0.14436226722E+02 -0.76396219662E+01  0.40980108382E+02  0.00000000000E+00 0.  1.
</event>
<event>
 7    1  0.1971192E-015  0.9000790E+02  0.7816164E-02  0.1186339E+00
        -11   -1    0    0    0    0  0.00000000000E+00  0.00000000000E+00  0.45593999997E+02  0.45594000000E+02  0.51100000000E-03 0.  1.
         11   -1    0    0    0    0 -0.00000000000E+00 -0.00000000000E+00 -0.45593999997E+02  0.45594000000E+02  0.51100000000E-03 0. -1.
    9900012    2    1    2    0    0  0.53156032477E+00  0.10308791840E+01 -0.21761817486E+00  0.90007904266E+02  0.90000167802E+02 0.  0.
         12    1    1    2    0    0 -0.53156032477E+00 -0.10308791840E+01  0.21761817486E+00  0.11800957338E+01  0.00000000000E+00 0. -1.
         11    1    3    3    0    0  0.12566101851E+02 -0.73634160498E+01 -0.79492663335E+01  0.16592698610E+02  0.51100000000E-03 0. -1.
        -11    1    3    3    0    0  0.73452080493E+01 -0.69399314935E+01  0.35108737784E+02  0.36534069024E+02  0.51100000000E-03 0.  1.
         12    1    3    3    0    0 -0.19379749575E+02  0.15334226727E+02 -0.27377089625E+02  0.36881136632E+02  0.00000000000E+00 0. -1.
</event>
<event>
 7    1  0.1971192E-015  0.9000804E+02  0.7816164E-02  0.1186338E+00
        -11   -1    0    0    0    0  0.00000000000E+00  0.00000000000E+00  0.45593999997E+02  0.45594000000E+02  0.51100000000E-03 0. -1.
         11   -1    0    0    0    0 -0.00000000000E+00 -0.00000000000E+00 -0.45593999997E+02  0.45594000000E+02  0.51100000000E-03 0.  1.
    9900012    2    1    2    0    0 -0.21595786767E-01  0.11110072872E+01 -0.39687985826E+00  0.90008035089E+02  0.90000300351E+02 0.  0.
         12    1    1    2    0    0  0.21595786767E-01 -0.11110072872E+01  0.39687985826E+00  0.11799649114E+01  0.00000000000E+00 0. -1.
         11    1    3    3    0    0 -0.10641329046E+02  0.33082623757E+02  0.81650165326E+01  0.35698254492E+02  0.51100000000E-03 0. -1.
        -11    1    3    3    0    0  0.24491906891E+01  0.79085991905E+01  0.68861465333E+01  0.10768634571E+02  0.51100000000E-03 0.  1.
        -12    1    3    3    0    0  0.81705425697E+01 -0.39880215661E+02 -0.15448042924E+02  0.43541146026E+02  0.00000000000E+00 0.  1.
</event>
<event>
 7    1  0.1971192E-015  0.9000773E+02  0.7816164E-02  0.1186339E+00
        -11   -1    0    0    0    0  0.00000000000E+00  0.00000000000E+00  0.45593999997E+02  0.45594000000E+02  0.51100000000E-03 0. -1.
         11   -1    0    0    0    0 -0.00000000000E+00 -0.00000000000E+00 -0.45593999997E+02  0.45594000000E+02  0.51100000000E-03 0.  1.
    9900012    2    1    2    0    0 -0.64412381162E+00  0.50803050229E+00 -0.84855117958E+00  0.90007733259E+02  0.89999994538E+02 0.  0.
         12    1    1    2    0    0  0.64412381162E+00 -0.50803050229E+00  0.84855117958E+00  0.11802667412E+01  0.00000000000E+00 0. -1.
         11    1    3    3    0    0  0.90243084989E+01  0.12032644038E+02  0.39663103489E+02  0.42419151866E+02  0.51100000000E-03 0. -1.
        -11    1    3    3    0    0 -0.32090794342E+01  0.56340157817E+01 -0.83970180762E+01  0.10608969671E+02  0.51100000000E-03 0.  1.
        -12    1    3    3    0    0 -0.64593528762E+01 -0.17158629318E+02 -0.32114636592E+02  0.36979611722E+02  0.00000000000E+00 0.  1.
</event>
<event>
 7    1  0.1971192E-015  0.9000772E+02  0.7816164E-02  0.1186339E+00
        -11   -1    0    0    0    0  0.00000000000E+00  0.00000000000E+00  0.45593999997E+02  0.45594000000E+02  0.51100000000E-03 0. -1.
         11   -1    0    0    0    0 -0.00000000000E+00 -0.00000000000E+00 -0.45593999997E+02  0.45594000000E+02  0.51100000000E-03 0.  1.
    9900012    2    1    2    0    0  0.11278863753E+01  0.33821208771E+00 -0.80870734998E-01  0.90007722419E+02  0.89999983555E+02 0.  0.
         12    1    1    2    0    0 -0.11278863753E+01 -0.33821208771E+00  0.80870734998E-01  0.11802775808E+01  0.00000000000E+00 0. -1.
         11    1    3    3    0    0 -0.93060933657E+01  0.34145497633E+00  0.62083655582E+01  0.11192129752E+02  0.51100000000E-03 0. -1.
        -11    1    3    3    0    0 -0.20963779018E+02 -0.73065443141E+01 -0.31048191478E+02  0.38168780631E+02  0.51100000000E-03 0.  1.
         12    1    3    3    0    0  0.31397758759E+02  0.73033014255E+01  0.24758955185E+02  0.40646812036E+02  0.00000000000E+00 0. -1.
</event>
<event>
 7    1  0.1971192E-015  0.9000778E+02  0.7816164E-02  0.1186339E+00
        -11   -1    0    0    0    0  0.00000000000E+00  0.00000000000E+00  0.45593999997E+02  0.45594000000E+02  0.51100000000E-03 0. -1.
         11   -1    0    0    0    0 -0.00000000000E+00 -0.00000000000E+00 -0.45593999997E+02  0.45594000000E+02  0.51100000000E-03 0.  1.
    9900012    2    1    2    0    0 -0.84687895550E+00 -0.26691972304E+00 -0.77747515058E+00  0.90007780650E+02  0.90000042555E+02 0.  0.
         12    1    1    2    0    0  0.84687895550E+00  0.26691972304E+00  0.77747515058E+00  0.11802193498E+01  0.00000000000E+00 0. -1.
         11    1    3    3    0    0 -0.85714945082E+01  0.41810489127E+01 -0.18764031238E+01  0.97197004614E+01  0.51100000000E-03 0. -1.
        -11    1    3    3    0    0 -0.21212289964E+02 -0.32931420165E+02  0.50348601926E+01  0.39494170418E+02  0.51100000000E-03 0.  1.
         12    1    3    3    0    0  0.28936905517E+02  0.28483451529E+02 -0.39359322195E+01  0.40793909770E+02  0.00000000000E+00 0. -1.
</event>
<event>
 7    1  0.1971192E-015  0.9000787E+02  0.7816164E-02  0.1186339E+00
        -11   -1    0    0    0    0  0.00000000000E+00  0.00000000000E+00  0.45593999997E+02  0.45594000000E+02  0.51100000000E-03 0.  1.
         11   -1    0    0    0    0 -0.00000000000E+00 -0.00000000000E+00 -0.45593999997E+02  0.45594000000E+02  0.51100000000E-03 0. -1.
    9900012    2    1    2    0    0  0.31409088816E+00 -0.10751289506E+01 -0.37169915773E+00  0.90007866274E+02  0.90000129309E+02 0.  0.
         12    1    1    2    0    0 -0.31409088816E+00  0.10751289506E+01  0.37169915773E+00  0.11801337256E+01  0.00000000000E+00 0. -1.
         11    1    3    3    0    0  0.83710938862E+01 -0.12920327736E+02  0.59525175571E+01  0.16505833732E+02  0.51100000000E-03 0. -1.
        -11    1    3    3    0    0 -0.25121741348E+02 -0.71264578572E+01  0.22881256624E+02  0.34719449807E+02  0.51100000000E-03 0.  1.
         12    1    3    3    0    0  0.17064738350E+02  0.18971656642E+02 -0.29205473339E+02  0.38782582736E+02  0.00000000000E+00 0. -1.
</event>
<event>
 7    1  0.1971192E-015  0.9000765E+02  0.7816164E-02  0.1186339E+00
        -11   -1    0    0    0    0  0.00000000000E+00  0.00000000000E+00  0.45593999997E+02  0.45594000000E+02  0.51100000000E-03 0. -1.
         11   -1    0    0    0    0 -0.00000000000E+00 -0.00000000000E+00 -0.45593999997E+02  0.45594000000E+02  0.51100000000E-03 0.  1.
    9900012    2    1    2    0    0 -0.72009423306E+00 -0.73134099805E+00  0.58294465345E+00  0.90007652666E+02  0.89999912881E+02 0.  0.
         12    1    1    2    0    0  0.72009423306E+00  0.73134099805E+00 -0.58294465345E+00  0.11803473340E+01  0.00000000000E+00 0. -1.
         11    1    3    3    0    0 -0.93010840317E+01  0.42414483915E+01 -0.28340221186E+01  0.10608097391E+02  0.51100000000E-03 0. -1.
        -11    1    3    3    0    0 -0.15996676899E+02 -0.32900116047E+02 -0.12880462385E+02  0.38784244472E+02  0.51100000000E-03 0.  1.
         12    1    3    3    0    0  0.24577666698E+02  0.27927326657E+02  0.16297429157E+02  0.40615310804E+02  0.00000000000E+00 0. -1.
</event>
<event>
 7    1  0.1971192E-015  0.9000779E+02  0.7816164E-02  0.1186339E+00
        -11   -1    0    0    0    0  0.00000000000E+00  0.00000000000E+00  0.45593999997E+02  0.45594000000E+02  0.51100000000E-03 0. -1.
         11   -1    0    0    0    0 -0.00000000000E+00 -0.00000000000E+00 -0.45593999997E+02  0.45594000000E+02  0.51100000000E-03 0.  1.
    9900012    2    1    2    0    0  0.11015284301E+01  0.31013649210E+00 -0.28869967242E+00  0.90007789414E+02  0.90000051434E+02 0.  0.
         12    1    1    2    0    0 -0.11015284301E+01 -0.31013649210E+00  0.28869967242E+00  0.11802105859E+01  0.00000000000E+00 0. -1.
         11    1    3    3    0    0  0.26480947283E+02  0.19200655763E+02  0.26649734524E+02  0.42191398426E+02  0.51100000000E-03 0. -1.
        -11    1    3    3    0    0 -0.47247184284E+01  0.50688617147E+01 -0.11949820681E+01  0.70316645053E+01  0.51100000000E-03 0.  1.
        -12    1    3    3    0    0 -0.20654700424E+02 -0.23959380985E+02 -0.25743452128E+02  0.40784726483E+02  0.00000000000E+00 0.  1.
</event>
<event>
 7    1  0.1971192E-015  0.9000777E+02  0.7816164E-02  0.1186339E+00
        -11   -1    0    0    0    0  0.00000000000E+00  0.00000000000E+00  0.45593999997E+02  0.45594000000E+02  0.51100000000E-03 0.  1.
         11   -1    0    0    0    0 -0.00000000000E+00 -0.00000000000E+00 -0.45593999997E+02  0.45594000000E+02  0.51100000000E-03 0. -1.
    9900012    2    1    2    0    0 -0.13901225391E+00  0.94220355085E+00  0.69705285636E+00  0.90007765014E+02  0.90000026712E+02 0.  0.
         12    1    1    2    0    0  0.13901225391E+00 -0.94220355085E+00 -0.69705285636E+00  0.11802349862E+01  0.00000000000E+00 0. -1.
         11    1    3    3    0    0 -0.16658492606E+02  0.22811327232E+02 -0.27391270479E+02  0.39346457588E+02  0.51100000000E-03 0. -1.
        -11    1    3    3    0    0 -0.79950221961E+01 -0.46948103229E+01 -0.48028352454E+00  0.92839806338E+01  0.51100000000E-03 0.  1.
        -12    1    3    3    0    0  0.24514502548E+02 -0.17174313359E+02  0.28568606860E+02  0.41377326792E+02  0.00000000000E+00 0.  1.
</event>
<event>
 7    1  0.1971192E-015  0.9000772E+02  0.7816164E-02  0.1186339E+00
        -11   -1    0    0    0    0  0.00000000000E+00  0.00000000000E+00  0.45593999997E+02  0.45594000000E+02  0.51100000000E-03 0.  1.
         11   -1    0    0    0    0 -0.00000000000E+00 -0.00000000000E+00 -0.45593999997E+02  0.45594000000E+02  0.51100000000E-03 0. -1.
    9900012    2    1    2    0    0 -0.96552125545E+00  0.96662055443E-01 -0.67193213326E+00  0.90007717136E+02  0.89999978202E+02 0.  0.
         12    1    1    2    0    0  0.96552125545E+00 -0.96662055443E-01  0.67193213326E+00  0.11802828641E+01  0.00000000000E+00 0. -1.
         11    1    3    3    0    0  0.24624407169E+02  0.64509630653E+01 -0.15462308761E+02  0.29783541519E+02  0.51100000000E-03 0. -1.
        -11    1    3    3    0    0  0.55767200620E+00  0.15541447896E+02  0.20410121481E+02  0.25659708882E+02  0.51100000000E-03 0.  1.
        -12    1    3    3    0    0 -0.26147600431E+02 -0.21895748906E+02 -0.56197448534E+01  0.34564466735E+02  0.00000000000E+00 0.  1.
</event>
<event>
 7    1  0.1971192E-015  0.9000769E+02  0.7816164E-02  0.1186339E+00
        -11   -1    0    0    0    0  0.00000000000E+00  0.00000000000E+00  0.45593999997E+02  0.45594000000E+02  0.51100000000E-03 0.  1.
         11   -1    0    0    0    0 -0.00000000000E+00 -0.00000000000E+00 -0.45593999997E+02  0.45594000000E+02  0.51100000000E-03 0. -1.
    9900012    2    1    2    0    0  0.71688047334E+00  0.65995314820E+00  0.66609197672E+00  0.90007688900E+02  0.89999949594E+02 0.  0.
         12    1    1    2    0    0 -0.71688047334E+00 -0.65995314820E+00 -0.66609197672E+00  0.11803110998E+01  0.00000000000E+00 0. -1.
         11    1    3    3    0    0  0.32070724417E+02 -0.71095131566E+01 -0.36611201746E+01  0.33052690407E+02  0.51100000000E-03 0. -1.
        -11    1    3    3    0    0  0.12146419659E+02  0.41435621822E+01  0.34737137207E+01  0.13295537047E+02  0.51100000000E-03 0.  1.
        -12    1    3    3    0    0 -0.43500263603E+02  0.36259041226E+01  0.85349843059E+00  0.43659461446E+02  0.00000000000E+00 0.  1.
</event>
<event>
 7    1  0.1971192E-015  0.9000771E+02  0.7816164E-02  0.1186339E+00
        -11   -1    0    0    0    0  0.00000000000E+00  0.00000000000E+00  0.45593999997E+02  0.45594000000E+02  0.51100000000E-03 0.  1.
         11   -1    0    0    0    0 -0.00000000000E+00 -0.00000000000E+00 -0.45593999997E+02  0.45594000000E+02  0.51100000000E-03 0. -1.
    9900012    2    1    2    0    0 -0.80476695315E+00 -0.10931533464E+00  0.85643827437E+00  0.90007709269E+02  0.89999970232E+02 0.  0.
         12    1    1    2    0    0  0.80476695315E+00  0.10931533464E+00 -0.85643827437E+00  0.11802907307E+01  0.00000000000E+00 0. -1.
         11    1    3    3    0    0 -0.22893188860E+00 -0.36185336081E+02 -0.13693266842E+02  0.38690263817E+02  0.51100000000E-03 0. -1.
        -11    1    3    3    0    0 -0.40190125463E+01  0.23629217909E+01 -0.89409584057E+01  0.10083481478E+02  0.51100000000E-03 0.  1.
        -12    1    3    3    0    0  0.34431774818E+01  0.33713098956E+02  0.23490663522E+02  0.41233963975E+02  0.00000000000E+00 0.  1.
</event>
<event>
 7    1  0.1971192E-015  0.9000789E+02  0.7816164E-02  0.1186339E+00
        -11   -1    0    0    0    0  0.00000000000E+00  0.00000000000E+00  0.45593999997E+02  0.45594000000E+02  0.51100000000E-03 0.  1.
         11   -1    0    0    0    0 -0.00000000000E+00 -0.00000000000E+00 -0.45593999997E+02  0.45594000000E+02  0.51100000000E-03 0. -1.
    9900012    2    1    2    0    0 -0.24965190551E+00  0.99711038366E+00  0.57973927796E+00  0.90007892877E+02  0.90000156263E+02 0.  0.
         12    1    1    2    0    0  0.24965190551E+00 -0.99711038366E+00 -0.57973927796E+00  0.11801071229E+01  0.00000000000E+00 0. -1.
         11    1    3    3    0    0  0.16282762043E+02  0.33866848820E+02 -0.69436106161E+01  0.38213944018E+02  0.51100000000E-03 0. -1.
        -11    1    3    3    0    0 -0.69466768254E+00  0.68226200786E+01  0.58691713372E+01  0.90265098667E+01  0.51100000000E-03 0.  1.
        -12    1    3    3    0    0 -0.15837746266E+02 -0.39692358515E+02  0.16541785569E+01  0.42767438992E+02  0.00000000000E+00 0.  1.
</event>
<event>
 7    1  0.1971192E-015  0.9000758E+02  0.7816164E-02  0.1186339E+00
        -11   -1    0    0    0    0  0.00000000000E+00  0.00000000000E+00  0.45593999997E+02  0.45594000000E+02  0.51100000000E-03 0. -1.
         11   -1    0    0    0    0 -0.00000000000E+00 -0.00000000000E+00 -0.45593999997E+02  0.45594000000E+02  0.51100000000E-03 0.  1.
    9900012    2    1    2    0    0 -0.59811160552E+00  0.61562352858E+00  0.81034102221E+00  0.90007583805E+02  0.89999843111E+02 0.  0.
         12    1    1    2    0    0  0.59811160552E+00 -0.61562352858E+00 -0.81034102221E+00  0.11804161952E+01  0.00000000000E+00 0. -1.
         11    1    3    3    0    0  0.19924140319E+01 -0.33923859889E+02  0.26977364135E+02  0.43388663950E+02  0.51100000000E-03 0. -1.
        -11    1    3    3    0    0  0.49297991277E+01  0.25410827032E+01 -0.53830789358E+01  0.77290076875E+01  0.51100000000E-03 0.  1.
        -12    1    3    3    0    0 -0.75203247651E+01  0.31998400714E+02 -0.20783944177E+02  0.38889912167E+02  0.00000000000E+00 0.  1.
</event>
<event>
 7    1  0.1971192E-015  0.9000780E+02  0.7816164E-02  0.1186339E+00
        -11   -1    0    0    0    0  0.00000000000E+00  0.00000000000E+00  0.45593999997E+02  0.45594000000E+02  0.51100000000E-03 0. -1.
         11   -1    0    0    0    0 -0.00000000000E+00 -0.00000000000E+00 -0.45593999997E+02  0.45594000000E+02  0.51100000000E-03 0.  1.
    9900012    2    1    2    0    0 -0.84444388987E+00  0.73506730604E+00  0.37346243009E+00  0.90007795097E+02  0.90000057192E+02 0.  0.
         12    1    1    2    0    0  0.84444388987E+00 -0.73506730604E+00 -0.37346243009E+00  0.11802049035E+01  0.00000000000E+00 0. -1.
         11    1    3    3    0    0  0.67454424616E+01 -0.55281096005E+01 -0.63841837925E+01  0.10808274271E+02  0.51100000000E-03 0. -1.
        -11    1    3    3    0    0 -0.36491186229E+02  0.84223979361E+01 -0.17563809339E+02  0.41364608764E+02  0.51100000000E-03 0.  1.
         12    1    3    3    0    0  0.28901299878E+02 -0.21592210295E+01  0.24321455561E+02  0.37834912062E+02  0.00000000000E+00 0. -1.
</event>
<event>
 7    1  0.1971192E-015  0.9000736E+02  0.7816164E-02  0.1186340E+00
        -11   -1    0    0    0    0  0.00000000000E+00  0.00000000000E+00  0.45593999997E+02  0.45594000000E+02  0.51100000000E-03 0.  1.
         11   -1    0    0    0    0 -0.00000000000E+00 -0.00000000000E+00 -0.45593999997E+02  0.45594000000E+02  0.51100000000E-03 0. -1.
    9900012    2    1    2    0    0  0.79349646954E+00 -0.82693386556E+00  0.28365080105E+00  0.90007358631E+02  0.89999614964E+02 0.  0.
         12    1    1    2    0    0 -0.79349646954E+00  0.82693386556E+00 -0.28365080105E+00  0.11806413690E+01  0.00000000000E+00 0. -1.
         11    1    3    3    0    0 -0.21718148744E+02  0.18342354757E+02  0.21115800435E+02  0.35411819936E+02  0.51100000000E-03 0. -1.
        -11    1    3    3    0    0 -0.48044608973E+01  0.67780165994E+01  0.42526076346E+01  0.93332216030E+01  0.51100000000E-03 0.  1.
        -12    1    3    3    0    0  0.27316106111E+02 -0.25947305222E+02 -0.25084757269E+02  0.45262317092E+02  0.00000000000E+00 0.  1.
</event>
<event>
 7    1  0.1971192E-015  0.9000778E+02  0.7816164E-02  0.1186339E+00
        -11   -1    0    0    0    0  0.00000000000E+00  0.00000000000E+00  0.45593999997E+02  0.45594000000E+02  0.51100000000E-03 0. -1.
         11   -1    0    0    0    0 -0.00000000000E+00 -0.00000000000E+00 -0.45593999997E+02  0.45594000000E+02  0.51100000000E-03 0.  1.
    9900012    2    1    2    0    0  0.51675674317E+00  0.25914222476E-01 -0.10607570966E+01  0.90007781928E+02  0.90000043850E+02 0.  0.
         12    1    1    2    0    0 -0.51675674317E+00 -0.25914222476E-01  0.10607570966E+01  0.11802180716E+01  0.00000000000E+00 0. -1.
         11    1    3    3    0    0 -0.24995124254E+02  0.17633224317E+02 -0.22236479791E+02  0.37817295911E+02  0.51100000000E-03 0. -1.
        -11    1    3    3    0    0 -0.73191133487E+01  0.40550849394E+01  0.36217505841E+01  0.91175770702E+01  0.51100000000E-03 0.  1.
        -12    1    3    3    0    0  0.32830994346E+02 -0.21662395034E+02  0.17553972110E+02  0.43072908947E+02  0.00000000000E+00 0.  1.
</event>
<event>
 7    1  0.2016645E-015  0.9000771E+02  0.7816164E-02  0.1186339E+00
        -11   -1    0    0    0    0  0.00000000000E+00  0.00000000000E+00  0.45593999997E+02  0.45594000000E+02  0.51100000000E-03 0. -1.
         11   -1    0    0    0    0 -0.00000000000E+00 -0.00000000000E+00 -0.45593999997E+02  0.45594000000E+02  0.51100000000E-03 0.  1.
    9900012    2    1    2    0    0 -0.19522770915E+00 -0.15063662941E+00 -0.11542482544E+01  0.90007705848E+02  0.89999966765E+02 0.  0.
         12    1    1    2    0    0  0.19522770915E+00  0.15063662941E+00  0.11542482544E+01  0.11802941520E+01  0.00000000000E+00 0. -1.
         11    1    3    3    0    0  0.34444274924E+01  0.26826964997E+02  0.33247573459E+02  0.42859669538E+02  0.51100000000E-03 0. -1.
        -11    1    3    3    0    0  0.61225440191E+01 -0.46007616598E+01 -0.62523519765E+01  0.98865797229E+01  0.51100000000E-03 0.  1.
        -12    1    3    3    0    0 -0.97621992207E+01 -0.22376839967E+02 -0.28149469737E+02  0.37261456587E+02  0.00000000000E+00 0.  1.
</event>
<event>
 7    1  0.1971192E-015  0.9000773E+02  0.7816164E-02  0.1186339E+00
        -11   -1    0    0    0    0  0.00000000000E+00  0.00000000000E+00  0.45593999997E+02  0.45594000000E+02  0.51100000000E-03 0.  1.
         11   -1    0    0    0    0 -0.00000000000E+00 -0.00000000000E+00 -0.45593999997E+02  0.45594000000E+02  0.51100000000E-03 0. -1.
    9900012    2    1    2    0    0  0.59909545653E+00  0.10155953945E+01  0.51865379004E-01  0.90007729104E+02  0.89999990328E+02 0.  0.
         12    1    1    2    0    0 -0.59909545653E+00 -0.10155953945E+01 -0.51865379004E-01  0.11802708964E+01  0.00000000000E+00 0. -1.
         11    1    3    3    0    0  0.11453454482E+02  0.66501989701E+01 -0.72979105214E+01  0.15121714987E+02  0.51100000000E-03 0. -1.
        -11    1    3    3    0    0 -0.34655029063E+02 -0.25752258293E+02  0.16655920129E+01  0.43207916446E+02  0.51100000000E-03 0.  1.
         12    1    3    3    0    0  0.23800670037E+02  0.20117654718E+02  0.56841838875E+01  0.31678097671E+02  0.00000000000E+00 0. -1.
</event>
<event>
 7    1  0.1971192E-015  0.9000792E+02  0.7816164E-02  0.1186339E+00
        -11   -1    0    0    0    0  0.00000000000E+00  0.00000000000E+00  0.45593999997E+02  0.45594000000E+02  0.51100000000E-03 0. -1.
         11   -1    0    0    0    0 -0.00000000000E+00 -0.00000000000E+00 -0.45593999997E+02  0.45594000000E+02  0.51100000000E-03 0.  1.
    9900012    2    1    2    0    0  0.11049753382E+01  0.26754642358E+00 -0.31630066429E+00  0.90007916233E+02  0.90000179927E+02 0.  0.
         12    1    1    2    0    0 -0.11049753382E+01 -0.26754642358E+00  0.31630066429E+00  0.11800837670E+01  0.00000000000E+00 0. -1.
         11    1    3    3    0    0  0.18648988601E+01 -0.74426897985E-01  0.10020493665E+02  0.10192824960E+02  0.51100000000E-03 0. -1.
        -11    1    3    3    0    0 -0.26126224185E+02  0.57657444368E+01 -0.34977950567E+02  0.44037261781E+02  0.51100000000E-03 0.  1.
         12    1    3    3    0    0  0.25366300663E+02 -0.54237711152E+01  0.24641156237E+02  0.35777829492E+02  0.00000000000E+00 0. -1.
</event>
<event>
 7    1  0.1971192E-015  0.9000774E+02  0.7816164E-02  0.1186339E+00
        -11   -1    0    0    0    0  0.00000000000E+00  0.00000000000E+00  0.45593999997E+02  0.45594000000E+02  0.51100000000E-03 0.  1.
         11   -1    0    0    0    0 -0.00000000000E+00 -0.00000000000E+00 -0.45593999997E+02  0.45594000000E+02  0.51100000000E-03 0. -1.
    9900012    2    1    2    0    0 -0.81731500795E+00  0.43550170339E+00  0.73167144288E+00  0.90007742123E+02  0.90000003519E+02 0.  0.
         12    1    1    2    0    0  0.81731500795E+00 -0.43550170339E+00 -0.73167144288E+00  0.11802578770E+01  0.00000000000E+00 0. -1.
         11    1    3    3    0    0  0.12213034840E+02 -0.52805162637E+01 -0.40049611953E+02  0.42202055517E+02  0.51100000000E-03 0. -1.
        -11    1    3    3    0    0 -0.81875176404E+01  0.34339140485E+01  0.26006115536E+01  0.92515075267E+01  0.51100000000E-03 0.  1.
        -12    1    3    3    0    0 -0.48428322079E+01  0.22821039186E+01  0.38180671843E+02  0.38554179079E+02  0.00000000000E+00 0.  1.
</event>
<event>
 7    1  0.1971192E-015  0.9000779E+02  0.7816164E-02  0.1186339E+00
        -11   -1    0    0    0    0  0.00000000000E+00  0.00000000000E+00  0.45593999997E+02  0.45594000000E+02  0.51100000000E-03 0.  1.
         11   -1    0    0    0    0 -0.00000000000E+00 -0.00000000000E+00 -0.45593999997E+02  0.45594000000E+02  0.51100000000E-03 0. -1.
    9900012    2    1    2    0    0  0.11543294266E+01 -0.13772713409E+00  0.20358953409E+00  0.90007790744E+02  0.90000052782E+02 0.  0.
         12    1    1    2    0    0 -0.11543294266E+01  0.13772713409E+00 -0.20358953409E+00  0.11802092556E+01  0.00000000000E+00 0. -1.
         11    1    3    3    0    0  0.81207549083E+01 -0.59519070159E+00 -0.33480101838E+01  0.88039811849E+01  0.51100000000E-03 0. -1.
        -11    1    3    3    0    0  0.36899085800E+02  0.41626024581E+00  0.54261550601E+01  0.37298243450E+02  0.51100000000E-03 0.  1.
         12    1    3    3    0    0 -0.43865511281E+02  0.41203321685E-01 -0.18745553422E+01  0.43905566110E+02  0.00000000000E+00 0. -1.
</event>
<event>
 7    1  0.1971192E-015  0.9000773E+02  0.7816164E-02  0.1186339E+00
        -11   -1    0    0    0    0  0.00000000000E+00  0.00000000000E+00  0.45593999997E+02  0.45594000000E+02  0.51100000000E-03 0.  1.
         11   -1    0    0    0    0 -0.00000000000E+00 -0.00000000000E+00 -0.45593999997E+02  0.45594000000E+02  0.51100000000E-03 0. -1.
    9900012    2    1    2    0    0  0.55683398920E+00 -0.10190692497E+01  0.21088436701E+00  0.90007729504E+02  0.89999990734E+02 0.  0.
         12    1    1    2    0    0 -0.55683398920E+00  0.10190692497E+01 -0.21088436701E+00  0.11802704959E+01  0.00000000000E+00 0. -1.
         11    1    3    3    0    0  0.61205648244E+01  0.56926531705E+01 -0.82279358069E+00  0.83990834873E+01  0.51100000000E-03 0. -1.
        -11    1    3    3    0    0  0.30089255993E+02  0.20690593680E+02  0.26504441341E+01  0.36612686973E+02  0.51100000000E-03 0.  1.
         12    1    3    3    0    0 -0.35652986828E+02 -0.27402316100E+02 -0.16167661864E+01  0.44995959044E+02  0.00000000000E+00 0. -1.
</event>
<event>
 7    1  0.1971192E-015  0.9000775E+02  0.7816164E-02  0.1186339E+00
        -11   -1    0    0    0    0  0.00000000000E+00  0.00000000000E+00  0.45593999997E+02  0.45594000000E+02  0.51100000000E-03 0.  1.
         11   -1    0    0    0    0 -0.00000000000E+00 -0.00000000000E+00 -0.45593999997E+02  0.45594000000E+02  0.51100000000E-03 0. -1.
    9900012    2    1    2    0    0 -0.15836265688E+00  0.28327443030E-01  0.11692303868E+01  0.90007753893E+02  0.90000015445E+02 0.  0.
         12    1    1    2    0    0  0.15836265688E+00 -0.28327443030E-01 -0.11692303868E+01  0.11802461067E+01  0.00000000000E+00 0. -1.
         11    1    3    3    0    0 -0.12545989338E+01 -0.66200429185E+01 -0.52059444798E+01  0.85147427979E+01  0.51100000000E-03 0. -1.
        -11    1    3    3    0    0  0.35058341102E+02  0.22785649517E+02 -0.52386828519E+01  0.42139256080E+02  0.51100000000E-03 0.  1.
         12    1    3    3    0    0 -0.33962104825E+02 -0.16137279155E+02  0.11613857718E+02  0.39353755015E+02  0.00000000000E+00 0. -1.
</event>
<event>
 7    1  0.1971192E-015  0.9000773E+02  0.7816164E-02  0.1186339E+00
        -11   -1    0    0    0    0  0.00000000000E+00  0.00000000000E+00  0.45593999997E+02  0.45594000000E+02  0.51100000000E-03 0. -1.
         11   -1    0    0    0    0 -0.00000000000E+00 -0.00000000000E+00 -0.45593999997E+02  0.45594000000E+02  0.51100000000E-03 0.  1.
    9900012    2    1    2    0    0  0.38736550974E+00  0.23715008187E+00 -0.10893738611E+01  0.90007734094E+02  0.89999995384E+02 0.  0.
         12    1    1    2    0    0 -0.38736550974E+00 -0.23715008187E+00  0.10893738611E+01  0.11802659060E+01  0.00000000000E+00 0. -1.
         11    1    3    3    0    0  0.31087520737E+02  0.14151354200E+02  0.22061494483E+02  0.40662074595E+02  0.51100000000E-03 0. -1.
        -11    1    3    3    0    0  0.20908626775E+01  0.13336131112E+01  0.35946457123E+01  0.43671167519E+01  0.51100000000E-03 0.  1.
        -12    1    3    3    0    0 -0.32791017905E+02 -0.15247817229E+02 -0.26745514056E+02  0.44978542747E+02  0.00000000000E+00 0.  1.
</event>
<event>
 7    1  0.1971192E-015  0.9000775E+02  0.7816164E-02  0.1186339E+00
        -11   -1    0    0    0    0  0.00000000000E+00  0.00000000000E+00  0.45593999997E+02  0.45594000000E+02  0.51100000000E-03 0.  1.
         11   -1    0    0    0    0 -0.00000000000E+00 -0.00000000000E+00 -0.45593999997E+02  0.45594000000E+02  0.51100000000E-03 0. -1.
    9900012    2    1    2    0    0 -0.10713892143E+01  0.15107727485E+00  0.47148607338E+00  0.90007746506E+02  0.90000007960E+02 0.  0.
         12    1    1    2    0    0  0.10713892143E+01 -0.15107727485E+00 -0.47148607338E+00  0.11802534935E+01  0.00000000000E+00 0. -1.
         11    1    3    3    0    0  0.46682112487E+01 -0.43778237064E+01 -0.75730775585E+01  0.99150915596E+01  0.51100000000E-03 0. -1.
        -11    1    3    3    0    0  0.25804126164E+02  0.19368877663E+02  0.25482732274E+02  0.41114182388E+02  0.51100000000E-03 0.  1.
         12    1    3    3    0    0 -0.31543726627E+02 -0.14839976682E+02 -0.17438168642E+02  0.38978472559E+02  0.00000000000E+00 0. -1.
</event>
<event>
 7    1  0.1971192E-015  0.9000762E+02  0.7816164E-02  0.1186339E+00
        -11   -1    0    0    0    0  0.00000000000E+00  0.00000000000E+00  0.45593999997E+02  0.45594000000E+02  0.51100000000E-03 0.  1.
         11   -1    0    0    0    0 -0.00000000000E+00 -0.00000000000E+00 -0.45593999997E+02  0.45594000000E+02  0.51100000000E-03 0. -1.
    9900012    2    1    2    0    0  0.73474454171E+00 -0.29733546312E+00  0.87465925778E+00  0.90007624324E+02  0.89999884165E+02 0.  0.
         12    1    1    2    0    0 -0.73474454171E+00  0.29733546312E+00 -0.87465925778E+00  0.11803756760E+01  0.00000000000E+00 0. -1.
         11    1    3    3    0    0 -0.28303638658E+01  0.65333221789E+01 -0.49548361633E+01  0.86744256278E+01  0.51100000000E-03 0. -1.
        -11    1    3    3    0    0 -0.13448191963E+02  0.27296660392E+02 -0.18957913069E+02  0.35851973500E+02  0.51100000000E-03 0.  1.
         12    1    3    3    0    0  0.17013300371E+02 -0.34127318034E+02  0.24787408490E+02  0.45481225196E+02  0.00000000000E+00 0. -1.
</event>
<event>
 7    1  0.2182597E-015  0.9000774E+02  0.7816164E-02  0.1186339E+00
        -11   -1    0    0    0    0  0.00000000000E+00  0.00000000000E+00  0.45593999997E+02  0.45594000000E+02  0.51100000000E-03 0. -1.
         11   -1    0    0    0    0 -0.00000000000E+00 -0.00000000000E+00 -0.45593999997E+02  0.45594000000E+02  0.51100000000E-03 0.  1.
    9900012    2    1    2    0    0 -0.35814089785E+00 -0.20181935013E+00 -0.11063556204E+01  0.90007737863E+02  0.89999999203E+02 0.  0.
         12    1    1    2    0    0  0.35814089785E+00  0.20181935013E+00  0.11063556204E+01  0.11802621368E+01  0.00000000000E+00 0. -1.
         11    1    3    3    0    0 -0.14571833823E+02 -0.33432417264E+02  0.84876335502E+01  0.37444689725E+02  0.51100000000E-03 0. -1.
        -11    1    3    3    0    0 -0.96319827760E+01 -0.97279992991E+00  0.39125504316E+00  0.96888860386E+01  0.51100000000E-03 0.  1.
        -12    1    3    3    0    0  0.23845675701E+02  0.34203397844E+02 -0.99852442138E+01  0.42874162099E+02  0.00000000000E+00 0.  1.
</event>
<event>
 7    1  0.1971192E-015  0.9000773E+02  0.7816164E-02  0.1186339E+00
        -11   -1    0    0    0    0  0.00000000000E+00  0.00000000000E+00  0.45593999997E+02  0.45594000000E+02  0.51100000000E-03 0.  1.
         11   -1    0    0    0    0 -0.00000000000E+00 -0.00000000000E+00 -0.45593999997E+02  0.45594000000E+02  0.51100000000E-03 0. -1.
    9900012    2    1    2    0    0  0.75180103635E+00 -0.25327937574E+00  0.87389394711E+00  0.90007726357E+02  0.89999987545E+02 0.  0.
         12    1    1    2    0    0 -0.75180103635E+00  0.25327937574E+00 -0.87389394711E+00  0.11802736425E+01  0.00000000000E+00 0. -1.
         11    1    3    3    0    0 -0.29513580616E+00 -0.92154322234E+01  0.11630149345E+01  0.92932179683E+01  0.51100000000E-03 0. -1.
        -11    1    3    3    0    0 -0.14935911228E+02 -0.30993632368E+02  0.11184976357E+02  0.36177208128E+02  0.51100000000E-03 0.  1.
         12    1    3    3    0    0  0.15982848071E+02  0.39955785216E+02 -0.11474097344E+02  0.44537300261E+02  0.00000000000E+00 0. -1.
</event>
<event>
 7    1  0.1971192E-015  0.9000774E+02  0.7816164E-02  0.1186339E+00
        -11   -1    0    0    0    0  0.00000000000E+00  0.00000000000E+00  0.45593999997E+02  0.45594000000E+02  0.51100000000E-03 0. -1.
         11   -1    0    0    0    0 -0.00000000000E+00 -0.00000000000E+00 -0.45593999997E+02  0.45594000000E+02  0.51100000000E-03 0.  1.
    9900012    2    1    2    0    0 -0.10812868070E+01  0.21059973411E+00  0.42364998800E+00  0.90007740402E+02  0.90000001775E+02 0.  0.
         12    1    1    2    0    0  0.10812868070E+01 -0.21059973411E+00 -0.42364998800E+00  0.11802595983E+01  0.00000000000E+00 0. -1.
         11    1    3    3    0    0 -0.97478266552E+01  0.38569071138E-01 -0.17552495161E+01  0.99046712816E+01  0.51100000000E-03 0. -1.
        -11    1    3    3    0    0  0.26758091855E+02 -0.20922809883E+02 -0.24263489010E+02  0.41742979678E+02  0.51100000000E-03 0.  1.
         12    1    3    3    0    0 -0.18091552007E+02  0.21094840546E+02  0.26442388515E+02  0.38360089443E+02  0.00000000000E+00 0. -1.
</event>
<event>
 7    1  0.1971192E-015  0.9000780E+02  0.7816164E-02  0.1186339E+00
        -11   -1    0    0    0    0  0.00000000000E+00  0.00000000000E+00  0.45593999997E+02  0.45594000000E+02  0.51100000000E-03 0.  1.
         11   -1    0    0    0    0 -0.00000000000E+00 -0.00000000000E+00 -0.45593999997E+02  0.45594000000E+02  0.51100000000E-03 0. -1.
    9900012    2    1    2    0    0  0.49483964067E+00 -0.36898798152E+00  0.10059150656E+01  0.90007795137E+02  0.90000057232E+02 0.  0.
         12    1    1    2    0    0 -0.49483964067E+00  0.36898798152E+00 -0.10059150656E+01  0.11802048635E+01  0.00000000000E+00 0. -1.
         11    1    3    3    0    0 -0.22050983026E+02  0.15765040397E+01 -0.32760475556E+02  0.39521892367E+02  0.51100000000E-03 0. -1.
        -11    1    3    3    0    0 -0.49998525317E+01  0.66451481762E+01  0.48066691074E+01  0.96052375188E+01  0.51100000000E-03 0.  1.
        -12    1    3    3    0    0  0.27545675198E+02 -0.85906401975E+01  0.28959721514E+02  0.40880665250E+02  0.00000000000E+00 0.  1.
</event>
<event>
 7    1  0.1971192E-015  0.9000794E+02  0.7816164E-02  0.1186339E+00
        -11   -1    0    0    0    0  0.00000000000E+00  0.00000000000E+00  0.45593999997E+02  0.45594000000E+02  0.51100000000E-03 0. -1.
         11   -1    0    0    0    0 -0.00000000000E+00 -0.00000000000E+00 -0.45593999997E+02  0.45594000000E+02  0.51100000000E-03 0.  1.
    9900012    2    1    2    0    0 -0.67394767375E+00 -0.53933824637E+00 -0.80463922036E+00  0.90007942592E+02  0.90000206634E+02 0.  0.
         12    1    1    2    0    0  0.67394767375E+00  0.53933824637E+00  0.80463922036E+00  0.11800574079E+01  0.00000000000E+00 0. -1.
         11    1    3    3    0    0 -0.70424298687E+00 -0.89946268576E+01 -0.14866655197E+01  0.91438200507E+01  0.51100000000E-03 0. -1.
        -11    1    3    3    0    0 -0.96280017512E+00 -0.32672092002E+02 -0.16096553351E+02  0.36434758267E+02  0.51100000000E-03 0.  1.
         12    1    3    3    0    0  0.99309548824E+00  0.41127380613E+02  0.16778579650E+02  0.44429364274E+02  0.00000000000E+00 0. -1.
</event>
<event>
 7    1  0.1971192E-015  0.9000776E+02  0.7816164E-02  0.1186339E+00
        -11   -1    0    0    0    0  0.00000000000E+00  0.00000000000E+00  0.45593999997E+02  0.45594000000E+02  0.51100000000E-03 0.  1.
         11   -1    0    0    0    0 -0.00000000000E+00 -0.00000000000E+00 -0.45593999997E+02  0.45594000000E+02  0.51100000000E-03 0. -1.
    9900012    2    1    2    0    0 -0.10850673231E+01  0.40558394872E+00  0.22603569356E+00  0.90007762071E+02  0.90000023730E+02 0.  0.
         12    1    1    2    0    0  0.10850673231E+01 -0.40558394872E+00 -0.22603569356E+00  0.11802379293E+01  0.00000000000E+00 0. -1.
         11    1    3    3    0    0  0.19165060657E+02 -0.14088244536E+02  0.28522622641E+02  0.37139173210E+02  0.51100000000E-03 0. -1.
        -11    1    3    3    0    0  0.30532586724E+01 -0.95814347860E+01 -0.19474901557E+01  0.10242997571E+02  0.51100000000E-03 0.  1.
        -12    1    3    3    0    0 -0.23303386652E+02  0.24075263271E+02 -0.26349096792E+02  0.42625591290E+02  0.00000000000E+00 0.  1.
</event>
<event>
 7    1  0.1971192E-015  0.9000787E+02  0.7816164E-02  0.1186339E+00
        -11   -1    0    0    0    0  0.00000000000E+00  0.00000000000E+00  0.45593999997E+02  0.45594000000E+02  0.51100000000E-03 0.  1.
         11   -1    0    0    0    0 -0.00000000000E+00 -0.00000000000E+00 -0.45593999997E+02  0.45594000000E+02  0.51100000000E-03 0. -1.
    9900012    2    1    2    0    0 -0.11155938811E+01 -0.31610938315E+00  0.21960911878E+00  0.90007871611E+02  0.90000134716E+02 0.  0.
         12    1    1    2    0    0  0.11155938811E+01  0.31610938315E+00 -0.21960911878E+00  0.11801283891E+01  0.00000000000E+00 0. -1.
         11    1    3    3    0    0  0.33601389267E+01 -0.10021644934E+01  0.89168495136E+01  0.95814963752E+01  0.51100000000E-03 0. -1.
        -11    1    3    3    0    0  0.21142605278E+02  0.31318898455E+02  0.52010607959E+01  0.38143599621E+02  0.51100000000E-03 0.  1.
         12    1    3    3    0    0 -0.25618338086E+02 -0.30632843345E+02 -0.13898301191E+02  0.42282775615E+02  0.00000000000E+00 0. -1.
</event>
<event>
 7    1  0.1971192E-015  0.9000779E+02  0.7816164E-02  0.1186339E+00
        -11   -1    0    0    0    0  0.00000000000E+00  0.00000000000E+00  0.45593999997E+02  0.45594000000E+02  0.51100000000E-03 0.  1.
         11   -1    0    0    0    0 -0.00000000000E+00 -0.00000000000E+00 -0.45593999997E+02  0.45594000000E+02  0.51100000000E-03 0. -1.
    9900012    2    1    2    0    0  0.53696662209E+00 -0.57547863103E+00  0.87942073297E+00  0.90007792546E+02  0.90000054608E+02 0.  0.
         12    1    1    2    0    0 -0.53696662209E+00  0.57547863103E+00 -0.87942073297E+00  0.11802074536E+01  0.00000000000E+00 0. -1.
         11    1    3    3    0    0  0.68318891276E+01 -0.32546757789E+01  0.83290543248E+01  0.11253478115E+02  0.51100000000E-03 0. -1.
        -11    1    3    3    0    0  0.13191338065E+02 -0.56656380629E+01  0.31383973643E+02  0.34511804596E+02  0.51100000000E-03 0.  1.
         12    1    3    3    0    0 -0.19486260571E+02  0.83448352108E+01 -0.38833607234E+02  0.44242509836E+02  0.00000000000E+00 0. -1.
</event>
<event>
 7    1  0.1971192E-015  0.9000780E+02  0.7816164E-02  0.1186339E+00
        -11   -1    0    0    0    0  0.00000000000E+00  0.00000000000E+00  0.45593999997E+02  0.45594000000E+02  0.51100000000E-03 0. -1.
         11   -1    0    0    0    0 -0.00000000000E+00 -0.00000000000E+00 -0.45593999997E+02  0.45594000000E+02  0.51100000000E-03 0.  1.
    9900012    2    1    2    0    0  0.78552191927E+00  0.87029857247E+00 -0.13568249656E+00  0.90007799157E+02  0.90000061305E+02 0.  0.
         12    1    1    2    0    0 -0.78552191927E+00 -0.87029857247E+00  0.13568249656E+00  0.11802008434E+01  0.00000000000E+00 0. -1.
         11    1    3    3    0    0  0.28724882969E+02 -0.30563503954E+02 -0.52327071719E+01  0.42268521386E+02  0.51100000000E-03 0. -1.
        -11    1    3    3    0    0 -0.98347141813E+00  0.74417980048E+01 -0.64011638985E+01  0.98652153089E+01  0.51100000000E-03 0.  1.
        -12    1    3    3    0    0 -0.26955889632E+02  0.23992004522E+02  0.11498188574E+02  0.37874062461E+02  0.00000000000E+00 0.  1.
</event>
<event>
 7    1  0.1971192E-015  0.9000771E+02  0.7816164E-02  0.1186339E+00
        -11   -1    0    0    0    0  0.00000000000E+00  0.00000000000E+00  0.45593999997E+02  0.45594000000E+02  0.51100000000E-03 0. -1.
         11   -1    0    0    0    0 -0.00000000000E+00 -0.00000000000E+00 -0.45593999997E+02  0.45594000000E+02  0.51100000000E-03 0.  1.
    9900012    2    1    2    0    0  0.85062083399E+00 -0.47460860434E+00 -0.66654175082E+00  0.90007708919E+02  0.89999969877E+02 0.  0.
         12    1    1    2    0    0 -0.85062083399E+00  0.47460860434E+00  0.66654175082E+00  0.11802910811E+01  0.00000000000E+00 0. -1.
         11    1    3    3    0    0  0.16619259070E+02 -0.26786659946E+02 -0.73081734949E+01  0.32359454927E+02  0.51100000000E-03 0. -1.
        -11    1    3    3    0    0  0.46633848177E+01 -0.69058407482E+01  0.15552774587E+02  0.17644449326E+02  0.51100000000E-03 0.  1.
        -12    1    3    3    0    0 -0.20432023054E+02  0.33217892090E+02 -0.89111428431E+01  0.40003804666E+02  0.00000000000E+00 0.  1.
</event>
<event>
 7    1  0.1971192E-015  0.9000777E+02  0.7816164E-02  0.1186339E+00
        -11   -1    0    0    0    0  0.00000000000E+00  0.00000000000E+00  0.45593999997E+02  0.45594000000E+02  0.51100000000E-03 0.  1.
         11   -1    0    0    0    0 -0.00000000000E+00 -0.00000000000E+00 -0.45593999997E+02  0.45594000000E+02  0.51100000000E-03 0. -1.
    9900012    2    1    2    0    0  0.24032081179E+00  0.11466033158E+01  0.14314751479E+00  0.90007769316E+02  0.90000031071E+02 0.  0.
         12    1    1    2    0    0 -0.24032081179E+00 -0.11466033158E+01 -0.14314751479E+00  0.11802306839E+01  0.00000000000E+00 0. -1.
         11    1    3    3    0    0  0.17165510373E+00 -0.74235343029E+01  0.11366064103E+01  0.75120038215E+01  0.51100000000E-03 0. -1.
        -11    1    3    3    0    0 -0.11260135988E+02 -0.34857215843E+02 -0.67495725596E+01  0.37247454796E+02  0.51100000000E-03 0.  1.
         12    1    3    3    0    0  0.11328801696E+02  0.43427353462E+02  0.57561136641E+01  0.45248310698E+02  0.00000000000E+00 0. -1.
</event>
<event>
 7    1  0.1971192E-015  0.9000773E+02  0.7816164E-02  0.1186339E+00
        -11   -1    0    0    0    0  0.00000000000E+00  0.00000000000E+00  0.45593999997E+02  0.45594000000E+02  0.51100000000E-03 0. -1.
         11   -1    0    0    0    0 -0.00000000000E+00 -0.00000000000E+00 -0.45593999997E+02  0.45594000000E+02  0.51100000000E-03 0.  1.
    9900012    2    1    2    0    0 -0.32953301012E+00 -0.56135377576E-02 -0.11333180314E+01  0.90007731693E+02  0.89999992951E+02 0.  0.
         12    1    1    2    0    0  0.32953301012E+00  0.56135377576E-02  0.11333180314E+01  0.11802683071E+01  0.00000000000E+00 0. -1.
         11    1    3    3    0    0  0.24963054212E+02  0.21852395804E+01  0.27960856297E+02  0.37546488954E+02  0.51100000000E-03 0. -1.
        -11    1    3    3    0    0  0.23046708234E+01  0.99760306004E+01  0.44046201052E+00  0.10248253568E+02  0.51100000000E-03 0.  1.
        -12    1    3    3    0    0 -0.27597258046E+02 -0.12166883719E+02 -0.29534636339E+02  0.42212989171E+02  0.00000000000E+00 0.  1.
</event>
<event>
 7    1  0.1971192E-015  0.9000759E+02  0.7816164E-02  0.1186339E+00
        -11   -1    0    0    0    0  0.00000000000E+00  0.00000000000E+00  0.45593999997E+02  0.45594000000E+02  0.51100000000E-03 0. -1.
         11   -1    0    0    0    0 -0.00000000000E+00 -0.00000000000E+00 -0.45593999997E+02  0.45594000000E+02  0.51100000000E-03 0.  1.
    9900012    2    1    2    0    0 -0.11794802910E+01 -0.68085620052E-02  0.46360255292E-01  0.90007589314E+02  0.89999848693E+02 0.  0.
         12    1    1    2    0    0  0.11794802910E+01  0.68085620052E-02 -0.46360255292E-01  0.11804106856E+01  0.00000000000E+00 0. -1.
         11    1    3    3    0    0  0.15499395609E+01  0.10179419491E+02  0.34673385669E+02  0.36169967761E+02  0.51100000000E-03 0. -1.
        -11    1    3    3    0    0 -0.42460390843E+01 -0.83889716044E+01  0.72634830452E+01  0.11881156454E+02  0.51100000000E-03 0.  1.
        -12    1    3    3    0    0  0.15166192324E+01 -0.17972564486E+01 -0.41890508459E+02  0.41956465099E+02  0.00000000000E+00 0.  1.
</event>
<event>
 7    1  0.1971192E-015  0.9000774E+02  0.7816164E-02  0.1186339E+00
        -11   -1    0    0    0    0  0.00000000000E+00  0.00000000000E+00  0.45593999997E+02  0.45594000000E+02  0.51100000000E-03 0. -1.
         11   -1    0    0    0    0 -0.00000000000E+00 -0.00000000000E+00 -0.45593999997E+02  0.45594000000E+02  0.51100000000E-03 0.  1.
    9900012    2    1    2    0    0  0.38567357458E+00 -0.22796024656E+00 -0.10919233178E+01  0.90007743031E+02  0.90000004439E+02 0.  0.
         12    1    1    2    0    0 -0.38567357458E+00  0.22796024656E+00  0.10919233178E+01  0.11802569686E+01  0.00000000000E+00 0. -1.
         11    1    3    3    0    0  0.61177250432E+00 -0.19536300919E+01 -0.90893738675E+01  0.93170625036E+01  0.51100000000E-03 0. -1.
        -11    1    3    3    0    0  0.29939057578E+02 -0.25618471215E+02  0.65996784676E+01  0.39952584300E+02  0.51100000000E-03 0.  1.
         12    1    3    3    0    0 -0.30165156508E+02  0.27344141061E+02  0.13977720822E+01  0.40738096228E+02  0.00000000000E+00 0. -1.
</event>
<event>
 7    1  0.2177547E-015  0.9000857E+02  0.7816164E-02  0.1186337E+00
        -11   -1    0    0    0    0  0.00000000000E+00  0.00000000000E+00  0.45593999997E+02  0.45594000000E+02  0.51100000000E-03 0. -1.
         11   -1    0    0    0    0 -0.00000000000E+00 -0.00000000000E+00 -0.45593999997E+02  0.45594000000E+02  0.51100000000E-03 0.  1.
    9900012    2    1    2    0    0  0.65841524152E+00 -0.76925121034E+00 -0.60480901697E+00  0.90008571324E+02  0.90000843661E+02 0.  0.
         12    1    1    2    0    0 -0.65841524152E+00  0.76925121034E+00  0.60480901697E+00  0.11794286760E+01  0.00000000000E+00 0. -1.
         11    1    3    3    0    0  0.12916444040E+02  0.33945541496E+02 -0.34236265520E+01  0.36480892713E+02  0.51100000000E-03 0. -1.
        -11    1    3    3    0    0  0.84963724196E+01  0.40605885072E+01  0.14347831604E+01  0.95255092408E+01  0.51100000000E-03 0.  1.
        -12    1    3    3    0    0 -0.20754401219E+02 -0.38775381213E+02  0.13840343746E+01  0.44002169371E+02  0.00000000000E+00 0.  1.
</event>
<event>
 7    1  0.1971192E-015  0.9000778E+02  0.7816164E-02  0.1186339E+00
        -11   -1    0    0    0    0  0.00000000000E+00  0.00000000000E+00  0.45593999997E+02  0.45594000000E+02  0.51100000000E-03 0.  1.
         11   -1    0    0    0    0 -0.00000000000E+00 -0.00000000000E+00 -0.45593999997E+02  0.45594000000E+02  0.51100000000E-03 0. -1.
    9900012    2    1    2    0    0  0.10317571113E+00  0.12888733536E+00  0.11686120735E+01  0.90007783346E+02  0.90000045286E+02 0.  0.
         12    1    1    2    0    0 -0.10317571113E+00 -0.12888733536E+00 -0.11686120735E+01  0.11802166542E+01  0.00000000000E+00 0. -1.
         11    1    3    3    0    0  0.12034454253E+02  0.23642257141E+02 -0.16041308656E+02  0.31001741815E+02  0.51100000000E-03 0. -1.
        -11    1    3    3    0    0 -0.96940005216E+01  0.13793094764E+02 -0.20130300973E+01  0.16978674851E+02  0.51100000000E-03 0.  1.
        -12    1    3    3    0    0 -0.22372780206E+01 -0.37306464569E+02  0.19222950826E+02  0.42027366680E+02  0.00000000000E+00 0.  1.
</event>
<event>
 7    1  0.1971192E-015  0.9000779E+02  0.7816164E-02  0.1186339E+00
        -11   -1    0    0    0    0  0.00000000000E+00  0.00000000000E+00  0.45593999997E+02  0.45594000000E+02  0.51100000000E-03 0. -1.
         11   -1    0    0    0    0 -0.00000000000E+00 -0.00000000000E+00 -0.45593999997E+02  0.45594000000E+02  0.51100000000E-03 0.  1.
    9900012    2    1    2    0    0  0.98322029643E+00 -0.69143230900E-01  0.64913957434E+00  0.90007794457E+02  0.90000056543E+02 0.  0.
         12    1    1    2    0    0 -0.98322029643E+00  0.69143230900E-01 -0.64913957434E+00  0.11802055434E+01  0.00000000000E+00 0. -1.
         11    1    3    3    0    0  0.18596456627E+02  0.20939072473E+02  0.70863435651E+01  0.28887527074E+02  0.51100000000E-03 0. -1.
        -11    1    3    3    0    0 -0.26744728697E+01  0.10279364509E+02  0.16446508661E+02  0.19578196731E+02  0.51100000000E-03 0.  1.
        -12    1    3    3    0    0 -0.14938763460E+02 -0.31287580213E+02 -0.22883712652E+02  0.41542070651E+02  0.00000000000E+00 0.  1.
</event>
<event>
 7    1  0.1971192E-015  0.9000704E+02  0.7816164E-02  0.1186340E+00
        -11   -1    0    0    0    0  0.00000000000E+00  0.00000000000E+00  0.45593999997E+02  0.45594000000E+02  0.51100000000E-03 0. -1.
         11   -1    0    0    0    0 -0.00000000000E+00 -0.00000000000E+00 -0.45593999997E+02  0.45594000000E+02  0.51100000000E-03 0.  1.
    9900012    2    1    2    0    0 -0.10070399312E+01  0.31974038478E+00 -0.52753588795E+00  0.90007043841E+02  0.89999296017E+02 0.  0.
         12    1    1    2    0    0  0.10070399312E+01 -0.31974038478E+00  0.52753588795E+00  0.11809561592E+01  0.00000000000E+00 0. -1.
         11    1    3    3    0    0  0.67996843915E+00  0.18665253932E+02  0.31259385393E+02  0.36414327356E+02  0.51100000000E-03 0. -1.
        -11    1    3    3    0    0  0.32093455627E+01  0.62058902823E+01  0.53539909707E+01  0.88021697729E+01  0.51100000000E-03 0.  1.
        -12    1    3    3    0    0 -0.48963539331E+01 -0.24551403829E+02 -0.37140912252E+02  0.44790546711E+02  0.00000000000E+00 0.  1.
</event>
<event>
 7    1  0.1971192E-015  0.9000777E+02  0.7816164E-02  0.1186339E+00
        -11   -1    0    0    0    0  0.00000000000E+00  0.00000000000E+00  0.45593999997E+02  0.45594000000E+02  0.51100000000E-03 0.  1.
         11   -1    0    0    0    0 -0.00000000000E+00 -0.00000000000E+00 -0.45593999997E+02  0.45594000000E+02  0.51100000000E-03 0. -1.
    9900012    2    1    2    0    0  0.63230199913E+00  0.96736719145E+00 -0.23945983560E+00  0.90007768618E+02  0.90000030364E+02 0.  0.
         12    1    1    2    0    0 -0.63230199913E+00 -0.96736719145E+00  0.23945983560E+00  0.11802313816E+01  0.00000000000E+00 0. -1.
         11    1    3    3    0    0 -0.24302123355E+01 -0.78221188209E+01 -0.31598140110E+01  0.87792881083E+01  0.51100000000E-03 0. -1.
        -11    1    3    3    0    0 -0.32835517747E+01 -0.31190220268E+02  0.20103022725E+02  0.37252423754E+02  0.51100000000E-03 0.  1.
         12    1    3    3    0    0  0.63460661093E+01  0.39979706280E+02 -0.17182668550E+02  0.43976056756E+02  0.00000000000E+00 0. -1.
</event>
<event>
 7    1  0.1971192E-015  0.9000756E+02  0.7816164E-02  0.1186339E+00
        -11   -1    0    0    0    0  0.00000000000E+00  0.00000000000E+00  0.45593999997E+02  0.45594000000E+02  0.51100000000E-03 0.  1.
         11   -1    0    0    0    0 -0.00000000000E+00 -0.00000000000E+00 -0.45593999997E+02  0.45594000000E+02  0.51100000000E-03 0. -1.
    9900012    2    1    2    0    0 -0.47238092585E+00 -0.88632730646E+00  0.62024825615E+00  0.90007564600E+02  0.89999823653E+02 0.  0.
         12    1    1    2    0    0  0.47238092585E+00  0.88632730646E+00 -0.62024825615E+00  0.11804353996E+01  0.00000000000E+00 0. -1.
         11    1    3    3    0    0  0.37115192330E+02 -0.17249507503E+02  0.19262927732E+01  0.40973084029E+02  0.51100000000E-03 0. -1.
        -11    1    3    3    0    0 -0.19262170390E+01  0.82352686742E+01 -0.82390876510E+01  0.11807308237E+02  0.51100000000E-03 0.  1.
        -12    1    3    3    0    0 -0.35661356216E+02  0.81279115226E+01  0.69330431339E+01  0.37227172334E+02  0.00000000000E+00 0.  1.
</event>
<event>
 7    1  0.1971192E-015  0.9000769E+02  0.7816164E-02  0.1186339E+00
        -11   -1    0    0    0    0  0.00000000000E+00  0.00000000000E+00  0.45593999997E+02  0.45594000000E+02  0.51100000000E-03 0. -1.
         11   -1    0    0    0    0 -0.00000000000E+00 -0.00000000000E+00 -0.45593999997E+02  0.45594000000E+02  0.51100000000E-03 0.  1.
    9900012    2    1    2    0    0  0.43390598323E+00 -0.31252185146E+00  0.10522328381E+01  0.90007687221E+02  0.89999947893E+02 0.  0.
         12    1    1    2    0    0 -0.43390598323E+00  0.31252185146E+00 -0.10522328381E+01  0.11803127787E+01  0.00000000000E+00 0. -1.
         11    1    3    3    0    0 -0.11763808356E+02  0.20115291885E+02  0.29315554305E+02  0.37448816792E+02  0.51100000000E-03 0. -1.
        -11    1    3    3    0    0  0.15021627071E+01  0.89724263322E+01  0.16825031070E+01  0.92515806245E+01  0.51100000000E-03 0.  1.
        -12    1    3    3    0    0  0.10695551632E+02 -0.29400240068E+02 -0.29945824574E+02  0.43307289805E+02  0.00000000000E+00 0.  1.
</event>
<event>
 7    1  0.1971192E-015  0.9000776E+02  0.7816164E-02  0.1186339E+00
        -11   -1    0    0    0    0  0.00000000000E+00  0.00000000000E+00  0.45593999997E+02  0.45594000000E+02  0.51100000000E-03 0.  1.
         11   -1    0    0    0    0 -0.00000000000E+00 -0.00000000000E+00 -0.45593999997E+02  0.45594000000E+02  0.51100000000E-03 0. -1.
    9900012    2    1    2    0    0  0.80071152943E-01  0.33248446268E+00  0.11296049257E+01  0.90007760789E+02  0.90000022431E+02 0.  0.
         12    1    1    2    0    0 -0.80071152943E-01 -0.33248446268E+00 -0.11296049257E+01  0.11802392112E+01  0.00000000000E+00 0. -1.
         11    1    3    3    0    0 -0.28165190434E+01 -0.11386487962E+02  0.36303197070E+01  0.12278603710E+02  0.51100000000E-03 0. -1.
        -11    1    3    3    0    0  0.18260005820E+02 -0.25312796878E+02 -0.16447837792E+02  0.35280261715E+02  0.51100000000E-03 0.  1.
         12    1    3    3    0    0 -0.15363415624E+02  0.37031769303E+02  0.13947123011E+02  0.42448895364E+02  0.00000000000E+00 0. -1.
</event>
<event>
 7    1  0.1971192E-015  0.9000807E+02  0.7816164E-02  0.1186338E+00
        -11   -1    0    0    0    0  0.00000000000E+00  0.00000000000E+00  0.45593999997E+02  0.45594000000E+02  0.51100000000E-03 0.  1.
         11   -1    0    0    0    0 -0.00000000000E+00 -0.00000000000E+00 -0.45593999997E+02  0.45594000000E+02  0.51100000000E-03 0. -1.
    9900012    2    1    2    0    0 -0.33884993228E+00 -0.22537290447E+00  0.11075249715E+01  0.90008074670E+02  0.90000340455E+02 0.  0.
         12    1    1    2    0    0  0.33884993228E+00  0.22537290447E+00 -0.11075249715E+01  0.11799253304E+01  0.00000000000E+00 0. -1.
         11    1    3    3    0    0 -0.17455583957E+02  0.27223556587E+02 -0.24556478689E+02  0.40605912013E+02  0.51100000000E-03 0. -1.
        -11    1    3    3    0    0  0.10365346939E+02 -0.30150311494E+01 -0.29338659639E+01  0.11186527600E+02  0.51100000000E-03 0.  1.
        -12    1    3    3    0    0  0.67513870861E+01 -0.24433898342E+02  0.28597869624E+02  0.38215635057E+02  0.00000000000E+00 0.  1.
</event>
<event>
 7    1  0.2909450E-015  0.9000772E+02  0.7816164E-02  0.1186339E+00
        -11   -1    0    0    0    0  0.00000000000E+00  0.00000000000E+00  0.45593999997E+02  0.45594000000E+02  0.51100000000E-03 0. -1.
         11   -1    0    0    0    0 -0.00000000000E+00 -0.00000000000E+00 -0.45593999997E+02  0.45594000000E+02  0.51100000000E-03 0.  1.
    9900012    2    1    2    0    0 -0.39656343624E+00 -0.55418003458E+00 -0.96368469259E+00  0.90007717722E+02  0.89999978796E+02 0.  0.
         12    1    1    2    0    0  0.39656343624E+00  0.55418003458E+00  0.96368469259E+00  0.11802822783E+01  0.00000000000E+00 0. -1.
         11    1    3    3    0    0 -0.26242653080E+02  0.25780000953E+02  0.13809748462E+02  0.39293694693E+02  0.51100000000E-03 0. -1.
        -11    1    3    3    0    0 -0.26030273715E+01 -0.56784565844E+01  0.69833460003E+01  0.93695113159E+01  0.51100000000E-03 0.  1.
        -12    1    3    3    0    0  0.28449117015E+02 -0.20655724403E+02 -0.21756779155E+02  0.41344511713E+02  0.00000000000E+00 0.  1.
</event>
<event>
 7    1  0.2657631E-015  0.9000768E+02  0.7816164E-02  0.1186339E+00
        -11   -1    0    0    0    0  0.00000000000E+00  0.00000000000E+00  0.45593999997E+02  0.45594000000E+02  0.51100000000E-03 0. -1.
         11   -1    0    0    0    0 -0.00000000000E+00 -0.00000000000E+00 -0.45593999997E+02  0.45594000000E+02  0.51100000000E-03 0.  1.
    9900012    2    1    2    0    0  0.76148831243E+00  0.18930321989E+00 -0.88172987283E+00  0.90007683209E+02  0.89999943827E+02 0.  0.
         12    1    1    2    0    0 -0.76148831243E+00 -0.18930321989E+00  0.88172987283E+00  0.11803167912E+01  0.00000000000E+00 0. -1.
         11    1    3    3    0    0 -0.11829316637E+02 -0.74299074516E+00  0.33096546545E+02  0.35154888149E+02  0.51100000000E-03 0. -1.
        -11    1    3    3    0    0 -0.62137318528E+01 -0.54645355424E+00  0.72202068379E+01  0.95415125671E+01  0.51100000000E-03 0.  1.
        -12    1    3    3    0    0  0.18804536802E+02  0.14787475193E+01 -0.41198483255E+02  0.45311282492E+02  0.00000000000E+00 0.  1.
</event>
<event>
 7    1  0.1971192E-015  0.9000775E+02  0.7816164E-02  0.1186339E+00
        -11   -1    0    0    0    0  0.00000000000E+00  0.00000000000E+00  0.45593999997E+02  0.45594000000E+02  0.51100000000E-03 0. -1.
         11   -1    0    0    0    0 -0.00000000000E+00 -0.00000000000E+00 -0.45593999997E+02  0.45594000000E+02  0.51100000000E-03 0.  1.
    9900012    2    1    2    0    0 -0.10835279076E+01 -0.13773083748E+00 -0.44720146368E+00  0.90007749324E+02  0.90000010815E+02 0.  0.
         12    1    1    2    0    0  0.10835279076E+01  0.13773083748E+00  0.44720146368E+00  0.11802506765E+01  0.00000000000E+00 0. -1.
         11    1    3    3    0    0  0.12506794625E+01  0.14002698038E+02  0.20119934057E+01  0.14201685435E+02  0.51100000000E-03 0. -1.
        -11    1    3    3    0    0  0.31395274813E+02 -0.44420782879E+01 -0.19045303429E+02  0.36988091638E+02  0.51100000000E-03 0.  1.
         12    1    3    3    0    0 -0.33729482183E+02 -0.96983505880E+01  0.16586108560E+02  0.38817972250E+02  0.00000000000E+00 0. -1.
</event>
<event>
 7    1  0.1971192E-015  0.9000792E+02  0.7816164E-02  0.1186339E+00
        -11   -1    0    0    0    0  0.00000000000E+00  0.00000000000E+00  0.45593999997E+02  0.45594000000E+02  0.51100000000E-03 0. -1.
         11   -1    0    0    0    0 -0.00000000000E+00 -0.00000000000E+00 -0.45593999997E+02  0.45594000000E+02  0.51100000000E-03 0.  1.
    9900012    2    1    2    0    0  0.71372825902E+00 -0.50161554330E+00 -0.79471190663E+00  0.90007918140E+02  0.90000181860E+02 0.  0.
         12    1    1    2    0    0 -0.71372825902E+00  0.50161554330E+00  0.79471190663E+00  0.11800818597E+01  0.00000000000E+00 0. -1.
         11    1    3    3    0    0 -0.59589297022E+00 -0.41213210743E+02  0.76016279570E+01  0.41912630269E+02  0.51100000000E-03 0. -1.
        -11    1    3    3    0    0  0.68095499181E+01  0.72124514873E+01  0.55825533238E+01  0.11382193480E+02  0.51100000000E-03 0.  1.
        -12    1    3    3    0    0 -0.54999286889E+01  0.33499143712E+02 -0.13978893187E+02  0.36713094391E+02  0.00000000000E+00 0.  1.
</event>
<event>
 7    1  0.1971192E-015  0.9000774E+02  0.7816164E-02  0.1186339E+00
        -11   -1    0    0    0    0  0.00000000000E+00  0.00000000000E+00  0.45593999997E+02  0.45594000000E+02  0.51100000000E-03 0.  1.
         11   -1    0    0    0    0 -0.00000000000E+00 -0.00000000000E+00 -0.45593999997E+02  0.45594000000E+02  0.51100000000E-03 0. -1.
    9900012    2    1    2    0    0  0.50161811968E+00 -0.10370718336E+01  0.25665865412E+00  0.90007740541E+02  0.90000001916E+02 0.  0.
         12    1    1    2    0    0 -0.50161811968E+00  0.10370718336E+01 -0.25665865412E+00  0.11802594591E+01  0.00000000000E+00 0. -1.
         11    1    3    3    0    0  0.32983904092E+02  0.18277570759E+02  0.10612743251E+02  0.39174453941E+02  0.51100000000E-03 0. -1.
        -11    1    3    3    0    0  0.17256735288E+01  0.34814039225E+01 -0.88870057406E+01  0.96993295487E+01  0.51100000000E-03 0.  1.
        -12    1    3    3    0    0 -0.34207959501E+02 -0.22796046515E+02 -0.14690788560E+01  0.41133957051E+02  0.00000000000E+00 0.  1.
</event>
<event>
 7    1  0.1971192E-015  0.9000769E+02  0.7816164E-02  0.1186339E+00
        -11   -1    0    0    0    0  0.00000000000E+00  0.00000000000E+00  0.45593999997E+02  0.45594000000E+02  0.51100000000E-03 0. -1.
         11   -1    0    0    0    0 -0.00000000000E+00 -0.00000000000E+00 -0.45593999997E+02  0.45594000000E+02  0.51100000000E-03 0.  1.
    9900012    2    1    2    0    0  0.10312831469E+01 -0.19813890002E+00  0.53881288190E+00  0.90007693568E+02  0.89999954323E+02 0.  0.
         12    1    1    2    0    0 -0.10312831469E+01  0.19813890002E+00 -0.53881288190E+00  0.11803064325E+01  0.00000000000E+00 0. -1.
         11    1    3    3    0    0  0.20082486432E+02  0.23078199776E+02  0.10676242948E+02  0.32402032806E+02  0.51100000000E-03 0. -1.
        -11    1    3    3    0    0 -0.17853151805E+02  0.28011482891E+01  0.13367307597E+02  0.22478131011E+02  0.51100000000E-03 0.  1.
        -12    1    3    3    0    0 -0.11980514799E+01 -0.26077486966E+02 -0.23504737663E+02  0.35127529751E+02  0.00000000000E+00 0.  1.
</event>
<event>
 7    1  0.2019786E-015  0.9000766E+02  0.7816164E-02  0.1186339E+00
        -11   -1    0    0    0    0  0.00000000000E+00  0.00000000000E+00  0.45593999997E+02  0.45594000000E+02  0.51100000000E-03 0. -1.
         11   -1    0    0    0    0 -0.00000000000E+00 -0.00000000000E+00 -0.45593999997E+02  0.45594000000E+02  0.51100000000E-03 0.  1.
    9900012    2    1    2    0    0  0.53078848594E-01 -0.61104469562E+00 -0.10084654056E+01  0.90007662989E+02  0.89999923341E+02 0.  0.
         12    1    1    2    0    0 -0.53078848594E-01  0.61104469562E+00  0.10084654056E+01  0.11803370105E+01  0.00000000000E+00 0. -1.
         11    1    3    3    0    0  0.22893387497E+01  0.39293390964E+02  0.10151296492E+02  0.40648006914E+02  0.51100000000E-03 0. -1.
        -11    1    3    3    0    0  0.76946225580E+01 -0.21513035084E+01 -0.59806629103E+01  0.99801629347E+01  0.51100000000E-03 0.  1.
        -12    1    3    3    0    0 -0.99308824592E+01 -0.37753132152E+02 -0.51790989869E+01  0.39379493140E+02  0.00000000000E+00 0.  1.
</event>
<event>
 7    1  0.1971192E-015  0.9000779E+02  0.7816164E-02  0.1186339E+00
        -11   -1    0    0    0    0  0.00000000000E+00  0.00000000000E+00  0.45593999997E+02  0.45594000000E+02  0.51100000000E-03 0. -1.
         11   -1    0    0    0    0 -0.00000000000E+00 -0.00000000000E+00 -0.45593999997E+02  0.45594000000E+02  0.51100000000E-03 0.  1.
    9900012    2    1    2    0    0 -0.11574205630E+01 -0.22806285125E+00  0.35611535589E-01  0.90007786797E+02  0.90000048782E+02 0.  0.
         12    1    1    2    0    0  0.11574205630E+01  0.22806285125E+00 -0.35611535589E-01  0.11802132033E+01  0.00000000000E+00 0. -1.
         11    1    3    3    0    0  0.41283673827E+01 -0.20117459682E+02  0.28145674143E+02  0.34841563893E+02  0.51100000000E-03 0. -1.
        -11    1    3    3    0    0  0.76415555155E+01 -0.58198222550E+01  0.53814135664E+01  0.11010145958E+02  0.51100000000E-03 0.  1.
        -12    1    3    3    0    0 -0.12927343461E+02  0.25709219086E+02 -0.33491476173E+02  0.44156076946E+02  0.00000000000E+00 0.  1.
</event>
<event>
 7    1  0.1971192E-015  0.9000775E+02  0.7816164E-02  0.1186339E+00
        -11   -1    0    0    0    0  0.00000000000E+00  0.00000000000E+00  0.45593999997E+02  0.45594000000E+02  0.51100000000E-03 0. -1.
         11   -1    0    0    0    0 -0.00000000000E+00 -0.00000000000E+00 -0.45593999997E+02  0.45594000000E+02  0.51100000000E-03 0.  1.
    9900012    2    1    2    0    0 -0.75865421375E+00 -0.76401314830E+00 -0.48343499047E+00  0.90007753544E+02  0.90000015091E+02 0.  0.
         12    1    1    2    0    0  0.75865421375E+00  0.76401314830E+00  0.48343499047E+00  0.11802464560E+01  0.00000000000E+00 0. -1.
         11    1    3    3    0    0 -0.11120556662E+02 -0.39426716957E+02  0.19837668195E+01  0.41013023803E+02  0.51100000000E-03 0. -1.
        -11    1    3    3    0    0 -0.36644698665E+01  0.36929723051E+01  0.83114514447E+01  0.98054377377E+01  0.51100000000E-03 0.  1.
        -12    1    3    3    0    0  0.14026372315E+02  0.34969731503E+02 -0.10778653255E+02  0.39189292003E+02  0.00000000000E+00 0.  1.
</event>
<event>
 7    1  0.1971192E-015  0.9000768E+02  0.7816164E-02  0.1186339E+00
        -11   -1    0    0    0    0  0.00000000000E+00  0.00000000000E+00  0.45593999997E+02  0.45594000000E+02  0.51100000000E-03 0.  1.
         11   -1    0    0    0    0 -0.00000000000E+00 -0.00000000000E+00 -0.45593999997E+02  0.45594000000E+02  0.51100000000E-03 0. -1.
    9900012    2    1    2    0    0  0.82371307099E+00  0.72647477896E+00  0.43229154961E+00  0.90007684444E+02  0.89999945079E+02 0.  0.
         12    1    1    2    0    0 -0.82371307099E+00 -0.72647477896E+00 -0.43229154961E+00  0.11803155560E+01  0.00000000000E+00 0. -1.
         11    1    3    3    0    0 -0.31383076677E+00  0.59506614731E+01 -0.55845345106E+01  0.81667550275E+01  0.51100000000E-03 0. -1.
        -11    1    3    3    0    0  0.36108197892E+02  0.14616995978E+02 -0.70013439226E+01  0.39578748634E+02  0.51100000000E-03 0.  1.
         12    1    3    3    0    0 -0.34970654054E+02 -0.19841182672E+02  0.13018169983E+02  0.42262180783E+02  0.00000000000E+00 0. -1.
</event>
<event>
 7    1  0.1971192E-015  0.9000783E+02  0.7816164E-02  0.1186339E+00
        -11   -1    0    0    0    0  0.00000000000E+00  0.00000000000E+00  0.45593999997E+02  0.45594000000E+02  0.51100000000E-03 0.  1.
         11   -1    0    0    0    0 -0.00000000000E+00 -0.00000000000E+00 -0.45593999997E+02  0.45594000000E+02  0.51100000000E-03 0. -1.
    9900012    2    1    2    0    0  0.57293493644E+00 -0.29108416014E+00  0.98985494210E+00  0.90007831692E+02  0.90000094270E+02 0.  0.
         12    1    1    2    0    0 -0.57293493644E+00  0.29108416014E+00 -0.98985494210E+00  0.11801683084E+01  0.00000000000E+00 0. -1.
         11    1    3    3    0    0 -0.14334739752E+01  0.52288103965E+01  0.14640284779E+01  0.56159313961E+01  0.51100000000E-03 0. -1.
        -11    1    3    3    0    0 -0.55660983665E+01  0.38800577154E+02  0.28853583454E+01  0.39303836092E+02  0.51100000000E-03 0.  1.
         12    1    3    3    0    0  0.75725072781E+01 -0.44320471711E+02 -0.33595318812E+01  0.45088064203E+02  0.00000000000E+00 0. -1.
</event>
<event>
 7    1  0.1971192E-015  0.9000774E+02  0.7816164E-02  0.1186339E+00
        -11   -1    0    0    0    0  0.00000000000E+00  0.00000000000E+00  0.45593999997E+02  0.45594000000E+02  0.51100000000E-03 0. -1.
         11   -1    0    0    0    0 -0.00000000000E+00 -0.00000000000E+00 -0.45593999997E+02  0.45594000000E+02  0.51100000000E-03 0.  1.
    9900012    2    1    2    0    0  0.91107800169E+00 -0.58533024695E+00  0.46940399012E+00  0.90007739550E+02  0.90000000912E+02 0.  0.
         12    1    1    2    0    0 -0.91107800169E+00  0.58533024695E+00 -0.46940399012E+00  0.11802604497E+01  0.00000000000E+00 0. -1.
         11    1    3    3    0    0 -0.51701175161E+00  0.68433527166E+01  0.36168625969E+00  0.68723791198E+01  0.51100000000E-03 0. -1.
        -11    1    3    3    0    0 -0.23786135850E+01  0.26148575620E+02 -0.28578550154E+02  0.38809011050E+02  0.51100000000E-03 0.  1.
         12    1    3    3    0    0  0.38067033383E+01 -0.33577258583E+02  0.28686267884E+02  0.44326349380E+02  0.00000000000E+00 0. -1.
</event>
<event>
 7    1  0.1971192E-015  0.9000767E+02  0.7816164E-02  0.1186339E+00
        -11   -1    0    0    0    0  0.00000000000E+00  0.00000000000E+00  0.45593999997E+02  0.45594000000E+02  0.51100000000E-03 0. -1.
         11   -1    0    0    0    0 -0.00000000000E+00 -0.00000000000E+00 -0.45593999997E+02  0.45594000000E+02  0.51100000000E-03 0.  1.
    9900012    2    1    2    0    0  0.23838364515E+00 -0.97744268880E+00 -0.61722534411E+00  0.90007666108E+02  0.89999926500E+02 0.  0.
         12    1    1    2    0    0 -0.23838364515E+00  0.97744268880E+00  0.61722534411E+00  0.11803338924E+01  0.00000000000E+00 0. -1.
         11    1    3    3    0    0  0.48705622775E+01 -0.47886385007E+01  0.41930023635E+02  0.42482706104E+02  0.51100000000E-03 0. -1.
        -11    1    3    3    0    0  0.31468768684E+01 -0.44196724981E+01 -0.26245781990E+01  0.60270017421E+01  0.51100000000E-03 0.  1.
        -12    1    3    3    0    0 -0.77790555008E+01  0.82308683100E+01 -0.39922670781E+02  0.41497958261E+02  0.00000000000E+00 0.  1.
</event>
<event>
 7    1  0.1971192E-015  0.9000777E+02  0.7816164E-02  0.1186339E+00
        -11   -1    0    0    0    0  0.00000000000E+00  0.00000000000E+00  0.45593999997E+02  0.45594000000E+02  0.51100000000E-03 0. -1.
         11   -1    0    0    0    0 -0.00000000000E+00 -0.00000000000E+00 -0.45593999997E+02  0.45594000000E+02  0.51100000000E-03 0.  1.
    9900012    2    1    2    0    0  0.29160910291E+00 -0.81907716993E+00 -0.79813205304E+00  0.90007772033E+02  0.90000033824E+02 0.  0.
         12    1    1    2    0    0 -0.29160910291E+00  0.81907716993E+00  0.79813205304E+00  0.11802279667E+01  0.00000000000E+00 0. -1.
         11    1    3    3    0    0 -0.41299385703E+01  0.83663884517E+01 -0.34982018974E+01  0.99644500649E+01  0.51100000000E-03 0. -1.
        -11    1    3    3    0    0  0.14816499551E+02  0.15056297787E+02 -0.30835882224E+02  0.37377431624E+02  0.51100000000E-03 0.  1.
         12    1    3    3    0    0 -0.10394951877E+02 -0.24241763409E+02  0.33535952069E+02  0.42665890344E+02  0.00000000000E+00 0. -1.
</event>
<event>
 7    1  0.1971192E-015  0.9000779E+02  0.7816164E-02  0.1186339E+00
        -11   -1    0    0    0    0  0.00000000000E+00  0.00000000000E+00  0.45593999997E+02  0.45594000000E+02  0.51100000000E-03 0.  1.
         11   -1    0    0    0    0 -0.00000000000E+00 -0.00000000000E+00 -0.45593999997E+02  0.45594000000E+02  0.51100000000E-03 0. -1.
    9900012    2    1    2    0    0 -0.16660359273E+00  0.79000480574E+00  0.86083724998E+00  0.90007785985E+02  0.90000047960E+02 0.  0.
         12    1    1    2    0    0  0.16660359273E+00 -0.79000480574E+00 -0.86083724998E+00  0.11802140150E+01  0.00000000000E+00 0. -1.
         11    1    3    3    0    0  0.11022421372E-01  0.10107982914E-01  0.87864673777E+01  0.87864801204E+01  0.51100000000E-03 0. -1.
        -11    1    3    3    0    0  0.80055221232E+01 -0.11625361684E+02  0.33960426018E+02  0.36777003063E+02  0.51100000000E-03 0.  1.
         12    1    3    3    0    0 -0.81831481373E+01  0.12405258507E+02 -0.41886056146E+02  0.44444302801E+02  0.00000000000E+00 0. -1.
</event>
<event>
 7    1  0.1971192E-015  0.9000758E+02  0.7816164E-02  0.1186339E+00
        -11   -1    0    0    0    0  0.00000000000E+00  0.00000000000E+00  0.45593999997E+02  0.45594000000E+02  0.51100000000E-03 0. -1.
         11   -1    0    0    0    0 -0.00000000000E+00 -0.00000000000E+00 -0.45593999997E+02  0.45594000000E+02  0.51100000000E-03 0.  1.
    9900012    2    1    2    0    0 -0.53499997936E+00 -0.25949083957E+00 -0.10197173809E+01  0.90007583120E+02  0.89999842417E+02 0.  0.
         12    1    1    2    0    0  0.53499997936E+00  0.25949083957E+00  0.10197173809E+01  0.11804168800E+01  0.00000000000E+00 0. -1.
         11    1    3    3    0    0  0.24331745784E+02 -0.16655491095E+02 -0.21911133857E+02  0.36736045291E+02  0.51100000000E-03 0. -1.
        -11    1    3    3    0    0  0.17346823384E+01 -0.61153416354E+01 -0.63910578497E+01  0.90139972727E+01  0.51100000000E-03 0.  1.
        -12    1    3    3    0    0 -0.26601428101E+02  0.22511341891E+02  0.27282474326E+02  0.44257540556E+02  0.00000000000E+00 0.  1.
</event>
<event>
 7    1  0.1971192E-015  0.9000771E+02  0.7816164E-02  0.1186339E+00
        -11   -1    0    0    0    0  0.00000000000E+00  0.00000000000E+00  0.45593999997E+02  0.45594000000E+02  0.51100000000E-03 0. -1.
         11   -1    0    0    0    0 -0.00000000000E+00 -0.00000000000E+00 -0.45593999997E+02  0.45594000000E+02  0.51100000000E-03 0.  1.
    9900012    2    1    2    0    0 -0.70085401355E+00  0.44023207053E+00 -0.84147449578E+00  0.90007711920E+02  0.89999972918E+02 0.  0.
         12    1    1    2    0    0  0.70085401355E+00 -0.44023207053E+00  0.84147449578E+00  0.11802880798E+01  0.00000000000E+00 0. -1.
         11    1    3    3    0    0 -0.65251620296E+01 -0.51353615697E+01 -0.93902758597E+01  0.12535029276E+02  0.51100000000E-03 0. -1.
        -11    1    3    3    0    0  0.11660310542E+02  0.11117112541E+02 -0.32163370049E+02  0.35972703628E+02  0.51100000000E-03 0.  1.
         12    1    3    3    0    0 -0.58360025256E+01 -0.55415189011E+01  0.40712171413E+02  0.41499979016E+02  0.00000000000E+00 0. -1.
</event>
<event>
 7    1  0.1971192E-015  0.9000682E+02  0.7816164E-02  0.1186341E+00
        -11   -1    0    0    0    0  0.00000000000E+00  0.00000000000E+00  0.45593999997E+02  0.45594000000E+02  0.51100000000E-03 0.  1.
         11   -1    0    0    0    0 -0.00000000000E+00 -0.00000000000E+00 -0.45593999997E+02  0.45594000000E+02  0.51100000000E-03 0. -1.
    9900012    2    1    2    0    0 -0.93557973981E+00  0.61159193941E+00  0.38187894460E+00  0.90006820218E+02  0.89999069440E+02 0.  0.
         12    1    1    2    0    0  0.93557973981E+00 -0.61159193941E+00 -0.38187894460E+00  0.11811797823E+01  0.00000000000E+00 0. -1.
         11    1    3    3    0    0 -0.20693794573E+02 -0.17038418933E+02 -0.32272305696E+02  0.41952861270E+02  0.51100000000E-03 0. -1.
        -11    1    3    3    0    0  0.44821719574E+01 -0.57442099948E+01  0.75529162245E+01  0.10494396489E+02  0.51100000000E-03 0.  1.
        -12    1    3    3    0    0  0.15276042876E+02  0.23394220868E+02  0.25101268416E+02  0.37559562458E+02  0.00000000000E+00 0.  1.
</event>
<event>
 7    1  0.1971192E-015  0.9000793E+02  0.7816164E-02  0.1186339E+00
        -11   -1    0    0    0    0  0.00000000000E+00  0.00000000000E+00  0.45593999997E+02  0.45594000000E+02  0.51100000000E-03 0. -1.
         11   -1    0    0    0    0 -0.00000000000E+00 -0.00000000000E+00 -0.45593999997E+02  0.45594000000E+02  0.51100000000E-03 0.  1.
    9900012    2    1    2    0    0  0.10762496730E+01  0.28249106565E+00 -0.39299283881E+00  0.90007933082E+02  0.90000196998E+02 0.  0.
         12    1    1    2    0    0 -0.10762496730E+01 -0.28249106565E+00  0.39299283881E+00  0.11800669185E+01  0.00000000000E+00 0. -1.
         11    1    3    3    0    0  0.96963433118E+01  0.84397380626E+00 -0.12645546909E+01  0.98148084155E+01  0.51100000000E-03 0. -1.
        -11    1    3    3    0    0 -0.18634524541E+02 -0.20840077617E+02 -0.30593642383E+02  0.41443036743E+02  0.51100000000E-03 0.  1.
         12    1    3    3    0    0  0.10014430902E+02  0.20278594877E+02  0.31465204235E+02  0.38750087923E+02  0.00000000000E+00 0. -1.
</event>
<event>
 7    1  0.1971192E-015  0.9000773E+02  0.7816164E-02  0.1186339E+00
        -11   -1    0    0    0    0  0.00000000000E+00  0.00000000000E+00  0.45593999997E+02  0.45594000000E+02  0.51100000000E-03 0.  1.
         11   -1    0    0    0    0 -0.00000000000E+00 -0.00000000000E+00 -0.45593999997E+02  0.45594000000E+02  0.51100000000E-03 0. -1.
    9900012    2    1    2    0    0  0.90030428092E+00  0.58665603331E+00  0.48817753440E+00  0.90007732910E+02  0.89999994184E+02 0.  0.
         12    1    1    2    0    0 -0.90030428092E+00 -0.58665603331E+00 -0.48817753440E+00  0.11802670904E+01  0.00000000000E+00 0. -1.
         11    1    3    3    0    0  0.29241820006E+01  0.47575177752E+01  0.66572689005E+01  0.86893063721E+01  0.51100000000E-03 0. -1.
        -11    1    3    3    0    0 -0.19315210610E+02  0.34039624469E+02 -0.34468501878E+01  0.39289364609E+02  0.51100000000E-03 0.  1.
         12    1    3    3    0    0  0.17291332890E+02 -0.38210486211E+02 -0.27222411783E+01  0.42029061929E+02  0.00000000000E+00 0. -1.
</event>
<event>
 7    1  0.1971192E-015  0.9000773E+02  0.7816164E-02  0.1186339E+00
        -11   -1    0    0    0    0  0.00000000000E+00  0.00000000000E+00  0.45593999997E+02  0.45594000000E+02  0.51100000000E-03 0.  1.
         11   -1    0    0    0    0 -0.00000000000E+00 -0.00000000000E+00 -0.45593999997E+02  0.45594000000E+02  0.51100000000E-03 0. -1.
    9900012    2    1    2    0    0  0.65248299092E+00 -0.80948427044E+00 -0.55860707011E+00  0.90007728550E+02  0.89999989767E+02 0.  0.
         12    1    1    2    0    0 -0.65248299092E+00  0.80948427044E+00  0.55860707011E+00  0.11802714503E+01  0.00000000000E+00 0. -1.
         11    1    3    3    0    0  0.86523921552E+01 -0.36891271831E+00 -0.23211708687E+02  0.24774652511E+02  0.51100000000E-03 0. -1.
        -11    1    3    3    0    0  0.39379092687E+00  0.46177714495E+00 -0.20880078915E+02  0.20888896696E+02  0.51100000000E-03 0.  1.
        -12    1    3    3    0    0 -0.83937000911E+01 -0.90234869707E+00  0.43533180532E+02  0.44344179343E+02  0.00000000000E+00 0.  1.
</event>
<event>
 7    1  0.1971192E-015  0.9000776E+02  0.7816164E-02  0.1186339E+00
        -11   -1    0    0    0    0  0.00000000000E+00  0.00000000000E+00  0.45593999997E+02  0.45594000000E+02  0.51100000000E-03 0. -1.
         11   -1    0    0    0    0 -0.00000000000E+00 -0.00000000000E+00 -0.45593999997E+02  0.45594000000E+02  0.51100000000E-03 0.  1.
    9900012    2    1    2    0    0 -0.38568612210E+00  0.23471639778E+00 -0.10904725225E+01  0.90007756002E+02  0.90000017581E+02 0.  0.
         12    1    1    2    0    0  0.38568612210E+00 -0.23471639778E+00  0.10904725225E+01  0.11802439979E+01  0.00000000000E+00 0. -1.
         11    1    3    3    0    0 -0.14680466370E+02  0.21591619524E+02 -0.23218026315E+02  0.34939817870E+02  0.51100000000E-03 0. -1.
        -11    1    3    3    0    0 -0.13657976645E+02 -0.12826232303E+02  0.55793338910E+00  0.18744701947E+02  0.51100000000E-03 0.  1.
        -12    1    3    3    0    0  0.27952756893E+02 -0.85306708232E+01  0.21569620404E+02  0.36323236186E+02  0.00000000000E+00 0.  1.
</event>
<event>
 7    1  0.1971192E-015  0.9000773E+02  0.7816164E-02  0.1186339E+00
        -11   -1    0    0    0    0  0.00000000000E+00  0.00000000000E+00  0.45593999997E+02  0.45594000000E+02  0.51100000000E-03 0. -1.
         11   -1    0    0    0    0 -0.00000000000E+00 -0.00000000000E+00 -0.45593999997E+02  0.45594000000E+02  0.51100000000E-03 0.  1.
    9900012    2    1    2    0    0  0.92418849058E+00  0.46470945228E+00 -0.56828507120E+00  0.90007734283E+02  0.89999995575E+02 0.  0.
         12    1    1    2    0    0 -0.92418849058E+00 -0.46470945228E+00  0.56828507120E+00  0.11802657172E+01  0.00000000000E+00 0. -1.
         11    1    3    3    0    0  0.17289588007E+02 -0.25956311155E+02  0.15648823782E+02  0.34893346475E+02  0.51100000000E-03 0. -1.
        -11    1    3    3    0    0 -0.25240196782E+01 -0.87686080534E+01  0.63145865623E+01  0.11096538480E+02  0.51100000000E-03 0.  1.
        -12    1    3    3    0    0 -0.13841379838E+02  0.35189628661E+02 -0.22531695415E+02  0.44017849327E+02  0.00000000000E+00 0.  1.
</event>
<event>
 7    1  0.1971192E-015  0.9000776E+02  0.7816164E-02  0.1186339E+00
        -11   -1    0    0    0    0  0.00000000000E+00  0.00000000000E+00  0.45593999997E+02  0.45594000000E+02  0.51100000000E-03 0. -1.
         11   -1    0    0    0    0 -0.00000000000E+00 -0.00000000000E+00 -0.45593999997E+02  0.45594000000E+02  0.51100000000E-03 0.  1.
    9900012    2    1    2    0    0 -0.71074224542E+00 -0.65386187068E+00  0.67843413083E+00  0.90007761568E+02  0.90000023221E+02 0.  0.
         12    1    1    2    0    0  0.71074224542E+00  0.65386187068E+00 -0.67843413083E+00  0.11802384315E+01  0.00000000000E+00 0. -1.
         11    1    3    3    0    0  0.86845866256E+01 -0.97541141755E-01 -0.33132885014E+01  0.92956678128E+01  0.51100000000E-03 0. -1.
        -11    1    3    3    0    0 -0.32738152659E+02 -0.24051260783E+02  0.18397762045E+02  0.44595150334E+02  0.51100000000E-03 0.  1.
         12    1    3    3    0    0  0.23342823788E+02  0.23494940054E+02 -0.14406039413E+02  0.36116943422E+02  0.00000000000E+00 0. -1.
</event>
<event>
 7    1  0.1971192E-015  0.9000777E+02  0.7816164E-02  0.1186339E+00
        -11   -1    0    0    0    0  0.00000000000E+00  0.00000000000E+00  0.45593999997E+02  0.45594000000E+02  0.51100000000E-03 0.  1.
         11   -1    0    0    0    0 -0.00000000000E+00 -0.00000000000E+00 -0.45593999997E+02  0.45594000000E+02  0.51100000000E-03 0. -1.
    9900012    2    1    2    0    0 -0.50893630300E+00  0.54292396926E+00  0.91605518273E+00  0.90007771338E+02  0.90000033120E+02 0.  0.
         12    1    1    2    0    0  0.50893630300E+00 -0.54292396926E+00 -0.91605518273E+00  0.11802286621E+01  0.00000000000E+00 0. -1.
         11    1    3    3    0    0  0.36296028204E+02  0.19578056268E+02  0.52149456611E+00  0.41242864928E+02  0.51100000000E-03 0. -1.
        -11    1    3    3    0    0 -0.38343295233E-01 -0.53452426981E+01  0.71785124744E+01  0.89500911345E+01  0.51100000000E-03 0.  1.
        -12    1    3    3    0    0 -0.36766621212E+02 -0.13689889600E+02 -0.67839518578E+01  0.39814815275E+02  0.00000000000E+00 0.  1.
</event>
<event>
 7    1  0.1971192E-015  0.9000772E+02  0.7816164E-02  0.1186339E+00
        -11   -1    0    0    0    0  0.00000000000E+00  0.00000000000E+00  0.45593999997E+02  0.45594000000E+02  0.51100000000E-03 0. -1.
         11   -1    0    0    0    0 -0.00000000000E+00 -0.00000000000E+00 -0.45593999997E+02  0.45594000000E+02  0.51100000000E-03 0.  1.
    9900012    2    1    2    0    0 -0.70494879377E+00 -0.55485780714E+00 -0.76696722150E+00  0.90007720920E+02  0.89999982036E+02 0.  0.
         12    1    1    2    0    0  0.70494879377E+00  0.55485780714E+00  0.76696722150E+00  0.11802790801E+01  0.00000000000E+00 0. -1.
         11    1    3    3    0    0  0.18520271749E+02  0.30412448262E+02  0.12420510509E+02  0.37711888796E+02  0.51100000000E-03 0. -1.
        -11    1    3    3    0    0  0.45125919322E+01  0.26744478294E+01 -0.96337936310E+01  0.10969327104E+02  0.51100000000E-03 0.  1.
        -12    1    3    3    0    0 -0.23737812475E+02 -0.33641753899E+02 -0.35536840994E+01  0.41326505020E+02  0.00000000000E+00 0.  1.
</event>
<event>
 7    1  0.1971192E-015  0.9000771E+02  0.7816164E-02  0.1186339E+00
        -11   -1    0    0    0    0  0.00000000000E+00  0.00000000000E+00  0.45593999997E+02  0.45594000000E+02  0.51100000000E-03 0. -1.
         11   -1    0    0    0    0 -0.00000000000E+00 -0.00000000000E+00 -0.45593999997E+02  0.45594000000E+02  0.51100000000E-03 0.  1.
    9900012    2    1    2    0    0  0.10990900288E+01 -0.38271163689E-01  0.42850443028E+00  0.90007712061E+02  0.89999973060E+02 0.  0.
         12    1    1    2    0    0 -0.10990900288E+01  0.38271163689E-01 -0.42850443028E+00  0.11802879395E+01  0.00000000000E+00 0. -1.
         11    1    3    3    0    0 -0.22571822599E+02 -0.22040542731E+02 -0.58641894488E+01  0.32088337717E+02  0.51100000000E-03 0. -1.
        -11    1    3    3    0    0 -0.65107886857E+01  0.16848738470E+02 -0.12524964356E+02  0.21980561633E+02  0.51100000000E-03 0.  1.
        -12    1    3    3    0    0  0.30181701314E+02  0.51535330969E+01  0.18817658235E+02  0.35938812710E+02  0.00000000000E+00 0.  1.
</event>
<event>
 7    1  0.1971192E-015  0.9000772E+02  0.7816164E-02  0.1186339E+00
        -11   -1    0    0    0    0  0.00000000000E+00  0.00000000000E+00  0.45593999997E+02  0.45594000000E+02  0.51100000000E-03 0.  1.
         11   -1    0    0    0    0 -0.00000000000E+00 -0.00000000000E+00 -0.45593999997E+02  0.45594000000E+02  0.51100000000E-03 0. -1.
    9900012    2    1    2    0    0  0.39831191458E+00  0.10427572033E+01  0.38347726743E+00  0.90007724701E+02  0.89999985867E+02 0.  0.
         12    1    1    2    0    0 -0.39831191458E+00 -0.10427572033E+01 -0.38347726743E+00  0.11802752988E+01  0.00000000000E+00 0. -1.
         11    1    3    3    0    0 -0.44791092686E+01 -0.59971732522E+01  0.52523063381E+01  0.91441363172E+01  0.51100000000E-03 0. -1.
        -11    1    3    3    0    0  0.17553112336E+02 -0.31609337001E+02  0.10070012396E+02  0.37532214006E+02  0.51100000000E-03 0.  1.
         12    1    3    3    0    0 -0.12675691152E+02  0.38649267456E+02 -0.14938841467E+02  0.43331374378E+02  0.00000000000E+00 0. -1.
</event>
<event>
 7    1  0.1971192E-015  0.9000769E+02  0.7816164E-02  0.1186339E+00
        -11   -1    0    0    0    0  0.00000000000E+00  0.00000000000E+00  0.45593999997E+02  0.45594000000E+02  0.51100000000E-03 0. -1.
         11   -1    0    0    0    0 -0.00000000000E+00 -0.00000000000E+00 -0.45593999997E+02  0.45594000000E+02  0.51100000000E-03 0.  1.
    9900012    2    1    2    0    0  0.57969891828E+00  0.84461243648E+00 -0.58626602204E+00  0.90007691205E+02  0.89999951929E+02 0.  0.
         12    1    1    2    0    0 -0.57969891828E+00 -0.84461243648E+00  0.58626602204E+00  0.11803087953E+01  0.00000000000E+00 0. -1.
         11    1    3    3    0    0  0.92909880801E+01  0.39451737429E+02  0.77131655469E+00  0.40538339571E+02  0.51100000000E-03 0. -1.
        -11    1    3    3    0    0  0.36219415903E+01 -0.98724845650E+01 -0.12444315672E+02  0.16292495363E+02  0.51100000000E-03 0.  1.
        -12    1    3    3    0    0 -0.12333230752E+02 -0.28734640427E+02  0.11086733095E+02  0.33176856271E+02  0.00000000000E+00 0.  1.
</event>
<event>
 7    1  0.1971192E-015  0.9000745E+02  0.7816164E-02  0.1186340E+00
        -11   -1    0    0    0    0  0.00000000000E+00  0.00000000000E+00  0.45593999997E+02  0.45594000000E+02  0.51100000000E-03 0.  1.
         11   -1    0    0    0    0 -0.00000000000E+00 -0.00000000000E+00 -0.45593999997E+02  0.45594000000E+02  0.51100000000E-03 0. -1.
    9900012    2    1    2    0    0 -0.39613291576E+00 -0.61331842753E+00  0.92769599041E+00  0.90007449014E+02  0.89999706540E+02 0.  0.
         12    1    1    2    0    0  0.39613291576E+00  0.61331842753E+00 -0.92769599041E+00  0.11805509862E+01  0.00000000000E+00 0. -1.
         11    1    3    3    0    0  0.35097117842E+01 -0.16020508328E+01  0.12418765284E+02  0.13004244504E+02  0.51100000000E-03 0. -1.
        -11    1    3    3    0    0  0.19099190803E+01 -0.11594506190E+02  0.30551969357E+02  0.32733823433E+02  0.51100000000E-03 0.  1.
         12    1    3    3    0    0 -0.58157637802E+01  0.12583238595E+02 -0.42043038651E+02  0.44269381077E+02  0.00000000000E+00 0. -1.
</event>
<event>
 7    1  0.1971192E-015  0.9000813E+02  0.7816164E-02  0.1186338E+00
        -11   -1    0    0    0    0  0.00000000000E+00  0.00000000000E+00  0.45593999997E+02  0.45594000000E+02  0.51100000000E-03 0.  1.
         11   -1    0    0    0    0 -0.00000000000E+00 -0.00000000000E+00 -0.45593999997E+02  0.45594000000E+02  0.51100000000E-03 0. -1.
    9900012    2    1    2    0    0  0.10659899944E+01 -0.38792688197E+00 -0.32446470216E+00  0.90008127432E+02  0.90000393913E+02 0.  0.
         12    1    1    2    0    0 -0.10659899944E+01  0.38792688197E+00  0.32446470216E+00  0.11798725681E+01  0.00000000000E+00 0. -1.
         11    1    3    3    0    0 -0.32532083430E+02  0.28125146407E+02 -0.51889588581E+00  0.43007319911E+02  0.51100000000E-03 0. -1.
        -11    1    3    3    0    0  0.18580399178E+01 -0.95586154370E+01  0.21801217643E+01  0.99785957217E+01  0.51100000000E-03 0.  1.
        -12    1    3    3    0    0  0.31740033507E+02 -0.18954457852E+02 -0.19856905807E+01  0.37022211800E+02  0.00000000000E+00 0.  1.
</event>
<event>
 7    1  0.1971192E-015  0.9000759E+02  0.7816164E-02  0.1186339E+00
        -11   -1    0    0    0    0  0.00000000000E+00  0.00000000000E+00  0.45593999997E+02  0.45594000000E+02  0.51100000000E-03 0.  1.
         11   -1    0    0    0    0 -0.00000000000E+00 -0.00000000000E+00 -0.45593999997E+02  0.45594000000E+02  0.51100000000E-03 0. -1.
    9900012    2    1    2    0    0 -0.86206458033E-01 -0.11171670923E+01  0.37131665361E+00  0.90007589087E+02  0.89999848463E+02 0.  0.
         12    1    1    2    0    0  0.86206458033E-01  0.11171670923E+01 -0.37131665361E+00  0.11804109127E+01  0.00000000000E+00 0. -1.
         11    1    3    3    0    0  0.83192508924E+00 -0.76232777086E+01  0.49443419688E+01  0.91243071048E+01  0.51100000000E-03 0. -1.
        -11    1    3    3    0    0  0.35190897319E+02 -0.13705254501E+02 -0.10207734499E+02  0.39120724672E+02  0.51100000000E-03 0.  1.
         12    1    3    3    0    0 -0.36109028866E+02  0.20211365117E+02  0.56347091839E+01  0.41762557310E+02  0.00000000000E+00 0. -1.
</event>
<event>
 7    1  0.1971192E-015  0.9000779E+02  0.7816164E-02  0.1186339E+00
        -11   -1    0    0    0    0  0.00000000000E+00  0.00000000000E+00  0.45593999997E+02  0.45594000000E+02  0.51100000000E-03 0. -1.
         11   -1    0    0    0    0 -0.00000000000E+00 -0.00000000000E+00 -0.45593999997E+02  0.45594000000E+02  0.51100000000E-03 0.  1.
    9900012    2    1    2    0    0  0.10950218174E+01  0.39420614299E-01  0.43848450205E+00  0.90007790093E+02  0.90000052123E+02 0.  0.
         12    1    1    2    0    0 -0.10950218174E+01 -0.39420614299E-01 -0.43848450205E+00  0.11802099067E+01  0.00000000000E+00 0. -1.
         11    1    3    3    0    0  0.88430483127E-01  0.94477228628E+01  0.30063740370E+01  0.99149166590E+01  0.51100000000E-03 0. -1.
        -11    1    3    3    0    0  0.33714193559E+02 -0.19829851907E+02  0.14552082226E+02  0.41732876385E+02  0.51100000000E-03 0.  1.
         12    1    3    3    0    0 -0.32707602225E+02  0.10421549658E+02 -0.17119971761E+02  0.38359997050E+02  0.00000000000E+00 0. -1.
</event>
<event>
 7    1  0.1971192E-015  0.9000781E+02  0.7816164E-02  0.1186339E+00
        -11   -1    0    0    0    0  0.00000000000E+00  0.00000000000E+00  0.45593999997E+02  0.45594000000E+02  0.51100000000E-03 0. -1.
         11   -1    0    0    0    0 -0.00000000000E+00 -0.00000000000E+00 -0.45593999997E+02  0.45594000000E+02  0.51100000000E-03 0.  1.
    9900012    2    1    2    0    0  0.12247706079E+00  0.23772254372E+00 -0.11494943000E+01  0.90007809429E+02  0.90000071713E+02 0.  0.
         12    1    1    2    0    0 -0.12247706079E+00 -0.23772254372E+00  0.11494943000E+01  0.11801905710E+01  0.00000000000E+00 0. -1.
         11    1    3    3    0    0 -0.29513603897E+01 -0.88367270336E+01  0.35095288800E+01  0.99556549778E+01  0.51100000000E-03 0. -1.
        -11    1    3    3    0    0  0.25728658296E+01 -0.68736892149E+01 -0.40320906855E+02  0.40983445095E+02  0.51100000000E-03 0.  1.
         12    1    3    3    0    0  0.50097162090E+00  0.15948138792E+02  0.35661883675E+02  0.39068709356E+02  0.00000000000E+00 0. -1.
</event>
<event>
 7    1  0.1971192E-015  0.9000778E+02  0.7816164E-02  0.1186339E+00
        -11   -1    0    0    0    0  0.00000000000E+00  0.00000000000E+00  0.45593999997E+02  0.45594000000E+02  0.51100000000E-03 0.  1.
         11   -1    0    0    0    0 -0.00000000000E+00 -0.00000000000E+00 -0.45593999997E+02  0.45594000000E+02  0.51100000000E-03 0. -1.
    9900012    2    1    2    0    0 -0.11713689074E+01 -0.25062235268E-01 -0.14211162008E+00  0.90007775892E+02  0.90000037734E+02 0.  0.
         12    1    1    2    0    0  0.11713689074E+01  0.25062235268E-01  0.14211162008E+00  0.11802241081E+01  0.00000000000E+00 0. -1.
         11    1    3    3    0    0  0.63874466867E+01  0.14435847224E+01 -0.45411080983E+01  0.79690071557E+01  0.51100000000E-03 0. -1.
        -11    1    3    3    0    0  0.28803423018E+01  0.34577145310E+02  0.21479585478E+02  0.40807449592E+02  0.51100000000E-03 0.  1.
         12    1    3    3    0    0 -0.10439157896E+02 -0.36045792268E+02 -0.17080589000E+02  0.41231319145E+02  0.00000000000E+00 0. -1.
</event>
<event>
 7    1  0.1971192E-015  0.9000767E+02  0.7816164E-02  0.1186339E+00
        -11   -1    0    0    0    0  0.00000000000E+00  0.00000000000E+00  0.45593999997E+02  0.45594000000E+02  0.51100000000E-03 0. -1.
         11   -1    0    0    0    0 -0.00000000000E+00 -0.00000000000E+00 -0.45593999997E+02  0.45594000000E+02  0.51100000000E-03 0.  1.
    9900012    2    1    2    0    0  0.53310246590E+00  0.10309574842E+01 -0.21471663076E+00  0.90007671738E+02  0.89999932205E+02 0.  0.
         12    1    1    2    0    0 -0.53310246590E+00 -0.10309574842E+01  0.21471663076E+00  0.11803282615E+01  0.00000000000E+00 0. -1.
         11    1    3    3    0    0  0.14798757516E+02 -0.28407133146E+02  0.18787280537E+02  0.37133951417E+02  0.51100000000E-03 0. -1.
        -11    1    3    3    0    0  0.76860698660E+00 -0.63787994205E+01  0.41543024098E+01  0.76510174173E+01  0.51100000000E-03 0.  1.
        -12    1    3    3    0    0 -0.15034262036E+02  0.35816890050E+02 -0.23156299578E+02  0.45222702905E+02  0.00000000000E+00 0.  1.
</event>
<event>
 7    1  0.1971192E-015  0.9000774E+02  0.7816164E-02  0.1186339E+00
        -11   -1    0    0    0    0  0.00000000000E+00  0.00000000000E+00  0.45593999997E+02  0.45594000000E+02  0.51100000000E-03 0.  1.
         11   -1    0    0    0    0 -0.00000000000E+00 -0.00000000000E+00 -0.45593999997E+02  0.45594000000E+02  0.51100000000E-03 0. -1.
    9900012    2    1    2    0    0 -0.38540818768E+00 -0.82963155886E+00  0.74578485297E+00  0.90007736029E+02  0.89999997344E+02 0.  0.
         12    1    1    2    0    0  0.38540818768E+00  0.82963155886E+00 -0.74578485297E+00  0.11802639711E+01  0.00000000000E+00 0. -1.
         11    1    3    3    0    0 -0.13193556569E+01  0.45948752263E+00  0.81337985186E+01  0.82529089862E+01  0.51100000000E-03 0. -1.
        -11    1    3    3    0    0 -0.26239651559E+02 -0.16405521599E+02  0.22782978323E+02  0.38428173966E+02  0.51100000000E-03 0.  1.
         12    1    3    3    0    0  0.27173599028E+02  0.15116402518E+02 -0.30170991989E+02  0.43326653076E+02  0.00000000000E+00 0. -1.
</event>
<event>
 7    1  0.1971192E-015  0.9000755E+02  0.7816164E-02  0.1186339E+00
        -11   -1    0    0    0    0  0.00000000000E+00  0.00000000000E+00  0.45593999997E+02  0.45594000000E+02  0.51100000000E-03 0. -1.
         11   -1    0    0    0    0 -0.00000000000E+00 -0.00000000000E+00 -0.45593999997E+02  0.45594000000E+02  0.51100000000E-03 0.  1.
    9900012    2    1    2    0    0  0.52101114694E+00  0.22631208163E+00 -0.10347943608E+01  0.90007547060E+02  0.89999805881E+02 0.  0.
         12    1    1    2    0    0 -0.52101114694E+00 -0.22631208163E+00  0.10347943608E+01  0.11804529397E+01  0.00000000000E+00 0. -1.
         11    1    3    3    0    0  0.89118850783E+01 -0.16330831358E+01  0.21732770351E+00  0.90628851791E+01  0.51100000000E-03 0. -1.
        -11    1    3    3    0    0  0.49538157569E+01  0.87580335232E+01 -0.39021248649E+02  0.40297658593E+02  0.51100000000E-03 0.  1.
         12    1    3    3    0    0 -0.13344689688E+02 -0.68986383057E+01  0.37769126584E+02  0.40647003288E+02  0.00000000000E+00 0. -1.
</event>
<event>
 7    1  0.1971192E-015  0.9000783E+02  0.7816164E-02  0.1186339E+00
        -11   -1    0    0    0    0  0.00000000000E+00  0.00000000000E+00  0.45593999997E+02  0.45594000000E+02  0.51100000000E-03 0. -1.
         11   -1    0    0    0    0 -0.00000000000E+00 -0.00000000000E+00 -0.45593999997E+02  0.45594000000E+02  0.51100000000E-03 0.  1.
    9900012    2    1    2    0    0 -0.62152519027E+00 -0.97126517323E+00  0.25130725896E+00  0.90007828429E+02  0.90000090964E+02 0.  0.
         12    1    1    2    0    0  0.62152519027E+00  0.97126517323E+00 -0.25130725896E+00  0.11801715711E+01  0.00000000000E+00 0. -1.
         11    1    3    3    0    0 -0.16353756356E+02  0.33195147981E+02  0.12315239029E+02  0.39000362935E+02  0.51100000000E-03 0. -1.
        -11    1    3    3    0    0  0.54065086021E+01 -0.80445959974E+01  0.11001474099E+02  0.14662138065E+02  0.51100000000E-03 0.  1.
        -12    1    3    3    0    0  0.10325722563E+02 -0.26121817157E+02 -0.23065405869E+02  0.36345327429E+02  0.00000000000E+00 0.  1.
</event>
<event>
 7    1  0.1971192E-015  0.9000761E+02  0.7816164E-02  0.1186339E+00
        -11   -1    0    0    0    0  0.00000000000E+00  0.00000000000E+00  0.45593999997E+02  0.45594000000E+02  0.51100000000E-03 0.  1.
         11   -1    0    0    0    0 -0.00000000000E+00 -0.00000000000E+00 -0.45593999997E+02  0.45594000000E+02  0.51100000000E-03 0. -1.
    9900012    2    1    2    0    0 -0.15685067398E-01 -0.10896616000E+01 -0.45355712550E+00  0.90007609179E+02  0.89999868820E+02 0.  0.
         12    1    1    2    0    0  0.15685067398E-01  0.10896616000E+01  0.45355712550E+00  0.11803908208E+01  0.00000000000E+00 0. -1.
         11    1    3    3    0    0  0.94531327057E+01 -0.30171104228E+01  0.90887793595E+01  0.13456247016E+02  0.51100000000E-03 0. -1.
        -11    1    3    3    0    0  0.18295652844E+02 -0.27241322132E+02  0.60499844976E+01  0.33367991506E+02  0.51100000000E-03 0.  1.
         12    1    3    3    0    0 -0.27764470617E+02  0.29168770955E+02 -0.15592320983E+02  0.43183370657E+02  0.00000000000E+00 0. -1.
</event>
<event>
 7    1  0.1971192E-015  0.9000776E+02  0.7816164E-02  0.1186339E+00
        -11   -1    0    0    0    0  0.00000000000E+00  0.00000000000E+00  0.45593999997E+02  0.45594000000E+02  0.51100000000E-03 0. -1.
         11   -1    0    0    0    0 -0.00000000000E+00 -0.00000000000E+00 -0.45593999997E+02  0.45594000000E+02  0.51100000000E-03 0.  1.
    9900012    2    1    2    0    0  0.22369780206E+00  0.11453488414E+01  0.17633751591E+00  0.90007762907E+02  0.90000024578E+02 0.  0.
         12    1    1    2    0    0 -0.22369780206E+00 -0.11453488414E+01 -0.17633751591E+00  0.11802370926E+01  0.00000000000E+00 0. -1.
         11    1    3    3    0    0 -0.45161178836E+01  0.38281600430E+02  0.57980420885E-02  0.38547065856E+02  0.51100000000E-03 0. -1.
        -11    1    3    3    0    0 -0.92635824633E+01  0.21640495478E+01  0.19142018527E+01  0.97036714440E+01  0.51100000000E-03 0.  1.
        -12    1    3    3    0    0  0.14003398149E+02 -0.39300301136E+02 -0.17436623789E+01  0.41757025608E+02  0.00000000000E+00 0.  1.
</event>
<event>
 7    1  0.1971192E-015  0.9000771E+02  0.7816164E-02  0.1186339E+00
        -11   -1    0    0    0    0  0.00000000000E+00  0.00000000000E+00  0.45593999997E+02  0.45594000000E+02  0.51100000000E-03 0. -1.
         11   -1    0    0    0    0 -0.00000000000E+00 -0.00000000000E+00 -0.45593999997E+02  0.45594000000E+02  0.51100000000E-03 0.  1.
    9900012    2    1    2    0    0 -0.12269001573E-01 -0.68252404799E+00  0.96285916793E+00  0.90007708772E+02  0.89999969728E+02 0.  0.
         12    1    1    2    0    0  0.12269001573E-01  0.68252404799E+00 -0.96285916793E+00  0.11802912275E+01  0.00000000000E+00 0. -1.
         11    1    3    3    0    0 -0.42652620378E+01 -0.31918258023E+01  0.68029048740E+01  0.86405860443E+01  0.51100000000E-03 0. -1.
        -11    1    3    3    0    0 -0.31181661939E+02 -0.71150344679E+01 -0.24396844441E+02  0.40225934118E+02  0.51100000000E-03 0.  1.
         12    1    3    3    0    0  0.35434654975E+02  0.96243362222E+01  0.18556798735E+02  0.41141188610E+02  0.00000000000E+00 0. -1.
</event>
<event>
 7    1  0.1971192E-015  0.9000774E+02  0.7816164E-02  0.1186339E+00
        -11   -1    0    0    0    0  0.00000000000E+00  0.00000000000E+00  0.45593999997E+02  0.45594000000E+02  0.51100000000E-03 0.  1.
         11   -1    0    0    0    0 -0.00000000000E+00 -0.00000000000E+00 -0.45593999997E+02  0.45594000000E+02  0.51100000000E-03 0. -1.
    9900012    2    1    2    0    0  0.79838824439E+00 -0.50165313158E+00  0.70988466834E+00  0.90007739056E+02  0.90000000412E+02 0.  0.
         12    1    1    2    0    0 -0.79838824439E+00  0.50165313158E+00 -0.70988466834E+00  0.11802609438E+01  0.00000000000E+00 0. -1.
         11    1    3    3    0    0  0.58952051593E+00  0.10632782612E+02  0.44027569775E+01  0.11523361913E+02  0.51100000000E-03 0. -1.
        -11    1    3    3    0    0 -0.27015338141E+02 -0.30917636528E+02  0.98266133966E+01  0.42217189325E+02  0.51100000000E-03 0.  1.
         12    1    3    3    0    0  0.27224205869E+02  0.19783200784E+02 -0.13519485706E+02  0.36267187818E+02  0.00000000000E+00 0. -1.
</event>
<event>
 7    1  0.2246704E-015  0.9000778E+02  0.7816164E-02  0.1186339E+00
        -11   -1    0    0    0    0  0.00000000000E+00  0.00000000000E+00  0.45593999997E+02  0.45594000000E+02  0.51100000000E-03 0. -1.
         11   -1    0    0    0    0 -0.00000000000E+00 -0.00000000000E+00 -0.45593999997E+02  0.45594000000E+02  0.51100000000E-03 0.  1.
    9900012    2    1    2    0    0 -0.16719461935E+00  0.50307394449E+00 -0.10544605212E+01  0.90007777807E+02  0.90000039674E+02 0.  0.
         12    1    1    2    0    0  0.16719461935E+00 -0.50307394449E+00  0.10544605212E+01  0.11802221931E+01  0.00000000000E+00 0. -1.
         11    1    3    3    0    0 -0.16799601210E+02  0.29228941345E+02  0.26986639980E+02  0.43183751003E+02  0.51100000000E-03 0. -1.
        -11    1    3    3    0    0  0.73533877813E+01 -0.43860967999E-01 -0.54785600436E+01  0.91699976041E+01  0.51100000000E-03 0.  1.
        -12    1    3    3    0    0  0.92790188095E+01 -0.28682006433E+02 -0.22562540458E+02  0.37654029200E+02  0.00000000000E+00 0.  1.
</event>
<event>
 7    1  0.1971192E-015  0.9000775E+02  0.7816164E-02  0.1186339E+00
        -11   -1    0    0    0    0  0.00000000000E+00  0.00000000000E+00  0.45593999997E+02  0.45594000000E+02  0.51100000000E-03 0.  1.
         11   -1    0    0    0    0 -0.00000000000E+00 -0.00000000000E+00 -0.45593999997E+02  0.45594000000E+02  0.51100000000E-03 0. -1.
    9900012    2    1    2    0    0  0.63700399368E+00  0.79503637691E-02 -0.99355434154E+00  0.90007751075E+02  0.90000012589E+02 0.  0.
         12    1    1    2    0    0 -0.63700399368E+00 -0.79503637691E-02  0.99355434154E+00  0.11802489254E+01  0.00000000000E+00 0. -1.
         11    1    3    3    0    0 -0.16987676739E+02 -0.11890589914E+02 -0.31690278588E+02  0.37871375031E+02  0.51100000000E-03 0. -1.
        -11    1    3    3    0    0 -0.22315572311E+01 -0.26025537864E+01 -0.66156649638E+01  0.74511849434E+01  0.51100000000E-03 0.  1.
        -12    1    3    3    0    0  0.19856237963E+02  0.14501094064E+02  0.37312389210E+02  0.44685191100E+02  0.00000000000E+00 0.  1.
</event>
<event>
 7    1  0.1971192E-015  0.9000771E+02  0.7816164E-02  0.1186339E+00
        -11   -1    0    0    0    0  0.00000000000E+00  0.00000000000E+00  0.45593999997E+02  0.45594000000E+02  0.51100000000E-03 0. -1.
         11   -1    0    0    0    0 -0.00000000000E+00 -0.00000000000E+00 -0.45593999997E+02  0.45594000000E+02  0.51100000000E-03 0.  1.
    9900012    2    1    2    0    0  0.71900621270E+00  0.33215444874E+00  0.87509918692E+00  0.90007705503E+02  0.89999966416E+02 0.  0.
         12    1    1    2    0    0 -0.71900621270E+00 -0.33215444874E+00 -0.87509918692E+00  0.11802944966E+01  0.00000000000E+00 0. -1.
         11    1    3    3    0    0  0.12732177135E+00  0.49693061224E+01  0.61031804950E+01  0.78714056297E+01  0.51100000000E-03 0. -1.
        -11    1    3    3    0    0 -0.41088352641E+01 -0.37218506720E+02  0.18296704126E+02  0.41675762163E+02  0.51100000000E-03 0.  1.
         12    1    3    3    0    0  0.47005197054E+01  0.32581355046E+02 -0.23524785434E+02  0.40460537711E+02  0.00000000000E+00 0. -1.
</event>
<event>
 7    1  0.1971192E-015  0.9000776E+02  0.7816164E-02  0.1186339E+00
        -11   -1    0    0    0    0  0.00000000000E+00  0.00000000000E+00  0.45593999997E+02  0.45594000000E+02  0.51100000000E-03 0. -1.
         11   -1    0    0    0    0 -0.00000000000E+00 -0.00000000000E+00 -0.45593999997E+02  0.45594000000E+02  0.51100000000E-03 0.  1.
    9900012    2    1    2    0    0 -0.60516332159E+00 -0.70277077703E+00 -0.72997609505E+00  0.90007756589E+02  0.90000018176E+02 0.  0.
         12    1    1    2    0    0  0.60516332159E+00  0.70277077703E+00  0.72997609505E+00  0.11802434114E+01  0.00000000000E+00 0. -1.
         11    1    3    3    0    0 -0.60200419626E+01  0.54784803025E+01 -0.51361312681E+01  0.96246816218E+01  0.51100000000E-03 0. -1.
        -11    1    3    3    0    0 -0.25500056652E+02  0.33657952146E+01 -0.25575269765E+02  0.36272246836E+02  0.51100000000E-03 0.  1.
         12    1    3    3    0    0  0.30914935293E+02 -0.95470462941E+01  0.29981424938E+02  0.44110828131E+02  0.00000000000E+00 0. -1.
</event>
<event>
 7    1  0.2465339E-015  0.9000775E+02  0.7816164E-02  0.1186339E+00
        -11   -1    0    0    0    0  0.00000000000E+00  0.00000000000E+00  0.45593999997E+02  0.45594000000E+02  0.51100000000E-03 0.  1.
         11   -1    0    0    0    0 -0.00000000000E+00 -0.00000000000E+00 -0.45593999997E+02  0.45594000000E+02  0.51100000000E-03 0. -1.
    9900012    2    1    2    0    0 -0.50119236497E+00 -0.49843796024E+00  0.94517359840E+00  0.90007751163E+02  0.90000012678E+02 0.  0.
         12    1    1    2    0    0  0.50119236497E+00  0.49843796024E+00 -0.94517359840E+00  0.11802488373E+01  0.00000000000E+00 0. -1.
         11    1    3    3    0    0  0.18379865475E+02 -0.24151684852E+02 -0.25323390766E+02  0.39527173643E+02  0.51100000000E-03 0. -1.
        -11    1    3    3    0    0 -0.74245377904E+01 -0.66802403500E+01  0.25534471986E+01  0.10308708231E+02  0.51100000000E-03 0.  1.
        -12    1    3    3    0    0 -0.11456520049E+02  0.30333487242E+02  0.23715117166E+02  0.40171869288E+02  0.00000000000E+00 0.  1.
</event>
<event>
 7    1  0.1971192E-015  0.9000790E+02  0.7816164E-02  0.1186339E+00
        -11   -1    0    0    0    0  0.00000000000E+00  0.00000000000E+00  0.45593999997E+02  0.45594000000E+02  0.51100000000E-03 0. -1.
         11   -1    0    0    0    0 -0.00000000000E+00 -0.00000000000E+00 -0.45593999997E+02  0.45594000000E+02  0.51100000000E-03 0.  1.
    9900012    2    1    2    0    0  0.66910284447E-01  0.56024741486E+00 -0.10364758817E+01  0.90007899833E+02  0.90000163310E+02 0.  0.
         12    1    1    2    0    0 -0.66910284447E-01 -0.56024741486E+00  0.10364758817E+01  0.11801001675E+01  0.00000000000E+00 0. -1.
         11    1    3    3    0    0 -0.64602564686E+01  0.37939405322E+01  0.22188427139E+01  0.78135882699E+01  0.51100000000E-03 0. -1.
        -11    1    3    3    0    0 -0.36484037994E+02 -0.24237300785E+01  0.86193781359E+01  0.37566649778E+02  0.51100000000E-03 0.  1.
         12    1    3    3    0    0  0.43011204747E+02 -0.80996303882E+00 -0.11874696731E+02  0.44627661785E+02  0.00000000000E+00 0. -1.
</event>
<event>
 7    1  0.1971192E-015  0.9000772E+02  0.7816164E-02  0.1186339E+00
        -11   -1    0    0    0    0  0.00000000000E+00  0.00000000000E+00  0.45593999997E+02  0.45594000000E+02  0.51100000000E-03 0.  1.
         11   -1    0    0    0    0 -0.00000000000E+00 -0.00000000000E+00 -0.45593999997E+02  0.45594000000E+02  0.51100000000E-03 0. -1.
    9900012    2    1    2    0    0 -0.53556110570E+00  0.15389629450E+00  0.10404568545E+01  0.90007720273E+02  0.89999981381E+02 0.  0.
         12    1    1    2    0    0  0.53556110570E+00 -0.15389629450E+00 -0.10404568545E+01  0.11802797268E+01  0.00000000000E+00 0. -1.
         11    1    3    3    0    0  0.18908600897E+02  0.75189763978E+01 -0.24951597250E+02  0.32197086817E+02  0.51100000000E-03 0. -1.
        -11    1    3    3    0    0  0.13192122965E+01 -0.76019016736E+01 -0.12144124113E+02  0.14387806674E+02  0.51100000000E-03 0.  1.
        -12    1    3    3    0    0 -0.20763374299E+02  0.23682157030E+00  0.38136178217E+02  0.43422826782E+02  0.00000000000E+00 0.  1.
</event>
<event>
 7    1  0.1971192E-015  0.9000778E+02  0.7816164E-02  0.1186339E+00
        -11   -1    0    0    0    0  0.00000000000E+00  0.00000000000E+00  0.45593999997E+02  0.45594000000E+02  0.51100000000E-03 0. -1.
         11   -1    0    0    0    0 -0.00000000000E+00 -0.00000000000E+00 -0.45593999997E+02  0.45594000000E+02  0.51100000000E-03 0.  1.
    9900012    2    1    2    0    0  0.93178349498E+00 -0.38002029471E+00  0.61667755373E+00  0.90007776669E+02  0.90000038521E+02 0.  0.
         12    1    1    2    0    0 -0.93178349498E+00  0.38002029471E+00 -0.61667755373E+00  0.11802233311E+01  0.00000000000E+00 0. -1.
         11    1    3    3    0    0 -0.10936933219E+02 -0.16096155642E+00  0.23837940139E+02  0.26227653482E+02  0.51100000000E-03 0. -1.
        -11    1    3    3    0    0  0.11875017112E+02  0.11949413498E+02  0.15683423706E+02  0.23016826318E+02  0.51100000000E-03 0.  1.
        -12    1    3    3    0    0 -0.63003986825E-02 -0.12168472236E+02 -0.38904686291E+02  0.40763296869E+02  0.00000000000E+00 0.  1.
</event>
<event>
 7    1  0.1971192E-015  0.9000755E+02  0.7816164E-02  0.1186339E+00
        -11   -1    0    0    0    0  0.00000000000E+00  0.00000000000E+00  0.45593999997E+02  0.45594000000E+02  0.51100000000E-03 0.  1.
         11   -1    0    0    0    0 -0.00000000000E+00 -0.00000000000E+00 -0.45593999997E+02  0.45594000000E+02  0.51100000000E-03 0. -1.
    9900012    2    1    2    0    0 -0.31527248577E+00 -0.80593187066E+00 -0.80283816961E+00  0.90007545830E+02  0.89999804635E+02 0.  0.
         12    1    1    2    0    0  0.31527248577E+00  0.80593187066E+00  0.80283816961E+00  0.11804541698E+01  0.00000000000E+00 0. -1.
         11    1    3    3    0    0  0.34382946080E+02  0.17428559055E+02 -0.21574202000E+02  0.44174515776E+02  0.51100000000E-03 0. -1.
        -11    1    3    3    0    0 -0.69938315483E+01 -0.15256082081E+01 -0.39839562915E+00  0.71693709256E+01  0.51100000000E-03 0.  1.
        -12    1    3    3    0    0 -0.27704387017E+02 -0.16708882717E+02  0.21169759460E+02  0.38663659129E+02  0.00000000000E+00 0.  1.
</event>
<event>
 7    1  0.1971192E-015  0.9000767E+02  0.7816164E-02  0.1186339E+00
        -11   -1    0    0    0    0  0.00000000000E+00  0.00000000000E+00  0.45593999997E+02  0.45594000000E+02  0.51100000000E-03 0. -1.
         11   -1    0    0    0    0 -0.00000000000E+00 -0.00000000000E+00 -0.45593999997E+02  0.45594000000E+02  0.51100000000E-03 0.  1.
    9900012    2    1    2    0    0  0.41442375572E+00 -0.43586665439E+00 -0.10155990437E+01  0.90007674533E+02  0.89999935037E+02 0.  0.
         12    1    1    2    0    0 -0.41442375572E+00  0.43586665439E+00  0.10155990437E+01  0.11803254667E+01  0.00000000000E+00 0. -1.
         11    1    3    3    0    0 -0.21034425082E+01 -0.21023920711E+01 -0.91486828636E+01  0.96199231393E+01  0.51100000000E-03 0. -1.
        -11    1    3    3    0    0  0.17636846560E+01 -0.69161145604E+01 -0.35347945794E+02  0.36061343518E+02  0.51100000000E-03 0.  1.
         12    1    3    3    0    0  0.75418160794E+00  0.85826399772E+01  0.43481029614E+02  0.44326407876E+02  0.00000000000E+00 0. -1.
</event>
<event>
 7    1  0.1971192E-015  0.9000778E+02  0.7816164E-02  0.1186339E+00
        -11   -1    0    0    0    0  0.00000000000E+00  0.00000000000E+00  0.45593999997E+02  0.45594000000E+02  0.51100000000E-03 0. -1.
         11   -1    0    0    0    0 -0.00000000000E+00 -0.00000000000E+00 -0.45593999997E+02  0.45594000000E+02  0.51100000000E-03 0.  1.
    9900012    2    1    2    0    0 -0.54444081820E+00 -0.10313610223E+01 -0.18113365954E+00  0.90007775121E+02  0.90000036952E+02 0.  0.
         12    1    1    2    0    0  0.54444081820E+00  0.10313610223E+01  0.18113365954E+00  0.11802248792E+01  0.00000000000E+00 0. -1.
         11    1    3    3    0    0 -0.90941651685E+01 -0.71878303723E+01  0.34875982303E+01  0.12105043876E+02  0.51100000000E-03 0. -1.
        -11    1    3    3    0    0 -0.14291764586E+02 -0.77573854870E+01 -0.33863783362E+02  0.37565774162E+02  0.51100000000E-03 0.  1.
         12    1    3    3    0    0  0.22841488937E+02  0.13913854837E+02  0.30195051472E+02  0.40336957082E+02  0.00000000000E+00 0. -1.
</event>
<event>
 7    1  0.1971192E-015  0.9000778E+02  0.7816164E-02  0.1186339E+00
        -11   -1    0    0    0    0  0.00000000000E+00  0.00000000000E+00  0.45593999997E+02  0.45594000000E+02  0.51100000000E-03 0.  1.
         11   -1    0    0    0    0 -0.00000000000E+00 -0.00000000000E+00 -0.45593999997E+02  0.45594000000E+02  0.51100000000E-03 0. -1.
    9900012    2    1    2    0    0 -0.11438361522E+01 -0.27819512896E+00 -0.84680306651E-01  0.90007777806E+02  0.90000039673E+02 0.  0.
         12    1    1    2    0    0  0.11438361522E+01  0.27819512896E+00  0.84680306651E-01  0.11802221940E+01  0.00000000000E+00 0. -1.
         11    1    3    3    0    0 -0.57702784484E+01  0.70689556048E+01  0.33695645063E+01  0.97272921174E+01  0.51100000000E-03 0. -1.
        -11    1    3    3    0    0 -0.26897035352E+02 -0.34069849865E+00  0.25384058239E+02  0.36985361958E+02  0.51100000000E-03 0.  1.
         12    1    3    3    0    0  0.31523477648E+02 -0.70064522351E+01 -0.28838303052E+02  0.43295123731E+02  0.00000000000E+00 0. -1.
</event>
<event>
 7    1  0.1971192E-015  0.9000775E+02  0.7816164E-02  0.1186339E+00
        -11   -1    0    0    0    0  0.00000000000E+00  0.00000000000E+00  0.45593999997E+02  0.45594000000E+02  0.51100000000E-03 0. -1.
         11   -1    0    0    0    0 -0.00000000000E+00 -0.00000000000E+00 -0.45593999997E+02  0.45594000000E+02  0.51100000000E-03 0.  1.
    9900012    2    1    2    0    0 -0.94088067546E+00  0.39829701763E+00 -0.59084564414E+00  0.90007747682E+02  0.90000009151E+02 0.  0.
         12    1    1    2    0    0  0.94088067546E+00 -0.39829701763E+00  0.59084564414E+00  0.11802523183E+01  0.00000000000E+00 0. -1.
         11    1    3    3    0    0  0.61154760480E+01 -0.79781399060E+01  0.37428797359E+01  0.10726551759E+02  0.51100000000E-03 0. -1.
        -11    1    3    3    0    0  0.52398853284E+01 -0.23618142393E+02 -0.28469344505E+02  0.37360094020E+02  0.51100000000E-03 0.  1.
         12    1    3    3    0    0 -0.12296242052E+02  0.31994579316E+02  0.24135619125E+02  0.41921101903E+02  0.00000000000E+00 0. -1.
</event>
<event>
 7    1  0.1971192E-015  0.9000775E+02  0.7816164E-02  0.1186339E+00
        -11   -1    0    0    0    0  0.00000000000E+00  0.00000000000E+00  0.45593999997E+02  0.45594000000E+02  0.51100000000E-03 0.  1.
         11   -1    0    0    0    0 -0.00000000000E+00 -0.00000000000E+00 -0.45593999997E+02  0.45594000000E+02  0.51100000000E-03 0. -1.
    9900012    2    1    2    0    0 -0.48527378309E-01  0.11768350822E+01 -0.75509216077E-01  0.90007746909E+02  0.90000008368E+02 0.  0.
         12    1    1    2    0    0  0.48527378309E-01 -0.11768350822E+01  0.75509216077E-01  0.11802530911E+01  0.00000000000E+00 0. -1.
         11    1    3    3    0    0  0.36020036062E+01  0.55762519626E+01  0.62940480892E+01  0.91478990779E+01  0.51100000000E-03 0. -1.
        -11    1    3    3    0    0 -0.11024649557E+02 -0.22626219833E+02  0.30216033752E+02  0.39325531373E+02  0.51100000000E-03 0.  1.
         12    1    3    3    0    0  0.73741185721E+01  0.18226802953E+02 -0.36585591057E+02  0.41534316458E+02  0.00000000000E+00 0. -1.
</event>
<event>
 7    1  0.1971192E-015  0.9000777E+02  0.7816164E-02  0.1186339E+00
        -11   -1    0    0    0    0  0.00000000000E+00  0.00000000000E+00  0.45593999997E+02  0.45594000000E+02  0.51100000000E-03 0.  1.
         11   -1    0    0    0    0 -0.00000000000E+00 -0.00000000000E+00 -0.45593999997E+02  0.45594000000E+02  0.51100000000E-03 0. -1.
    9900012    2    1    2    0    0 -0.58382412339E+00  0.10183246184E+01 -0.12290813586E+00  0.90007770342E+02  0.90000032111E+02 0.  0.
         12    1    1    2    0    0  0.58382412339E+00 -0.10183246184E+01  0.12290813586E+00  0.11802296579E+01  0.00000000000E+00 0. -1.
         11    1    3    3    0    0  0.36079499043E+01  0.19747065355E+01  0.81297129840E+01  0.91109276079E+01  0.51100000000E-03 0. -1.
        -11    1    3    3    0    0 -0.16175044711E+02 -0.26308373951E+02  0.23298375224E+02  0.38685616186E+02  0.51100000000E-03 0.  1.
         12    1    3    3    0    0  0.11983270684E+02  0.25351992034E+02 -0.31550996344E+02  0.42211226548E+02  0.00000000000E+00 0. -1.
</event>
<event>
 7    1  0.1971192E-015  0.9000776E+02  0.7816164E-02  0.1186339E+00
        -11   -1    0    0    0    0  0.00000000000E+00  0.00000000000E+00  0.45593999997E+02  0.45594000000E+02  0.51100000000E-03 0.  1.
         11   -1    0    0    0    0 -0.00000000000E+00 -0.00000000000E+00 -0.45593999997E+02  0.45594000000E+02  0.51100000000E-03 0. -1.
    9900012    2    1    2    0    0 -0.49141188394E+00 -0.35700968826E+00  0.10119460166E+01  0.90007755831E+02  0.90000017408E+02 0.  0.
         12    1    1    2    0    0  0.49141188394E+00  0.35700968826E+00 -0.10119460166E+01  0.11802441687E+01  0.00000000000E+00 0. -1.
         11    1    3    3    0    0 -0.41254380287E+02  0.11645718668E+00 -0.54503338600E+01  0.41613021935E+02  0.51100000000E-03 0. -1.
        -11    1    3    3    0    0  0.25886878746E+01 -0.73348420284E+01  0.56261319840E+01  0.95997173842E+01  0.51100000000E-03 0.  1.
        -12    1    3    3    0    0  0.38174280528E+02  0.68613751535E+01  0.83614789255E+00  0.38795016512E+02  0.00000000000E+00 0.  1.
</event>
<event>
 7    1  0.1971192E-015  0.9000776E+02  0.7816164E-02  0.1186339E+00
        -11   -1    0    0    0    0  0.00000000000E+00  0.00000000000E+00  0.45593999997E+02  0.45594000000E+02  0.51100000000E-03 0. -1.
         11   -1    0    0    0    0 -0.00000000000E+00 -0.00000000000E+00 -0.45593999997E+02  0.45594000000E+02  0.51100000000E-03 0.  1.
    9900012    2    1    2    0    0  0.60988586719E+00  0.56598029730E+00 -0.83706539117E+00  0.90007757255E+02  0.90000018851E+02 0.  0.
         12    1    1    2    0    0 -0.60988586719E+00 -0.56598029730E+00  0.83706539117E+00  0.11802427450E+01  0.00000000000E+00 0. -1.
         11    1    3    3    0    0 -0.24617612107E+02  0.60653895697E+01  0.27941852625E+02  0.37730132585E+02  0.51100000000E-03 0. -1.
        -11    1    3    3    0    0 -0.28199235417E+01 -0.64654477030E+01  0.47875368800E+01  0.85249335727E+01  0.51100000000E-03 0.  1.
        -12    1    3    3    0    0  0.28047421516E+02  0.96603843057E+00 -0.33566454896E+02  0.43752691097E+02  0.00000000000E+00 0.  1.
</event>
<event>
 7    1  0.1971192E-015  0.9000766E+02  0.7816164E-02  0.1186339E+00
        -11   -1    0    0    0    0  0.00000000000E+00  0.00000000000E+00  0.45593999997E+02  0.45594000000E+02  0.51100000000E-03 0. -1.
         11   -1    0    0    0    0 -0.00000000000E+00 -0.00000000000E+00 -0.45593999997E+02  0.45594000000E+02  0.51100000000E-03 0.  1.
    9900012    2    1    2    0    0 -0.40146405209E+00 -0.11070987924E+01  0.79757806793E-01  0.90007660037E+02  0.89999920349E+02 0.  0.
         12    1    1    2    0    0  0.40146405209E+00  0.11070987924E+01 -0.79757806793E-01  0.11803399633E+01  0.00000000000E+00 0. -1.
         11    1    3    3    0    0  0.21884127005E+01  0.73410020169E+01 -0.38450634948E+01  0.85711127807E+01  0.51100000000E-03 0. -1.
        -11    1    3    3    0    0  0.17998519679E+02  0.18609162226E+02 -0.25598339850E+02  0.36407727651E+02  0.51100000000E-03 0.  1.
         12    1    3    3    0    0 -0.20588396432E+02 -0.27057263035E+02  0.29523161152E+02  0.45028819605E+02  0.00000000000E+00 0. -1.
</event>
<event>
 7    1  0.1971192E-015  0.9000768E+02  0.7816164E-02  0.1186339E+00
        -11   -1    0    0    0    0  0.00000000000E+00  0.00000000000E+00  0.45593999997E+02  0.45594000000E+02  0.51100000000E-03 0.  1.
         11   -1    0    0    0    0 -0.00000000000E+00 -0.00000000000E+00 -0.45593999997E+02  0.45594000000E+02  0.51100000000E-03 0. -1.
    9900012    2    1    2    0    0 -0.37547492946E+00  0.35388595387E+00  0.10615718516E+01  0.90007681616E+02  0.89999942213E+02 0.  0.
         12    1    1    2    0    0  0.37547492946E+00 -0.35388595387E+00 -0.10615718516E+01  0.11803183838E+01  0.00000000000E+00 0. -1.
         11    1    3    3    0    0  0.40832638635E+01 -0.64132110813E+01 -0.33510955391E+02  0.34362573414E+02  0.51100000000E-03 0. -1.
        -11    1    3    3    0    0 -0.62023448679E+01  0.71940653229E+01 -0.83729397122E+01  0.12662139528E+02  0.51100000000E-03 0.  1.
        -12    1    3    3    0    0  0.17436060750E+01 -0.42696828773E+00  0.42945466955E+02  0.42982968674E+02  0.00000000000E+00 0.  1.
</event>
<event>
 7    1  0.2405611E-015  0.9000812E+02  0.7816164E-02  0.1186338E+00
        -11   -1    0    0    0    0  0.00000000000E+00  0.00000000000E+00  0.45593999997E+02  0.45594000000E+02  0.51100000000E-03 0. -1.
         11   -1    0    0    0    0 -0.00000000000E+00 -0.00000000000E+00 -0.45593999997E+02  0.45594000000E+02  0.51100000000E-03 0.  1.
    9900012    2    1    2    0    0  0.33263298327E-01  0.75889205762E+00 -0.90282651317E+00  0.90008118940E+02  0.90000385309E+02 0.  0.
         12    1    1    2    0    0 -0.33263298327E-01 -0.75889205762E+00  0.90282651317E+00  0.11798810597E+01  0.00000000000E+00 0. -1.
         11    1    3    3    0    0  0.21830591441E+02  0.31265158341E+02  0.86379910097E+01  0.39098589970E+02  0.51100000000E-03 0. -1.
        -11    1    3    3    0    0  0.85718862041E+01 -0.36298119011E+01 -0.28756743563E+00  0.93131875760E+01  0.51100000000E-03 0.  1.
        -12    1    3    3    0    0 -0.30369214347E+02 -0.26876454382E+02 -0.92532500872E+01  0.41596341394E+02  0.00000000000E+00 0.  1.
</event>
<event>
 7    1  0.1971192E-015  0.9000771E+02  0.7816164E-02  0.1186339E+00
        -11   -1    0    0    0    0  0.00000000000E+00  0.00000000000E+00  0.45593999997E+02  0.45594000000E+02  0.51100000000E-03 0.  1.
         11   -1    0    0    0    0 -0.00000000000E+00 -0.00000000000E+00 -0.45593999997E+02  0.45594000000E+02  0.51100000000E-03 0. -1.
    9900012    2    1    2    0    0 -0.10718478389E+01 -0.12501197547E+00 -0.47811739718E+00  0.90007711040E+02  0.89999972026E+02 0.  0.
         12    1    1    2    0    0  0.10718478389E+01  0.12501197547E+00  0.47811739718E+00  0.11802889601E+01  0.00000000000E+00 0. -1.
         11    1    3    3    0    0  0.23393107084E+02 -0.27097809575E+02  0.76189470987E+01  0.36600233578E+02  0.51100000000E-03 0. -1.
        -11    1    3    3    0    0  0.40676973883E+01 -0.71779577579E+01 -0.20085032408E+01  0.84913676841E+01  0.51100000000E-03 0.  1.
        -12    1    3    3    0    0 -0.28532652311E+02  0.34150755358E+02 -0.60885612550E+01  0.44916109778E+02  0.00000000000E+00 0.  1.
</event>
<event>
 7    1  0.1971192E-015  0.9000775E+02  0.7816164E-02  0.1186339E+00
        -11   -1    0    0    0    0  0.00000000000E+00  0.00000000000E+00  0.45593999997E+02  0.45594000000E+02  0.51100000000E-03 0.  1.
         11   -1    0    0    0    0 -0.00000000000E+00 -0.00000000000E+00 -0.45593999997E+02  0.45594000000E+02  0.51100000000E-03 0. -1.
    9900012    2    1    2    0    0 -0.88859010640E+00  0.53038462699E+00  0.56753061527E+00  0.90007749506E+02  0.90000010999E+02 0.  0.
         12    1    1    2    0    0  0.88859010640E+00 -0.53038462699E+00 -0.56753061527E+00  0.11802504942E+01  0.00000000000E+00 0. -1.
         11    1    3    3    0    0 -0.44335701641E+01 -0.11024134645E+01  0.77556233941E+01  0.90011973836E+01  0.51100000000E-03 0. -1.
        -11    1    3    3    0    0 -0.14369566009E+02  0.95652712142E+01  0.32469721719E+02  0.36773110685E+02  0.51100000000E-03 0.  1.
         12    1    3    3    0    0  0.17914546067E+02 -0.79324731226E+01 -0.39657814498E+02  0.44233441437E+02  0.00000000000E+00 0. -1.
</event>
<event>
 7    1  0.1971192E-015  0.9000782E+02  0.7816164E-02  0.1186339E+00
        -11   -1    0    0    0    0  0.00000000000E+00  0.00000000000E+00  0.45593999997E+02  0.45594000000E+02  0.51100000000E-03 0. -1.
         11   -1    0    0    0    0 -0.00000000000E+00 -0.00000000000E+00 -0.45593999997E+02  0.45594000000E+02  0.51100000000E-03 0.  1.
    9900012    2    1    2    0    0 -0.10626623885E+01  0.17856159961E-01 -0.51308326745E+00  0.90007820084E+02  0.90000082509E+02 0.  0.
         12    1    1    2    0    0  0.10626623885E+01 -0.17856159961E-01  0.51308326745E+00  0.11801799159E+01  0.00000000000E+00 0. -1.
         11    1    3    3    0    0 -0.20603785806E+01  0.16578710329E+01  0.86950811058E+01  0.90883514432E+01  0.51100000000E-03 0. -1.
        -11    1    3    3    0    0 -0.31219940895E+02 -0.21456704800E+02  0.90058753059E+01  0.38938164834E+02  0.51100000000E-03 0.  1.
         12    1    3    3    0    0  0.32217657087E+02  0.19816689927E+02 -0.18214039679E+02  0.41981303807E+02  0.00000000000E+00 0. -1.
</event>
<event>
 7    1  0.1971192E-015  0.9000763E+02  0.7816164E-02  0.1186339E+00
        -11   -1    0    0    0    0  0.00000000000E+00  0.00000000000E+00  0.45593999997E+02  0.45594000000E+02  0.51100000000E-03 0.  1.
         11   -1    0    0    0    0 -0.00000000000E+00 -0.00000000000E+00 -0.45593999997E+02  0.45594000000E+02  0.51100000000E-03 0. -1.
    9900012    2    1    2    0    0 -0.11289756294E+01  0.34322504102E+00 -0.29854765084E-01  0.90007626878E+02  0.89999886753E+02 0.  0.
         12    1    1    2    0    0  0.11289756294E+01 -0.34322504102E+00  0.29854765084E-01  0.11803731221E+01  0.00000000000E+00 0. -1.
         11    1    3    3    0    0 -0.33536792322E+02  0.19939472495E+01 -0.58472346430E+01  0.34101061833E+02  0.51100000000E-03 0. -1.
        -11    1    3    3    0    0 -0.56905600548E+01  0.13091724075E+02  0.47389838862E+01  0.15041066503E+02  0.51100000000E-03 0.  1.
        -12    1    3    3    0    0  0.38098376747E+02 -0.14742446284E+02  0.10783959917E+01  0.40865498543E+02  0.00000000000E+00 0.  1.
</event>
<event>
 7    1  0.1971192E-015  0.9000775E+02  0.7816164E-02  0.1186339E+00
        -11   -1    0    0    0    0  0.00000000000E+00  0.00000000000E+00  0.45593999997E+02  0.45594000000E+02  0.51100000000E-03 0.  1.
         11   -1    0    0    0    0 -0.00000000000E+00 -0.00000000000E+00 -0.45593999997E+02  0.45594000000E+02  0.51100000000E-03 0. -1.
    9900012    2    1    2    0    0 -0.40265746277E-01  0.11793280627E+01 -0.23783188995E-01  0.90007745091E+02  0.90000006526E+02 0.  0.
         12    1    1    2    0    0  0.40265746277E-01 -0.11793280627E+01  0.23783188995E-01  0.11802549089E+01  0.00000000000E+00 0. -1.
         11    1    3    3    0    0  0.26930699193E+02 -0.25763735250E+01 -0.25272112494E+02  0.37021344245E+02  0.51100000000E-03 0. -1.
        -11    1    3    3    0    0  0.45689105941E+01  0.69960281296E+01 -0.45165441002E+01  0.94983432491E+01  0.51100000000E-03 0.  1.
        -12    1    3    3    0    0 -0.31539875533E+02 -0.32403265419E+01  0.29764873405E+02  0.43488057597E+02  0.00000000000E+00 0.  1.
</event>
<event>
 7    1  0.1971192E-015  0.9000780E+02  0.7816164E-02  0.1186339E+00
        -11   -1    0    0    0    0  0.00000000000E+00  0.00000000000E+00  0.45593999997E+02  0.45594000000E+02  0.51100000000E-03 0. -1.
         11   -1    0    0    0    0 -0.00000000000E+00 -0.00000000000E+00 -0.45593999997E+02  0.45594000000E+02  0.51100000000E-03 0.  1.
    9900012    2    1    2    0    0  0.10525623941E+01  0.53002451701E+00 -0.63713422909E-01  0.90007799601E+02  0.90000061755E+02 0.  0.
         12    1    1    2    0    0 -0.10525623941E+01 -0.53002451701E+00  0.63713422909E-01  0.11802003993E+01  0.00000000000E+00 0. -1.
         11    1    3    3    0    0 -0.96336657169E+00  0.24380637967E+01 -0.90682973931E+01  0.94396105905E+01  0.51100000000E-03 0. -1.
        -11    1    3    3    0    0 -0.26405949662E+02  0.86328009564E+01 -0.23306884647E+02  0.36263070776E+02  0.51100000000E-03 0.  1.
         12    1    3    3    0    0  0.28421878627E+02 -0.10540840236E+02  0.32311468617E+02  0.44305118235E+02  0.00000000000E+00 0. -1.
</event>
<event>
 7    1  0.1971192E-015  0.9000776E+02  0.7816164E-02  0.1186339E+00
        -11   -1    0    0    0    0  0.00000000000E+00  0.00000000000E+00  0.45593999997E+02  0.45594000000E+02  0.51100000000E-03 0. -1.
         11   -1    0    0    0    0 -0.00000000000E+00 -0.00000000000E+00 -0.45593999997E+02  0.45594000000E+02  0.51100000000E-03 0.  1.
    9900012    2    1    2    0    0 -0.27649423355E+00 -0.11419969048E+01  0.11117024979E+00  0.90007760695E+02  0.90000022337E+02 0.  0.
         12    1    1    2    0    0  0.27649423355E+00  0.11419969048E+01 -0.11117024979E+00  0.11802393047E+01  0.00000000000E+00 0. -1.
         11    1    3    3    0    0 -0.14560946255E+01  0.60600033009E+01 -0.66877723569E+01  0.91416711232E+01  0.51100000000E-03 0. -1.
        -11    1    3    3    0    0 -0.13952866379E+02 -0.38095562462E+02 -0.11135945548E+02  0.42070935847E+02  0.51100000000E-03 0.  1.
         12    1    3    3    0    0  0.15132466771E+02  0.30893562256E+02  0.17934888155E+02  0.38795153726E+02  0.00000000000E+00 0. -1.
</event>
<event>
 7    1  0.1971192E-015  0.9000751E+02  0.7816164E-02  0.1186339E+00
        -11   -1    0    0    0    0  0.00000000000E+00  0.00000000000E+00  0.45593999997E+02  0.45594000000E+02  0.51100000000E-03 0. -1.
         11   -1    0    0    0    0 -0.00000000000E+00 -0.00000000000E+00 -0.45593999997E+02  0.45594000000E+02  0.51100000000E-03 0.  1.
    9900012    2    1    2    0    0  0.95137953957E+00  0.22209601006E+00 -0.66264495662E+00  0.90007513658E+02  0.89999772038E+02 0.  0.
         12    1    1    2    0    0 -0.95137953957E+00 -0.22209601006E+00  0.66264495662E+00  0.11804863424E+01  0.00000000000E+00 0. -1.
         11    1    3    3    0    0 -0.37132109732E+01  0.41514064492E+02  0.63546621696E+00  0.41684641104E+02  0.51100000000E-03 0. -1.
        -11    1    3    3    0    0  0.93115374930E+01 -0.33742257674E+01 -0.20502740873E+01  0.10114037478E+02  0.51100000000E-03 0.  1.
        -12    1    3    3    0    0 -0.46469469802E+01 -0.37917742715E+02  0.75216291371E+00  0.38208835076E+02  0.00000000000E+00 0.  1.
</event>
<event>
 7    1  0.2285412E-015  0.9000774E+02  0.7816164E-02  0.1186339E+00
        -11   -1    0    0    0    0  0.00000000000E+00  0.00000000000E+00  0.45593999997E+02  0.45594000000E+02  0.51100000000E-03 0.  1.
         11   -1    0    0    0    0 -0.00000000000E+00 -0.00000000000E+00 -0.45593999997E+02  0.45594000000E+02  0.51100000000E-03 0. -1.
    9900012    2    1    2    0    0  0.21704120946E+00  0.95383449676E+00  0.66037910543E+00  0.90007742529E+02  0.90000003931E+02 0.  0.
         12    1    1    2    0    0 -0.21704120946E+00 -0.95383449676E+00 -0.66037910543E+00  0.11802574705E+01  0.00000000000E+00 0. -1.
         11    1    3    3    0    0 -0.21699974765E+02 -0.45797708493E+01 -0.32308307282E+02  0.39187879829E+02  0.51100000000E-03 0. -1.
        -11    1    3    3    0    0  0.16344912333E+01  0.88405627565E+01 -0.29295262460E+01  0.94556457067E+01  0.51100000000E-03 0.  1.
        -12    1    3    3    0    0  0.20282524741E+02 -0.33069574105E+01  0.35898212634E+02  0.41364216993E+02  0.00000000000E+00 0.  1.
</event>
<event>
 7    1  0.1971192E-015  0.9000772E+02  0.7816164E-02  0.1186339E+00
        -11   -1    0    0    0    0  0.00000000000E+00  0.00000000000E+00  0.45593999997E+02  0.45594000000E+02  0.51100000000E-03 0.  1.
         11   -1    0    0    0    0 -0.00000000000E+00 -0.00000000000E+00 -0.45593999997E+02  0.45594000000E+02  0.51100000000E-03 0. -1.
    9900012    2    1    2    0    0  0.78467713501E+00  0.42633850696E+00 -0.77173179876E+00  0.90007723465E+02  0.89999984615E+02 0.  0.
         12    1    1    2    0    0 -0.78467713501E+00 -0.42633850696E+00  0.77173179876E+00  0.11802765345E+01  0.00000000000E+00 0. -1.
         11    1    3    3    0    0  0.24791182985E+01 -0.22790975030E+02 -0.26098855049E+02  0.34737944750E+02  0.51100000000E-03 0. -1.
        -11    1    3    3    0    0  0.10225819710E+02 -0.97112468842E+01  0.69898541637E+01  0.15739560549E+02  0.51100000000E-03 0.  1.
        -12    1    3    3    0    0 -0.11920260874E+02  0.32928560421E+02  0.18337269087E+02  0.39530218166E+02  0.00000000000E+00 0.  1.
</event>
<event>
 7    1  0.1971192E-015  0.9000773E+02  0.7816164E-02  0.1186339E+00
        -11   -1    0    0    0    0  0.00000000000E+00  0.00000000000E+00  0.45593999997E+02  0.45594000000E+02  0.51100000000E-03 0.  1.
         11   -1    0    0    0    0 -0.00000000000E+00 -0.00000000000E+00 -0.45593999997E+02  0.45594000000E+02  0.51100000000E-03 0. -1.
    9900012    2    1    2    0    0  0.70218974317E+00 -0.16723147419E+00  0.93380606327E+00  0.90007732842E+02  0.89999994115E+02 0.  0.
         12    1    1    2    0    0 -0.70218974317E+00  0.16723147419E+00 -0.93380606327E+00  0.11802671584E+01  0.00000000000E+00 0. -1.
         11    1    3    3    0    0  0.25239395419E+01  0.44752363379E+01 -0.95127220171E+01  0.10811562862E+02  0.51100000000E-03 0. -1.
        -11    1    3    3    0    0  0.88646621321E+00  0.14288104622E+02  0.40845990268E+02  0.43281990218E+02  0.51100000000E-03 0.  1.
         12    1    3    3    0    0 -0.27082160120E+01 -0.18930572434E+02 -0.30399462187E+02  0.35914179761E+02  0.00000000000E+00 0. -1.
</event>
<event>
 7    1  0.1971192E-015  0.9000773E+02  0.7816164E-02  0.1186339E+00
        -11   -1    0    0    0    0  0.00000000000E+00  0.00000000000E+00  0.45593999997E+02  0.45594000000E+02  0.51100000000E-03 0. -1.
         11   -1    0    0    0    0 -0.00000000000E+00 -0.00000000000E+00 -0.45593999997E+02  0.45594000000E+02  0.51100000000E-03 0.  1.
    9900012    2    1    2    0    0 -0.75959200715E+00 -0.58541105295E+00  0.68800782685E+00  0.90007728469E+02  0.89999989684E+02 0.  0.
         12    1    1    2    0    0  0.75959200715E+00  0.58541105295E+00 -0.68800782685E+00  0.11802715315E+01  0.00000000000E+00 0. -1.
         11    1    3    3    0    0  0.15611581518E+02 -0.30010454251E+02  0.93197461724E+01  0.35088552418E+02  0.51100000000E-03 0. -1.
        -11    1    3    3    0    0  0.60557739171E+01 -0.82996230367E+01 -0.51197494750E+00  0.10286800226E+02  0.51100000000E-03 0.  1.
        -12    1    3    3    0    0 -0.22426947442E+02  0.37724666234E+02 -0.81197633980E+01  0.44632375824E+02  0.00000000000E+00 0.  1.
</event>
<event>
 7    1  0.1971192E-015  0.9000777E+02  0.7816164E-02  0.1186339E+00
        -11   -1    0    0    0    0  0.00000000000E+00  0.00000000000E+00  0.45593999997E+02  0.45594000000E+02  0.51100000000E-03 0. -1.
         11   -1    0    0    0    0 -0.00000000000E+00 -0.00000000000E+00 -0.45593999997E+02  0.45594000000E+02  0.51100000000E-03 0.  1.
    9900012    2    1    2    0    0  0.96768261752E+00 -0.26908288960E+00 -0.61977956661E+00  0.90007770378E+02  0.90000032147E+02 0.  0.
         12    1    1    2    0    0 -0.96768261752E+00  0.26908288960E+00  0.61977956661E+00  0.11802296221E+01  0.00000000000E+00 0. -1.
         11    1    3    3    0    0 -0.72359171221E+01 -0.10610526922E+01  0.79117972296E+01  0.10774083027E+02  0.51100000000E-03 0. -1.
        -11    1    3    3    0    0 -0.18249935753E+02  0.78422837902E+01 -0.35579517476E+02  0.40748786904E+02  0.51100000000E-03 0.  1.
         12    1    3    3    0    0  0.26453535493E+02 -0.70503139877E+01  0.27047940680E+02  0.38484900447E+02  0.00000000000E+00 0. -1.
</event>
<event>
 7    1  0.1971192E-015  0.9000769E+02  0.7816164E-02  0.1186339E+00
        -11   -1    0    0    0    0  0.00000000000E+00  0.00000000000E+00  0.45593999997E+02  0.45594000000E+02  0.51100000000E-03 0.  1.
         11   -1    0    0    0    0 -0.00000000000E+00 -0.00000000000E+00 -0.45593999997E+02  0.45594000000E+02  0.51100000000E-03 0. -1.
    9900012    2    1    2    0    0 -0.98167937069E+00 -0.25561210554E+00  0.60341314564E+00  0.90007686754E+02  0.89999947419E+02 0.  0.
         12    1    1    2    0    0  0.98167937069E+00  0.25561210554E+00 -0.60341314564E+00  0.11803132464E+01  0.00000000000E+00 0. -1.
         11    1    3    3    0    0 -0.31599076675E+02  0.14485776969E+02 -0.15987953253E+02  0.38261652220E+02  0.51100000000E-03 0. -1.
        -11    1    3    3    0    0 -0.31412830950E+01  0.47317970800E+01 -0.46684147704E+01  0.73519833935E+01  0.51100000000E-03 0.  1.
        -12    1    3    3    0    0  0.33758680399E+02 -0.19473186155E+02  0.21259781169E+02  0.44394051140E+02  0.00000000000E+00 0.  1.
</event>
<event>
 7    1  0.1971192E-015  0.9000773E+02  0.7816164E-02  0.1186339E+00
        -11   -1    0    0    0    0  0.00000000000E+00  0.00000000000E+00  0.45593999997E+02  0.45594000000E+02  0.51100000000E-03 0.  1.
         11   -1    0    0    0    0 -0.00000000000E+00 -0.00000000000E+00 -0.45593999997E+02  0.45594000000E+02  0.51100000000E-03 0. -1.
    9900012    2    1    2    0    0  0.90807809493E+00  0.75380103835E+00  0.14418051661E-01  0.90007733203E+02  0.89999994481E+02 0.  0.
         12    1    1    2    0    0 -0.90807809493E+00 -0.75380103835E+00 -0.14418051661E-01  0.11802667970E+01  0.00000000000E+00 0. -1.
         11    1    3    3    0    0 -0.11086147327E+01 -0.25664338465E+01  0.10473648231E+02  0.10840337487E+02  0.51100000000E-03 0. -1.
        -11    1    3    3    0    0 -0.22473817461E+01 -0.21551175236E+02  0.26615148723E+02  0.34320111022E+02  0.51100000000E-03 0.  1.
         12    1    3    3    0    0  0.42640745737E+01  0.24871410121E+02 -0.37074378902E+02  0.44847284693E+02  0.00000000000E+00 0. -1.
</event>
<event>
 7    1  0.1971192E-015  0.9000775E+02  0.7816164E-02  0.1186339E+00
        -11   -1    0    0    0    0  0.00000000000E+00  0.00000000000E+00  0.45593999997E+02  0.45594000000E+02  0.51100000000E-03 0.  1.
         11   -1    0    0    0    0 -0.00000000000E+00 -0.00000000000E+00 -0.45593999997E+02  0.45594000000E+02  0.51100000000E-03 0. -1.
    9900012    2    1    2    0    0  0.89316599574E+00  0.65884372355E+00  0.40144612684E+00  0.90007754457E+02  0.90000016016E+02 0.  0.
         12    1    1    2    0    0 -0.89316599574E+00 -0.65884372355E+00 -0.40144612684E+00  0.11802455426E+01  0.00000000000E+00 0. -1.
         11    1    3    3    0    0 -0.21060882874E+02 -0.36237084617E+02  0.46358656928E+01  0.42168451951E+02  0.51100000000E-03 0. -1.
        -11    1    3    3    0    0  0.91538575574E+00  0.45247320637E+01 -0.78042269079E+01  0.90673639621E+01  0.51100000000E-03 0.  1.
        -12    1    3    3    0    0  0.21038663114E+02  0.32371196277E+02  0.35698073419E+01  0.38771938544E+02  0.00000000000E+00 0.  1.
</event>
<event>
 7    1  0.1971192E-015  0.9000777E+02  0.7816164E-02  0.1186339E+00
        -11   -1    0    0    0    0  0.00000000000E+00  0.00000000000E+00  0.45593999997E+02  0.45594000000E+02  0.51100000000E-03 0.  1.
         11   -1    0    0    0    0 -0.00000000000E+00 -0.00000000000E+00 -0.45593999997E+02  0.45594000000E+02  0.51100000000E-03 0. -1.
    9900012    2    1    2    0    0 -0.58083121698E+00  0.95616094728E+00  0.37593510535E+00  0.90007772961E+02  0.90000034764E+02 0.  0.
         12    1    1    2    0    0  0.58083121698E+00 -0.95616094728E+00 -0.37593510535E+00  0.11802270388E+01  0.00000000000E+00 0. -1.
         11    1    3    3    0    0  0.74173638945E+00  0.26697906231E+01 -0.12510761673E+02  0.12813942123E+02  0.51100000000E-03 0. -1.
        -11    1    3    3    0    0 -0.36540242202E+02 -0.70828629148E+01  0.17754693435E+02  0.41238154499E+02  0.51100000000E-03 0.  1.
         12    1    3    3    0    0  0.35217674596E+02  0.53692332390E+01 -0.48679966569E+01  0.35955676338E+02  0.00000000000E+00 0. -1.
</event>
<event>
 7    1  0.1971192E-015  0.9000777E+02  0.7816164E-02  0.1186339E+00
        -11   -1    0    0    0    0  0.00000000000E+00  0.00000000000E+00  0.45593999997E+02  0.45594000000E+02  0.51100000000E-03 0. -1.
         11   -1    0    0    0    0 -0.00000000000E+00 -0.00000000000E+00 -0.45593999997E+02  0.45594000000E+02  0.51100000000E-03 0.  1.
    9900012    2    1    2    0    0  0.98455870000E+00 -0.63362374263E+00 -0.14870886923E+00  0.90007767307E+02  0.90000029036E+02 0.  0.
         12    1    1    2    0    0 -0.98455870000E+00  0.63362374263E+00  0.14870886923E+00  0.11802326926E+01  0.00000000000E+00 0. -1.
         11    1    3    3    0    0  0.56509613557E+01 -0.76472721644E+01 -0.36807225555E+00  0.95157560522E+01  0.51100000000E-03 0. -1.
        -11    1    3    3    0    0 -0.27782092590E+02 -0.24599683065E+02 -0.12750451702E+02  0.39237266653E+02  0.51100000000E-03 0.  1.
         12    1    3    3    0    0  0.23115689934E+02  0.31613331486E+02  0.12969815088E+02  0.41254744602E+02  0.00000000000E+00 0. -1.
</event>
<event>
 7    1  0.1971192E-015  0.9000736E+02  0.7816164E-02  0.1186340E+00
        -11   -1    0    0    0    0  0.00000000000E+00  0.00000000000E+00  0.45593999997E+02  0.45594000000E+02  0.51100000000E-03 0.  1.
         11   -1    0    0    0    0 -0.00000000000E+00 -0.00000000000E+00 -0.45593999997E+02  0.45594000000E+02  0.51100000000E-03 0. -1.
    9900012    2    1    2    0    0 -0.42478958414E+00 -0.22519852328E+00  0.10783088658E+01  0.90007360099E+02  0.89999616452E+02 0.  0.
         12    1    1    2    0    0  0.42478958414E+00  0.22519852328E+00 -0.10783088658E+01  0.11806399009E+01  0.00000000000E+00 0. -1.
         11    1    3    3    0    0  0.34143134140E+02 -0.18226013793E+02  0.17574411738E+02  0.42506483457E+02  0.51100000000E-03 0. -1.
        -11    1    3    3    0    0 -0.14241097770E-01  0.78587499178E+01  0.76441870618E-01  0.78591346025E+01  0.51100000000E-03 0.  1.
        -12    1    3    3    0    0 -0.34553682627E+02  0.10142065352E+02 -0.16572544743E+02  0.39641742039E+02  0.00000000000E+00 0.  1.
</event>
<event>
 7    1  0.2148168E-015  0.9000796E+02  0.7816164E-02  0.1186339E+00
        -11   -1    0    0    0    0  0.00000000000E+00  0.00000000000E+00  0.45593999997E+02  0.45594000000E+02  0.51100000000E-03 0.  1.
         11   -1    0    0    0    0 -0.00000000000E+00 -0.00000000000E+00 -0.45593999997E+02  0.45594000000E+02  0.51100000000E-03 0. -1.
    9900012    2    1    2    0    0  0.10072568093E+01  0.20322470173E+00  0.58019477596E+00  0.90007960790E+02  0.90000225072E+02 0.  0.
         12    1    1    2    0    0 -0.10072568093E+01 -0.20322470173E+00 -0.58019477596E+00  0.11800392101E+01  0.00000000000E+00 0. -1.
         11    1    3    3    0    0  0.13763408948E+02 -0.10020627452E+02 -0.30942647130E+02  0.35317018731E+02  0.51100000000E-03 0. -1.
        -11    1    3    3    0    0 -0.65943171467E+00 -0.45066401367E+01 -0.89009897971E+01  0.99986136608E+01  0.51100000000E-03 0.  1.
        -12    1    3    3    0    0 -0.12096720423E+02  0.14730492290E+02  0.40423831703E+02  0.44692328398E+02  0.00000000000E+00 0.  1.
</event>
<event>
 7    1  0.1971192E-015  0.9000745E+02  0.7816164E-02  0.1186340E+00
        -11   -1    0    0    0    0  0.00000000000E+00  0.00000000000E+00  0.45593999997E+02  0.45594000000E+02  0.51100000000E-03 0.  1.
         11   -1    0    0    0    0 -0.00000000000E+00 -0.00000000000E+00 -0.45593999997E+02  0.45594000000E+02  0.51100000000E-03 0. -1.
    9900012    2    1    2    0    0  0.11328223160E+01 -0.12899780676E+00  0.30620564538E+00  0.90007454054E+02  0.89999711647E+02 0.  0.
         12    1    1    2    0    0 -0.11328223160E+01  0.12899780676E+00 -0.30620564538E+00  0.11805459461E+01  0.00000000000E+00 0. -1.
         11    1    3    3    0    0 -0.78987264386E+01  0.35289591315E+01  0.56910366729E+01  0.10355256181E+02  0.51100000000E-03 0. -1.
        -11    1    3    3    0    0  0.30868697316E+02  0.48431272599E+01  0.25885550775E+02  0.40575782122E+02  0.51100000000E-03 0.  1.
         12    1    3    3    0    0 -0.21837148561E+02 -0.85010841981E+01 -0.31270381803E+02  0.39076415751E+02  0.00000000000E+00 0. -1.
</event>
<event>
 7    1  0.1971192E-015  0.9000776E+02  0.7816164E-02  0.1186339E+00
        -11   -1    0    0    0    0  0.00000000000E+00  0.00000000000E+00  0.45593999997E+02  0.45594000000E+02  0.51100000000E-03 0.  1.
         11   -1    0    0    0    0 -0.00000000000E+00 -0.00000000000E+00 -0.45593999997E+02  0.45594000000E+02  0.51100000000E-03 0. -1.
    9900012    2    1    2    0    0 -0.13554928485E+00  0.11600466069E+01 -0.16994058669E+00  0.90007762083E+02  0.90000023742E+02 0.  0.
         12    1    1    2    0    0  0.13554928485E+00 -0.11600466069E+01  0.16994058669E+00  0.11802379174E+01  0.00000000000E+00 0. -1.
         11    1    3    3    0    0  0.21717306279E+02 -0.27030232003E+02  0.17523737046E+02  0.38850433646E+02  0.51100000000E-03 0. -1.
        -11    1    3    3    0    0 -0.10902275741E+01 -0.65686585587E+01  0.68437849829E+00  0.66935973597E+01  0.51100000000E-03 0.  1.
        -12    1    3    3    0    0 -0.20762627989E+02  0.34758937169E+02 -0.18378056131E+02  0.44463731077E+02  0.00000000000E+00 0.  1.
</event>
<event>
 7    1  0.1971192E-015  0.9000777E+02  0.7816164E-02  0.1186339E+00
        -11   -1    0    0    0    0  0.00000000000E+00  0.00000000000E+00  0.45593999997E+02  0.45594000000E+02  0.51100000000E-03 0.  1.
         11   -1    0    0    0    0 -0.00000000000E+00 -0.00000000000E+00 -0.45593999997E+02  0.45594000000E+02  0.51100000000E-03 0. -1.
    9900012    2    1    2    0    0 -0.12165251800E+00  0.11515849069E+01 -0.22804080126E+00  0.90007767082E+02  0.90000028808E+02 0.  0.
         12    1    1    2    0    0  0.12165251800E+00 -0.11515849069E+01  0.22804080126E+00  0.11802329177E+01  0.00000000000E+00 0. -1.
         11    1    3    3    0    0 -0.24814520889E+02  0.31883124633E+02 -0.47378190594E+01  0.40678507999E+02  0.51100000000E-03 0. -1.
        -11    1    3    3    0    0  0.77663021936E+01  0.52159800322E+01  0.15834542877E+01  0.94883731588E+01  0.51100000000E-03 0.  1.
        -12    1    3    3    0    0  0.16926566177E+02 -0.35947519758E+02  0.29263239704E+01  0.39840885925E+02  0.00000000000E+00 0.  1.
</event>
<event>
 7    1  0.1971192E-015  0.9000775E+02  0.7816164E-02  0.1186339E+00
        -11   -1    0    0    0    0  0.00000000000E+00  0.00000000000E+00  0.45593999997E+02  0.45594000000E+02  0.51100000000E-03 0. -1.
         11   -1    0    0    0    0 -0.00000000000E+00 -0.00000000000E+00 -0.45593999997E+02  0.45594000000E+02  0.51100000000E-03 0.  1.
    9900012    2    1    2    0    0 -0.65036458516E+00 -0.98455419478E+00 -0.26004524905E-01  0.90007746938E+02  0.90000008397E+02 0.  0.
         12    1    1    2    0    0  0.65036458516E+00  0.98455419478E+00  0.26004524905E-01  0.11802530624E+01  0.00000000000E+00 0. -1.
         11    1    3    3    0    0  0.32976076011E+02  0.78386433461E+01  0.80962396004E+01  0.34848457850E+02  0.51100000000E-03 0. -1.
        -11    1    3    3    0    0  0.85137397706E+01  0.53807524551E+01 -0.20331652170E+01  0.10274727389E+02  0.51100000000E-03 0.  1.
        -12    1    3    3    0    0 -0.42140180367E+02 -0.14203949996E+02 -0.60890789082E+01  0.44884561698E+02  0.00000000000E+00 0.  1.
</event>
<event>
 7    1  0.1971192E-015  0.9000775E+02  0.7816164E-02  0.1186339E+00
        -11   -1    0    0    0    0  0.00000000000E+00  0.00000000000E+00  0.45593999997E+02  0.45594000000E+02  0.51100000000E-03 0. -1.
         11   -1    0    0    0    0 -0.00000000000E+00 -0.00000000000E+00 -0.45593999997E+02  0.45594000000E+02  0.51100000000E-03 0.  1.
    9900012    2    1    2    0    0 -0.92453073676E+00  0.46568450717E+00 -0.56688769017E+00  0.90007753925E+02  0.90000015477E+02 0.  0.
         12    1    1    2    0    0  0.92453073676E+00 -0.46568450717E+00  0.56688769017E+00  0.11802460746E+01  0.00000000000E+00 0. -1.
         11    1    3    3    0    0 -0.31390723922E+02  0.31162757341E+01  0.24679954120E+02  0.40052326504E+02  0.51100000000E-03 0. -1.
        -11    1    3    3    0    0  0.45698571930E+01 -0.50177540349E+01  0.61702135130E+01  0.91724034678E+01  0.51100000000E-03 0.  1.
        -12    1    3    3    0    0  0.25896335992E+02  0.23671628080E+01 -0.31417055323E+02  0.40783023953E+02  0.00000000000E+00 0.  1.
</event>
<event>
 7    1  0.1971192E-015  0.9000821E+02  0.7816164E-02  0.1186338E+00
        -11   -1    0    0    0    0  0.00000000000E+00  0.00000000000E+00  0.45593999997E+02  0.45594000000E+02  0.51100000000E-03 0.  1.
         11   -1    0    0    0    0 -0.00000000000E+00 -0.00000000000E+00 -0.45593999997E+02  0.45594000000E+02  0.51100000000E-03 0. -1.
    9900012    2    1    2    0    0  0.36690254737E+00  0.79719933803E+00  0.78851210644E+00  0.90008213746E+02  0.90000481366E+02 0.  0.
         12    1    1    2    0    0 -0.36690254737E+00 -0.79719933803E+00 -0.78851210644E+00  0.11797862543E+01  0.00000000000E+00 0. -1.
         11    1    3    3    0    0  0.19732874194E+02 -0.23521136876E+02 -0.16856322691E+01  0.30748521271E+02  0.51100000000E-03 0. -1.
        -11    1    3    3    0    0  0.15402757599E+02 -0.20892693539E+01  0.94749281820E+00  0.15572659728E+02  0.51100000000E-03 0.  1.
        -12    1    3    3    0    0 -0.34768729247E+02  0.26407605568E+02  0.15266515573E+01  0.43687032747E+02  0.00000000000E+00 0.  1.
</event>
<event>
 7    1  0.1971192E-015  0.9000774E+02  0.7816164E-02  0.1186339E+00
        -11   -1    0    0    0    0  0.00000000000E+00  0.00000000000E+00  0.45593999997E+02  0.45594000000E+02  0.51100000000E-03 0. -1.
         11   -1    0    0    0    0 -0.00000000000E+00 -0.00000000000E+00 -0.45593999997E+02  0.45594000000E+02  0.51100000000E-03 0.  1.
    9900012    2    1    2    0    0 -0.11409752829E+01 -0.34424018334E-01  0.29998871303E+00  0.90007744588E+02  0.90000006017E+02 0.  0.
         12    1    1    2    0    0  0.11409752829E+01  0.34424018334E-01 -0.29998871303E+00  0.11802554119E+01  0.00000000000E+00 0. -1.
         11    1    3    3    0    0  0.29237488654E+01 -0.12939405192E+01 -0.84639124237E+01  0.90476739150E+01  0.51100000000E-03 0. -1.
        -11    1    3    3    0    0  0.23625494245E+02 -0.12724575791E+02 -0.23884568027E+02  0.35924245260E+02  0.51100000000E-03 0.  1.
         12    1    3    3    0    0 -0.27690218393E+02  0.13984092292E+02  0.32648469164E+02  0.45035825413E+02  0.00000000000E+00 0. -1.
</event>
<event>
 7    1  0.1971192E-015  0.9000780E+02  0.7816164E-02  0.1186339E+00
        -11   -1    0    0    0    0  0.00000000000E+00  0.00000000000E+00  0.45593999997E+02  0.45594000000E+02  0.51100000000E-03 0. -1.
         11   -1    0    0    0    0 -0.00000000000E+00 -0.00000000000E+00 -0.45593999997E+02  0.45594000000E+02  0.51100000000E-03 0.  1.
    9900012    2    1    2    0    0  0.32868013540E+00  0.20610781322E+00 -0.11146156470E+01  0.90007797008E+02  0.90000059128E+02 0.  0.
         12    1    1    2    0    0 -0.32868013540E+00 -0.20610781322E+00  0.11146156470E+01  0.11802029921E+01  0.00000000000E+00 0. -1.
         11    1    3    3    0    0  0.10396333909E+02  0.21590840036E+01 -0.96611355111E+00  0.10662025049E+02  0.51100000000E-03 0. -1.
        -11    1    3    3    0    0  0.33207104986E+02 -0.88788795705E+01 -0.67376038570E+01  0.35027726589E+02  0.51100000000E-03 0.  1.
         12    1    3    3    0    0 -0.43274758760E+02  0.69259033800E+01  0.65891017611E+01  0.44318045370E+02  0.00000000000E+00 0. -1.
</event>
<event>
 7    1  0.1971192E-015  0.9000769E+02  0.7816164E-02  0.1186339E+00
        -11   -1    0    0    0    0  0.00000000000E+00  0.00000000000E+00  0.45593999997E+02  0.45594000000E+02  0.51100000000E-03 0. -1.
         11   -1    0    0    0    0 -0.00000000000E+00 -0.00000000000E+00 -0.45593999997E+02  0.45594000000E+02  0.51100000000E-03 0.  1.
    9900012    2    1    2    0    0  0.15633546148E+00  0.10638618906E+01 -0.48670250109E+00  0.90007694013E+02  0.89999954774E+02 0.  0.
         12    1    1    2    0    0 -0.15633546148E+00 -0.10638618906E+01  0.48670250109E+00  0.11803059872E+01  0.00000000000E+00 0. -1.
         11    1    3    3    0    0  0.30977412140E+02 -0.11454345012E+02 -0.19179963544E+02  0.38192578918E+02  0.51100000000E-03 0. -1.
        -11    1    3    3    0    0  0.37389538919E+01 -0.74796878841E+01  0.39886429345E+01  0.92647061351E+01  0.51100000000E-03 0.  1.
        -12    1    3    3    0    0 -0.34560030570E+02  0.19997894787E+02  0.14704618109E+02  0.42550408960E+02  0.00000000000E+00 0.  1.
</event>
<event>
 7    1  0.1971192E-015  0.9000787E+02  0.7816164E-02  0.1186339E+00
        -11   -1    0    0    0    0  0.00000000000E+00  0.00000000000E+00  0.45593999997E+02  0.45594000000E+02  0.51100000000E-03 0. -1.
         11   -1    0    0    0    0 -0.00000000000E+00 -0.00000000000E+00 -0.45593999997E+02  0.45594000000E+02  0.51100000000E-03 0.  1.
    9900012    2    1    2    0    0  0.86039249812E+00 -0.74083920988E+00  0.32184756679E+00  0.90007871260E+02  0.90000134361E+02 0.  0.
         12    1    1    2    0    0 -0.86039249812E+00  0.74083920988E+00 -0.32184756679E+00  0.11801287396E+01  0.00000000000E+00 0. -1.
         11    1    3    3    0    0  0.16200670629E+02  0.89494741318E+00 -0.10529203447E+02  0.19342357281E+02  0.51100000000E-03 0. -1.
        -11    1    3    3    0    0  0.15848975599E+02  0.25111031613E+01  0.29864858081E+02  0.33902882106E+02  0.51100000000E-03 0.  1.
        -12    1    3    3    0    0 -0.31189253729E+02 -0.41468897843E+01 -0.19013807067E+02  0.36762631873E+02  0.00000000000E+00 0.  1.
</event>
<event>
 7    1  0.1971192E-015  0.9000783E+02  0.7816164E-02  0.1186339E+00
        -11   -1    0    0    0    0  0.00000000000E+00  0.00000000000E+00  0.45593999997E+02  0.45594000000E+02  0.51100000000E-03 0.  1.
         11   -1    0    0    0    0 -0.00000000000E+00 -0.00000000000E+00 -0.45593999997E+02  0.45594000000E+02  0.51100000000E-03 0. -1.
    9900012    2    1    2    0    0 -0.11725484735E+01  0.10577898381E+00 -0.82071669508E-01  0.90007832692E+02  0.90000095283E+02 0.  0.
         12    1    1    2    0    0  0.11725484735E+01 -0.10577898381E+00  0.82071669508E-01  0.11801673081E+01  0.00000000000E+00 0. -1.
         11    1    3    3    0    0 -0.29898181102E+02 -0.20328386043E+02  0.28087765273E+01  0.36263393914E+02  0.51100000000E-03 0. -1.
        -11    1    3    3    0    0 -0.90517375086E+01 -0.25705757004E+01  0.13263040529E+00  0.94106005357E+01  0.51100000000E-03 0.  1.
        -12    1    3    3    0    0  0.37777370137E+02  0.23004740728E+02 -0.30234786021E+01  0.44333838242E+02  0.00000000000E+00 0.  1.
</event>
<event>
 7    1  0.1971192E-015  0.9000783E+02  0.7816164E-02  0.1186339E+00
        -11   -1    0    0    0    0  0.00000000000E+00  0.00000000000E+00  0.45593999997E+02  0.45594000000E+02  0.51100000000E-03 0.  1.
         11   -1    0    0    0    0 -0.00000000000E+00 -0.00000000000E+00 -0.45593999997E+02  0.45594000000E+02  0.51100000000E-03 0. -1.
    9900012    2    1    2    0    0  0.81534099227E+00 -0.38883119547E+00  0.75949131065E+00  0.90007831502E+02  0.90000094078E+02 0.  0.
         12    1    1    2    0    0 -0.81534099227E+00  0.38883119547E+00 -0.75949131065E+00  0.11801684978E+01  0.00000000000E+00 0. -1.
         11    1    3    3    0    0  0.52570555228E+01  0.25669348832E+02 -0.28892117837E+02  0.39003930259E+02  0.51100000000E-03 0. -1.
        -11    1    3    3    0    0  0.63125864070E+01  0.44922975340E+01  0.10958308618E+01  0.78249811386E+01  0.51100000000E-03 0.  1.
        -12    1    3    3    0    0 -0.10754300938E+02 -0.30550477562E+02  0.28555778286E+02  0.43178920105E+02  0.00000000000E+00 0.  1.
</event>
<event>
 7    1  0.1971192E-015  0.9000755E+02  0.7816164E-02  0.1186339E+00
        -11   -1    0    0    0    0  0.00000000000E+00  0.00000000000E+00  0.45593999997E+02  0.45594000000E+02  0.51100000000E-03 0.  1.
         11   -1    0    0    0    0 -0.00000000000E+00 -0.00000000000E+00 -0.45593999997E+02  0.45594000000E+02  0.51100000000E-03 0. -1.
    9900012    2    1    2    0    0 -0.20720261983E+00  0.10754635859E-01  0.11620762338E+01  0.90007546798E+02  0.89999805616E+02 0.  0.
         12    1    1    2    0    0  0.20720261983E+00 -0.10754635859E-01 -0.11620762338E+01  0.11804532016E+01  0.00000000000E+00 0. -1.
         11    1    3    3    0    0 -0.28310851715E+02  0.13659582102E+02  0.10816777572E+02  0.33242911805E+02  0.51100000000E-03 0. -1.
        -11    1    3    3    0    0 -0.49110300626E+01  0.11348619329E+02  0.42597389589E+01  0.13078790204E+02  0.51100000000E-03 0.  1.
        -12    1    3    3    0    0  0.33014679157E+02 -0.24997446795E+02 -0.13914440297E+02  0.43685844789E+02  0.00000000000E+00 0.  1.
</event>
<event>
 7    1  0.1971192E-015  0.9000773E+02  0.7816164E-02  0.1186339E+00
        -11   -1    0    0    0    0  0.00000000000E+00  0.00000000000E+00  0.45593999997E+02  0.45594000000E+02  0.51100000000E-03 0.  1.
         11   -1    0    0    0    0 -0.00000000000E+00 -0.00000000000E+00 -0.45593999997E+02  0.45594000000E+02  0.51100000000E-03 0. -1.
    9900012    2    1    2    0    0 -0.34177391041E+00 -0.12705968037E-01  0.11296332657E+01  0.90007727929E+02  0.89999989137E+02 0.  0.
         12    1    1    2    0    0  0.34177391041E+00  0.12705968037E-01 -0.11296332657E+01  0.11802720714E+01  0.00000000000E+00 0. -1.
         11    1    3    3    0    0 -0.18947496511E+01  0.37749947106E+02 -0.43611922221E+01  0.38048240178E+02  0.51100000000E-03 0. -1.
        -11    1    3    3    0    0 -0.66930837464E+01  0.35828826635E+01  0.61875822720E+01  0.97939059037E+01  0.51100000000E-03 0.  1.
        -12    1    3    3    0    0  0.82460594871E+01 -0.41345535738E+02 -0.69675678425E+00  0.42165581847E+02  0.00000000000E+00 0.  1.
</event>
<event>
 7    1  0.1971192E-015  0.9000770E+02  0.7816164E-02  0.1186339E+00
        -11   -1    0    0    0    0  0.00000000000E+00  0.00000000000E+00  0.45593999997E+02  0.45594000000E+02  0.51100000000E-03 0.  1.
         11   -1    0    0    0    0 -0.00000000000E+00 -0.00000000000E+00 -0.45593999997E+02  0.45594000000E+02  0.51100000000E-03 0. -1.
    9900012    2    1    2    0    0  0.11543527207E+01 -0.74622374855E-01  0.23454074052E+00  0.90007700012E+02  0.89999960852E+02 0.  0.
         12    1    1    2    0    0 -0.11543527207E+01  0.74622374855E-01 -0.23454074052E+00  0.11802999880E+01  0.00000000000E+00 0. -1.
         11    1    3    3    0    0  0.12272612582E+02 -0.34997330256E+01 -0.30071736139E+02  0.32667636362E+02  0.51100000000E-03 0. -1.
        -11    1    3    3    0    0  0.77613946811E+01 -0.25600763286E+01 -0.97094395902E+01  0.12691195989E+02  0.51100000000E-03 0.  1.
        -12    1    3    3    0    0 -0.18879654543E+02  0.59851869793E+01  0.40015716470E+02  0.44648867661E+02  0.00000000000E+00 0.  1.
</event>
<event>
 7    1  0.1971192E-015  0.9000776E+02  0.7816164E-02  0.1186339E+00
        -11   -1    0    0    0    0  0.00000000000E+00  0.00000000000E+00  0.45593999997E+02  0.45594000000E+02  0.51100000000E-03 0.  1.
         11   -1    0    0    0    0 -0.00000000000E+00 -0.00000000000E+00 -0.45593999997E+02  0.45594000000E+02  0.51100000000E-03 0. -1.
    9900012    2    1    2    0    0  0.31767408701E+00  0.45891180812E-01  0.11357570755E+01  0.90007759787E+02  0.90000021416E+02 0.  0.
         12    1    1    2    0    0 -0.31767408701E+00 -0.45891180812E-01 -0.11357570755E+01  0.11802402131E+01  0.00000000000E+00 0. -1.
         11    1    3    3    0    0 -0.66974522312E+01  0.40861898532E+01 -0.47815560309E+01  0.91878230416E+01  0.51100000000E-03 0. -1.
        -11    1    3    3    0    0 -0.19117783362E+02 -0.21788005445E+02 -0.23757410807E+02  0.37478278916E+02  0.51100000000E-03 0.  1.
         12    1    3    3    0    0  0.26132909681E+02  0.17747706772E+02  0.29674723914E+02  0.43341657830E+02  0.00000000000E+00 0. -1.
</event>
<event>
 7    1  0.1971192E-015  0.9000775E+02  0.7816164E-02  0.1186339E+00
        -11   -1    0    0    0    0  0.00000000000E+00  0.00000000000E+00  0.45593999997E+02  0.45594000000E+02  0.51100000000E-03 0. -1.
         11   -1    0    0    0    0 -0.00000000000E+00 -0.00000000000E+00 -0.45593999997E+02  0.45594000000E+02  0.51100000000E-03 0.  1.
    9900012    2    1    2    0    0  0.52760547250E+00 -0.10134598059E+01 -0.29582300792E+00  0.90007754447E+02  0.90000016006E+02 0.  0.
         12    1    1    2    0    0 -0.52760547250E+00  0.10134598059E+01  0.29582300792E+00  0.11802455528E+01  0.00000000000E+00 0. -1.
         11    1    3    3    0    0 -0.20438465836E+02 -0.36643957644E+02 -0.11391091246E+02  0.43477206414E+02  0.51100000000E-03 0. -1.
        -11    1    3    3    0    0  0.83633590785E+01  0.33048595944E+01 -0.23927314195E+01  0.93055379168E+01  0.51100000000E-03 0.  1.
        -12    1    3    3    0    0  0.12602712230E+02  0.32325638244E+02  0.13487999658E+02  0.37225010116E+02  0.00000000000E+00 0.  1.
</event>
<event>
 7    1  0.1971192E-015  0.9000788E+02  0.7816164E-02  0.1186339E+00
        -11   -1    0    0    0    0  0.00000000000E+00  0.00000000000E+00  0.45593999997E+02  0.45594000000E+02  0.51100000000E-03 0.  1.
         11   -1    0    0    0    0 -0.00000000000E+00 -0.00000000000E+00 -0.45593999997E+02  0.45594000000E+02  0.51100000000E-03 0. -1.
    9900012    2    1    2    0    0 -0.11303452674E+01  0.28470552454E+00  0.18421440668E+00  0.90007884494E+02  0.90000147769E+02 0.  0.
         12    1    1    2    0    0  0.11303452674E+01 -0.28470552454E+00 -0.18421440668E+00  0.11801155057E+01  0.00000000000E+00 0. -1.
         11    1    3    3    0    0  0.61515066142E+01  0.40575923363E+01  0.60256352100E+01  0.95191054799E+01  0.51100000000E-03 0. -1.
        -11    1    3    3    0    0  0.28385463540E+02 -0.17084305963E+02 -0.21314280521E+02  0.39394245837E+02  0.51100000000E-03 0.  1.
         12    1    3    3    0    0 -0.35667315422E+02  0.13311419152E+02  0.15472859718E+02  0.41094533178E+02  0.00000000000E+00 0. -1.
</event>
<event>
 7    1  0.1971192E-015  0.9000772E+02  0.7816164E-02  0.1186339E+00
        -11   -1    0    0    0    0  0.00000000000E+00  0.00000000000E+00  0.45593999997E+02  0.45594000000E+02  0.51100000000E-03 0. -1.
         11   -1    0    0    0    0 -0.00000000000E+00 -0.00000000000E+00 -0.45593999997E+02  0.45594000000E+02  0.51100000000E-03 0.  1.
    9900012    2    1    2    0    0 -0.24658526076E+00 -0.11242128207E+01  0.26153972776E+00  0.90007719615E+02  0.89999980714E+02 0.  0.
         12    1    1    2    0    0  0.24658526076E+00  0.11242128207E+01 -0.26153972776E+00  0.11802803846E+01  0.00000000000E+00 0. -1.
         11    1    3    3    0    0 -0.12776895514E+02  0.24746911444E+02 -0.24298213323E+02  0.36960274024E+02  0.51100000000E-03 0. -1.
        -11    1    3    3    0    0 -0.47486436510E+01  0.43041597955E+01 -0.44174430221E+01  0.77839071927E+01  0.51100000000E-03 0.  1.
        -12    1    3    3    0    0  0.17278953904E+02 -0.30175284060E+02  0.28977196073E+02  0.45263538399E+02  0.00000000000E+00 0.  1.
</event>
<event>
 7    1  0.1971192E-015  0.9000775E+02  0.7816164E-02  0.1186339E+00
        -11   -1    0    0    0    0  0.00000000000E+00  0.00000000000E+00  0.45593999997E+02  0.45594000000E+02  0.51100000000E-03 0.  1.
         11   -1    0    0    0    0 -0.00000000000E+00 -0.00000000000E+00 -0.45593999997E+02  0.45594000000E+02  0.51100000000E-03 0. -1.
    9900012    2    1    2    0    0 -0.74795079426E+00  0.89409419584E+00  0.18483009740E+00  0.90007747067E+02  0.90000008528E+02 0.  0.
         12    1    1    2    0    0  0.74795079426E+00 -0.89409419584E+00 -0.18483009740E+00  0.11802529333E+01  0.00000000000E+00 0. -1.
         11    1    3    3    0    0  0.25352327204E+02 -0.25794355858E+02  0.14087613094E+02  0.38814303185E+02  0.51100000000E-03 0. -1.
        -11    1    3    3    0    0  0.65158204311E+01  0.23084479678E+01 -0.70979299468E+01  0.99078482882E+01  0.51100000000E-03 0.  1.
        -12    1    3    3    0    0 -0.32616098429E+02  0.24380002086E+02 -0.68048530496E+01  0.41285595593E+02  0.00000000000E+00 0.  1.
</event>
<event>
 7    1  0.1971192E-015  0.9000782E+02  0.7816164E-02  0.1186339E+00
        -11   -1    0    0    0    0  0.00000000000E+00  0.00000000000E+00  0.45593999997E+02  0.45594000000E+02  0.51100000000E-03 0.  1.
         11   -1    0    0    0    0 -0.00000000000E+00 -0.00000000000E+00 -0.45593999997E+02  0.45594000000E+02  0.51100000000E-03 0. -1.
    9900012    2    1    2    0    0  0.15631258105E+00  0.11490859453E+01 -0.21905564008E+00  0.90007823104E+02  0.90000085569E+02 0.  0.
         12    1    1    2    0    0 -0.15631258105E+00 -0.11490859453E+01  0.21905564008E+00  0.11801768961E+01  0.00000000000E+00 0. -1.
         11    1    3    3    0    0 -0.29072945971E+02 -0.98813723345E+01 -0.25383649583E+02  0.39839771248E+02  0.51100000000E-03 0. -1.
        -11    1    3    3    0    0  0.20813225684E+01  0.59803953787E+01 -0.58647648686E+01  0.86309037617E+01  0.51100000000E-03 0.  1.
        -12    1    3    3    0    0  0.27147935984E+02  0.50500629011E+01  0.31029358812E+02  0.41537148094E+02  0.00000000000E+00 0.  1.
</event>
<event>
 7    1  0.1971192E-015  0.9000764E+02  0.7816164E-02  0.1186339E+00
        -11   -1    0    0    0    0  0.00000000000E+00  0.00000000000E+00  0.45593999997E+02  0.45594000000E+02  0.51100000000E-03 0.  1.
         11   -1    0    0    0    0 -0.00000000000E+00 -0.00000000000E+00 -0.45593999997E+02  0.45594000000E+02  0.51100000000E-03 0. -1.
    9900012    2    1    2    0    0  0.35017905512E+00 -0.10361800542E+01  0.44378608717E+00  0.90007643881E+02  0.89999903981E+02 0.  0.
         12    1    1    2    0    0 -0.35017905512E+00  0.10361800542E+01 -0.44378608717E+00  0.11803561186E+01  0.00000000000E+00 0. -1.
         11    1    3    3    0    0 -0.14822414658E+02 -0.22322414106E+02 -0.33602840177E+02  0.42978425006E+02  0.51100000000E-03 0. -1.
        -11    1    3    3    0    0  0.13570130208E+01  0.70470360097E+01 -0.49675901117E+00  0.71936757389E+01  0.51100000000E-03 0.  1.
        -12    1    3    3    0    0  0.13815580692E+02  0.14239198042E+02  0.34543385275E+02  0.39835543137E+02  0.00000000000E+00 0.  1.
</event>
<event>
 7    1  0.1971192E-015  0.9000770E+02  0.7816164E-02  0.1186339E+00
        -11   -1    0    0    0    0  0.00000000000E+00  0.00000000000E+00  0.45593999997E+02  0.45594000000E+02  0.51100000000E-03 0.  1.
         11   -1    0    0    0    0 -0.00000000000E+00 -0.00000000000E+00 -0.45593999997E+02  0.45594000000E+02  0.51100000000E-03 0. -1.
    9900012    2    1    2    0    0  0.75350950564E+00 -0.87283868811E+00  0.25195826731E+00  0.90007700496E+02  0.89999961343E+02 0.  0.
         12    1    1    2    0    0 -0.75350950564E+00  0.87283868811E+00 -0.25195826731E+00  0.11802995039E+01  0.00000000000E+00 0. -1.
         11    1    3    3    0    0 -0.39937116590E+01 -0.49129932729E+01 -0.37666660457E+01  0.73671574624E+01  0.51100000000E-03 0. -1.
        -11    1    3    3    0    0 -0.32041857778E+02  0.41578452770E+01  0.24486540110E+02  0.40540830949E+02  0.51100000000E-03 0.  1.
         12    1    3    3    0    0  0.36789078942E+02 -0.11769069224E+00 -0.20467915797E+02  0.42099712085E+02  0.00000000000E+00 0. -1.
</event>
<event>
 7    1  0.1971192E-015  0.9000774E+02  0.7816164E-02  0.1186339E+00
        -11   -1    0    0    0    0  0.00000000000E+00  0.00000000000E+00  0.45593999997E+02  0.45594000000E+02  0.51100000000E-03 0.  1.
         11   -1    0    0    0    0 -0.00000000000E+00 -0.00000000000E+00 -0.45593999997E+02  0.45594000000E+02  0.51100000000E-03 0. -1.
    9900012    2    1    2    0    0 -0.59288372273E+00  0.41836332026E+00  0.93084007197E+00  0.90007744851E+02  0.90000006283E+02 0.  0.
         12    1    1    2    0    0  0.59288372273E+00 -0.41836332026E+00 -0.93084007197E+00  0.11802551487E+01  0.00000000000E+00 0. -1.
         11    1    3    3    0    0 -0.51290962917E+01 -0.39976148654E+02  0.65834942725E+01  0.40838002977E+02  0.51100000000E-03 0. -1.
        -11    1    3    3    0    0  0.14324113856E+01 -0.26198552364E+01 -0.52522814798E+01  0.60416806306E+01  0.51100000000E-03 0.  1.
        -12    1    3    3    0    0  0.31038011834E+01  0.43014367211E+02 -0.40037272070E+00  0.43128061244E+02  0.00000000000E+00 0.  1.
</event>
<event>
 7    1  0.1971192E-015  0.9000794E+02  0.7816164E-02  0.1186339E+00
        -11   -1    0    0    0    0  0.00000000000E+00  0.00000000000E+00  0.45593999997E+02  0.45594000000E+02  0.51100000000E-03 0.  1.
         11   -1    0    0    0    0 -0.00000000000E+00 -0.00000000000E+00 -0.45593999997E+02  0.45594000000E+02  0.51100000000E-03 0. -1.
    9900012    2    1    2    0    0 -0.41520532984E+00  0.98265989383E+00 -0.50451383157E+00  0.90007936383E+02  0.90000200343E+02 0.  0.
         12    1    1    2    0    0  0.41520532984E+00 -0.98265989383E+00  0.50451383157E+00  0.11800636166E+01  0.00000000000E+00 0. -1.
         11    1    3    3    0    0  0.16839814728E+01 -0.79767765105E+01 -0.34891875090E+01  0.88678738621E+01  0.51100000000E-03 0. -1.
        -11    1    3    3    0    0  0.14272624856E+02 -0.29692160210E+02 -0.14081182891E+02  0.35827530058E+02  0.51100000000E-03 0.  1.
         12    1    3    3    0    0 -0.16371811659E+02  0.38651596614E+02  0.17065856569E+02  0.45312532463E+02  0.00000000000E+00 0. -1.
</event>
<event>
 7    1  0.1971192E-015  0.9000773E+02  0.7816164E-02  0.1186339E+00
        -11   -1    0    0    0    0  0.00000000000E+00  0.00000000000E+00  0.45593999997E+02  0.45594000000E+02  0.51100000000E-03 0.  1.
         11   -1    0    0    0    0 -0.00000000000E+00 -0.00000000000E+00 -0.45593999997E+02  0.45594000000E+02  0.51100000000E-03 0. -1.
    9900012    2    1    2    0    0  0.88303543413E+00  0.62731622812E+00 -0.46878934965E+00  0.90007728556E+02  0.89999989773E+02 0.  0.
         12    1    1    2    0    0 -0.88303543413E+00 -0.62731622812E+00  0.46878934965E+00  0.11802714443E+01  0.00000000000E+00 0. -1.
         11    1    3    3    0    0  0.22507962865E+02 -0.28109396944E+02 -0.21307849546E+02  0.41842216019E+02  0.51100000000E-03 0. -1.
        -11    1    3    3    0    0  0.26674827990E+01  0.15140832672E+02  0.51676657944E+01  0.16219280148E+02  0.51100000000E-03 0.  1.
        -12    1    3    3    0    0 -0.24292410230E+02  0.13595880500E+02  0.15671394401E+02  0.31946232389E+02  0.00000000000E+00 0.  1.
</event>
<event>
 7    1  0.1971192E-015  0.9000772E+02  0.7816164E-02  0.1186339E+00
        -11   -1    0    0    0    0  0.00000000000E+00  0.00000000000E+00  0.45593999997E+02  0.45594000000E+02  0.51100000000E-03 0. -1.
         11   -1    0    0    0    0 -0.00000000000E+00 -0.00000000000E+00 -0.45593999997E+02  0.45594000000E+02  0.51100000000E-03 0.  1.
    9900012    2    1    2    0    0 -0.35626884290E+00 -0.81377103737E+00 -0.77711517897E+00  0.90007720884E+02  0.89999982000E+02 0.  0.
         12    1    1    2    0    0  0.35626884290E+00  0.81377103737E+00  0.77711517897E+00  0.11802791157E+01  0.00000000000E+00 0. -1.
         11    1    3    3    0    0  0.24426804401E+02  0.97585690429E+01 -0.15049342520E+02  0.30304804134E+02  0.51100000000E-03 0. -1.
        -11    1    3    3    0    0  0.38430233779E+01 -0.79816526605E+01 -0.15793498136E+02  0.18108290684E+02  0.51100000000E-03 0.  1.
         12    1    3    3    0    0 -0.28626096622E+02 -0.25906874198E+01  0.30065725477E+02  0.41594626066E+02  0.00000000000E+00 0. -1.
</event>
<event>
 7    1  0.1971192E-015  0.9000770E+02  0.7816164E-02  0.1186339E+00
        -11   -1    0    0    0    0  0.00000000000E+00  0.00000000000E+00  0.45593999997E+02  0.45594000000E+02  0.51100000000E-03 0.  1.
         11   -1    0    0    0    0 -0.00000000000E+00 -0.00000000000E+00 -0.45593999997E+02  0.45594000000E+02  0.51100000000E-03 0. -1.
    9900012    2    1    2    0    0 -0.59632537119E+00  0.71486851644E+00  0.72557425851E+00  0.90007703872E+02  0.89999964764E+02 0.  0.
         12    1    1    2    0    0  0.59632537119E+00 -0.71486851644E+00 -0.72557425851E+00  0.11802961276E+01  0.00000000000E+00 0. -1.
         11    1    3    3    0    0  0.89750833603E+01  0.14254453173E+02 -0.35080344646E+02  0.38914934631E+02  0.51100000000E-03 0. -1.
        -11    1    3    3    0    0  0.55179073442E+01  0.71549428601E+01  0.31009153310E+01  0.95528103164E+01  0.51100000000E-03 0.  1.
        -12    1    3    3    0    0 -0.15089316076E+02 -0.20694527517E+02  0.32705003573E+02  0.41539958925E+02  0.00000000000E+00 0.  1.
</event>
<event>
 7    1  0.1971192E-015  0.9000766E+02  0.7816164E-02  0.1186339E+00
        -11   -1    0    0    0    0  0.00000000000E+00  0.00000000000E+00  0.45593999997E+02  0.45594000000E+02  0.51100000000E-03 0. -1.
         11   -1    0    0    0    0 -0.00000000000E+00 -0.00000000000E+00 -0.45593999997E+02  0.45594000000E+02  0.51100000000E-03 0.  1.
    9900012    2    1    2    0    0 -0.10791635650E+01  0.44459774519E+00  0.17590555322E+00  0.90007659406E+02  0.89999919710E+02 0.  0.
         12    1    1    2    0    0  0.10791635650E+01 -0.44459774519E+00 -0.17590555322E+00  0.11803405944E+01  0.00000000000E+00 0. -1.
         11    1    3    3    0    0  0.75438456320E+01  0.10922525737E+02  0.30831280842E+02  0.33567529758E+02  0.51100000000E-03 0. -1.
        -11    1    3    3    0    0  0.41935951445E+01  0.29255387599E+01  0.10290226930E+02  0.11490595624E+02  0.51100000000E-03 0.  1.
        -12    1    3    3    0    0 -0.12816604342E+02 -0.13403466752E+02 -0.40945602219E+02  0.44949534023E+02  0.00000000000E+00 0.  1.
</event>
<event>
 7    1  0.1971192E-015  0.9000773E+02  0.7816164E-02  0.1186339E+00
        -11   -1    0    0    0    0  0.00000000000E+00  0.00000000000E+00  0.45593999997E+02  0.45594000000E+02  0.51100000000E-03 0.  1.
         11   -1    0    0    0    0 -0.00000000000E+00 -0.00000000000E+00 -0.45593999997E+02  0.45594000000E+02  0.51100000000E-03 0. -1.
    9900012    2    1    2    0    0  0.65254010183E-01 -0.10982240127E+01  0.42742523453E+00  0.90007726134E+02  0.89999987319E+02 0.  0.
         12    1    1    2    0    0 -0.65254010183E-01  0.10982240127E+01 -0.42742523453E+00  0.11802738661E+01  0.00000000000E+00 0. -1.
         11    1    3    3    0    0  0.11566862185E+02  0.15358945129E+02 -0.34261132762E+02  0.39287589830E+02  0.51100000000E-03 0. -1.
        -11    1    3    3    0    0  0.10380778171E+01  0.68061789932E+01 -0.27731840815E+00  0.68904705066E+01  0.51100000000E-03 0.  1.
        -12    1    3    3    0    0 -0.12539685991E+02 -0.23263348135E+02  0.34965876404E+02  0.43829665798E+02  0.00000000000E+00 0.  1.
</event>
<event>
 7    1  0.1971192E-015  0.9000776E+02  0.7816164E-02  0.1186339E+00
        -11   -1    0    0    0    0  0.00000000000E+00  0.00000000000E+00  0.45593999997E+02  0.45594000000E+02  0.51100000000E-03 0. -1.
         11   -1    0    0    0    0 -0.00000000000E+00 -0.00000000000E+00 -0.45593999997E+02  0.45594000000E+02  0.51100000000E-03 0.  1.
    9900012    2    1    2    0    0 -0.11724833949E+01  0.36597648652E-01 -0.13001556045E+00  0.90007762420E+02  0.90000024084E+02 0.  0.
         12    1    1    2    0    0  0.11724833949E+01 -0.36597648651E-01  0.13001556045E+00  0.11802375800E+01  0.00000000000E+00 0. -1.
         11    1    3    3    0    0  0.90585157903E+01 -0.35406170937E+01  0.22513814960E+01  0.99830554756E+01  0.51100000000E-03 0. -1.
        -11    1    3    3    0    0 -0.23250213959E+01 -0.19423706166E+02 -0.34545635031E+02  0.39699962036E+02  0.51100000000E-03 0.  1.
         12    1    3    3    0    0 -0.79059777894E+01  0.23000920909E+02  0.32164237974E+02  0.40324744908E+02  0.00000000000E+00 0. -1.
</event>
<event>
 7    1  0.1971192E-015  0.9000770E+02  0.7816164E-02  0.1186339E+00
        -11   -1    0    0    0    0  0.00000000000E+00  0.00000000000E+00  0.45593999997E+02  0.45594000000E+02  0.51100000000E-03 0.  1.
         11   -1    0    0    0    0 -0.00000000000E+00 -0.00000000000E+00 -0.45593999997E+02  0.45594000000E+02  0.51100000000E-03 0. -1.
    9900012    2    1    2    0    0  0.41126919685E+00 -0.39949410058E+00  0.10316818239E+01  0.90007701193E+02  0.89999962048E+02 0.  0.
         12    1    1    2    0    0 -0.41126919685E+00  0.39949410058E+00 -0.10316818239E+01  0.11802988073E+01  0.00000000000E+00 0. -1.
         11    1    3    3    0    0 -0.17314433716E+01  0.17942168328E+02 -0.52584781098E+01  0.18776871218E+02  0.51100000000E-03 0. -1.
        -11    1    3    3    0    0 -0.24068804932E+02  0.87394839200E+01  0.18526425016E+02  0.31605606689E+02  0.51100000000E-03 0.  1.
        -12    1    3    3    0    0  0.26211517501E+02 -0.27081146348E+02 -0.12236265082E+02  0.39625223285E+02  0.00000000000E+00 0.  1.
</event>
<event>
 7    1  0.1971192E-015  0.9000774E+02  0.7816164E-02  0.1186339E+00
        -11   -1    0    0    0    0  0.00000000000E+00  0.00000000000E+00  0.45593999997E+02  0.45594000000E+02  0.51100000000E-03 0.  1.
         11   -1    0    0    0    0 -0.00000000000E+00 -0.00000000000E+00 -0.45593999997E+02  0.45594000000E+02  0.51100000000E-03 0. -1.
    9900012    2    1    2    0    0 -0.10049816931E+01 -0.45172641150E+00  0.42304727326E+00  0.90007739881E+02  0.90000001247E+02 0.  0.
         12    1    1    2    0    0  0.10049816931E+01  0.45172641150E+00 -0.42304727326E+00  0.11802601195E+01  0.00000000000E+00 0. -1.
         11    1    3    3    0    0  0.91582491241E+01 -0.88748348598E+00  0.65834496122E+01  0.11313839446E+02  0.51100000000E-03 0. -1.
        -11    1    3    3    0    0  0.29659938924E+02 -0.24595880347E+01 -0.20643141801E+02  0.36220171921E+02  0.51100000000E-03 0.  1.
         12    1    3    3    0    0 -0.39823169741E+02  0.28953451092E+01  0.14482739462E+02  0.42473728514E+02  0.00000000000E+00 0. -1.
</event>
<event>
 7    1  0.1971192E-015  0.9000761E+02  0.7816164E-02  0.1186339E+00
        -11   -1    0    0    0    0  0.00000000000E+00  0.00000000000E+00  0.45593999997E+02  0.45594000000E+02  0.51100000000E-03 0.  1.
         11   -1    0    0    0    0 -0.00000000000E+00 -0.00000000000E+00 -0.45593999997E+02  0.45594000000E+02  0.51100000000E-03 0. -1.
    9900012    2    1    2    0    0  0.79675577992E-01 -0.20680259348E+00  0.11593958950E+01  0.90007612626E+02  0.89999872313E+02 0.  0.
         12    1    1    2    0    0 -0.79675577992E-01  0.20680259348E+00 -0.11593958950E+01  0.11803873736E+01  0.00000000000E+00 0. -1.
         11    1    3    3    0    0 -0.39133589059E+02 -0.63217435886E+01  0.88789308550E+01  0.40623117163E+02  0.51100000000E-03 0. -1.
        -11    1    3    3    0    0 -0.33881405619E+00  0.88624544738E+01 -0.34166890144E+01  0.95042968360E+01  0.51100000000E-03 0.  1.
        -12    1    3    3    0    0  0.39552078694E+02 -0.27475134786E+01 -0.43028459456E+01  0.39880198627E+02  0.00000000000E+00 0.  1.
</event>
<event>
 7    1  0.1971192E-015  0.9000808E+02  0.7816164E-02  0.1186338E+00
        -11   -1    0    0    0    0  0.00000000000E+00  0.00000000000E+00  0.45593999997E+02  0.45594000000E+02  0.51100000000E-03 0. -1.
         11   -1    0    0    0    0 -0.00000000000E+00 -0.00000000000E+00 -0.45593999997E+02  0.45594000000E+02  0.51100000000E-03 0.  1.
    9900012    2    1    2    0    0 -0.22235447565E+00 -0.80894480270E+00 -0.82968242034E+00  0.90008082153E+02  0.90000348037E+02 0.  0.
         12    1    1    2    0    0  0.22235447565E+00  0.80894480270E+00  0.82968242034E+00  0.11799178468E+01  0.00000000000E+00 0. -1.
         11    1    3    3    0    0  0.40221443209E+01 -0.73300158036E+01  0.25604750916E+01  0.87443015487E+01  0.51100000000E-03 0. -1.
        -11    1    3    3    0    0 -0.35294295877E+02 -0.18011197252E+02 -0.10652218850E+02  0.41031211469E+02  0.51100000000E-03 0.  1.
         12    1    3    3    0    0  0.31049797081E+02  0.24532268253E+02  0.72620613376E+01  0.40232569136E+02  0.00000000000E+00 0. -1.
</event>
<event>
 7    1  0.1971192E-015  0.9000773E+02  0.7816164E-02  0.1186339E+00
        -11   -1    0    0    0    0  0.00000000000E+00  0.00000000000E+00  0.45593999997E+02  0.45594000000E+02  0.51100000000E-03 0.  1.
         11   -1    0    0    0    0 -0.00000000000E+00 -0.00000000000E+00 -0.45593999997E+02  0.45594000000E+02  0.51100000000E-03 0. -1.
    9900012    2    1    2    0    0  0.70372021117E+00 -0.84179914006E+00  0.43496428593E+00  0.90007728058E+02  0.89999989268E+02 0.  0.
         12    1    1    2    0    0 -0.70372021117E+00  0.84179914006E+00 -0.43496428593E+00  0.11802719423E+01  0.00000000000E+00 0. -1.
         11    1    3    3    0    0  0.76051840107E+01  0.16582990739E+01 -0.46470863789E+01  0.90655497202E+01  0.51100000000E-03 0. -1.
        -11    1    3    3    0    0  0.32433934939E+02 -0.17753091736E+02 -0.56636718375E+01  0.37406009955E+02  0.51100000000E-03 0.  1.
         12    1    3    3    0    0 -0.39335398739E+02  0.15252993522E+02  0.10745722502E+02  0.43536168382E+02  0.00000000000E+00 0. -1.
</event>
<event>
 7    1  0.1971192E-015  0.9000763E+02  0.7816164E-02  0.1186339E+00
        -11   -1    0    0    0    0  0.00000000000E+00  0.00000000000E+00  0.45593999997E+02  0.45594000000E+02  0.51100000000E-03 0.  1.
         11   -1    0    0    0    0 -0.00000000000E+00 -0.00000000000E+00 -0.45593999997E+02  0.45594000000E+02  0.51100000000E-03 0. -1.
    9900012    2    1    2    0    0 -0.10993754696E+01 -0.42685952353E+00  0.49332621444E-01  0.90007631759E+02  0.89999891698E+02 0.  0.
         12    1    1    2    0    0  0.10993754696E+01  0.42685952353E+00 -0.49332621444E-01  0.11803682407E+01  0.00000000000E+00 0. -1.
         11    1    3    3    0    0 -0.21757850630E+02 -0.41986172260E+01 -0.34496848098E+02  0.41000792427E+02  0.51100000000E-03 0. -1.
        -11    1    3    3    0    0 -0.68667941168E+01 -0.26447443931E+00  0.81074861578E+01  0.10627988532E+02  0.51100000000E-03 0.  1.
        -12    1    3    3    0    0  0.27525269277E+02  0.40362321418E+01  0.26438694562E+02  0.38378850801E+02  0.00000000000E+00 0.  1.
</event>
<event>
 7    1  0.1971192E-015  0.9000767E+02  0.7816164E-02  0.1186339E+00
        -11   -1    0    0    0    0  0.00000000000E+00  0.00000000000E+00  0.45593999997E+02  0.45594000000E+02  0.51100000000E-03 0.  1.
         11   -1    0    0    0    0 -0.00000000000E+00 -0.00000000000E+00 -0.45593999997E+02  0.45594000000E+02  0.51100000000E-03 0. -1.
    9900012    2    1    2    0    0 -0.55005621893E+00 -0.11975999916E+00  0.10374404045E+01  0.90007666617E+02  0.89999927017E+02 0.  0.
         12    1    1    2    0    0  0.55005621893E+00  0.11975999916E+00 -0.10374404045E+01  0.11803333827E+01  0.00000000000E+00 0. -1.
         11    1    3    3    0    0  0.22395948968E+02 -0.34986519624E+02  0.97340429950E+00  0.41552167233E+02  0.51100000000E-03 0. -1.
        -11    1    3    3    0    0  0.51924622590E+01  0.76132503705E+01  0.10135644802E+01  0.92709524177E+01  0.51100000000E-03 0.  1.
        -12    1    3    3    0    0 -0.28138467446E+02  0.27253509254E+02 -0.94952837517E+00  0.39184546967E+02  0.00000000000E+00 0.  1.
</event>
<event>
 7    1  0.1971192E-015  0.9000771E+02  0.7816164E-02  0.1186339E+00
        -11   -1    0    0    0    0  0.00000000000E+00  0.00000000000E+00  0.45593999997E+02  0.45594000000E+02  0.51100000000E-03 0.  1.
         11   -1    0    0    0    0 -0.00000000000E+00 -0.00000000000E+00 -0.45593999997E+02  0.45594000000E+02  0.51100000000E-03 0. -1.
    9900012    2    1    2    0    0  0.12081021579E+00  0.16885497042E+00  0.11618813677E+01  0.90007713839E+02  0.89999974862E+02 0.  0.
         12    1    1    2    0    0 -0.12081021579E+00 -0.16885497042E+00 -0.11618813677E+01  0.11802861611E+01  0.00000000000E+00 0. -1.
         11    1    3    3    0    0  0.81680293282E+01  0.52991205976E+01 -0.20749923987E+01  0.99550477613E+01  0.51100000000E-03 0. -1.
        -11    1    3    3    0    0  0.13215060260E+02  0.28740506160E+02  0.19187650683E+02  0.36997573582E+02  0.51100000000E-03 0.  1.
         12    1    3    3    0    0 -0.21262279373E+02 -0.33870771787E+02 -0.15950776916E+02  0.43055092495E+02  0.00000000000E+00 0. -1.
</event>
<event>
 7    1  0.1971192E-015  0.9000773E+02  0.7816164E-02  0.1186339E+00
        -11   -1    0    0    0    0  0.00000000000E+00  0.00000000000E+00  0.45593999997E+02  0.45594000000E+02  0.51100000000E-03 0.  1.
         11   -1    0    0    0    0 -0.00000000000E+00 -0.00000000000E+00 -0.45593999997E+02  0.45594000000E+02  0.51100000000E-03 0. -1.
    9900012    2    1    2    0    0  0.55191695985E+00 -0.11851738770E+00 -0.10365241011E+01  0.90007728458E+02  0.89999989673E+02 0.  0.
         12    1    1    2    0    0 -0.55191695985E+00  0.11851738770E+00  0.10365241011E+01  0.11802715425E+01  0.00000000000E+00 0. -1.
         11    1    3    3    0    0 -0.92140997041E+00 -0.58187751498E+01 -0.78451794456E+01  0.98109113426E+01  0.51100000000E-03 0. -1.
        -11    1    3    3    0    0 -0.36892499352E+02  0.81428652796E+01  0.15410826700E+02  0.40802651179E+02  0.51100000000E-03 0.  1.
         12    1    3    3    0    0  0.38365826282E+02 -0.24426075175E+01 -0.86021713557E+01  0.39394165936E+02  0.00000000000E+00 0. -1.
</event>
<event>
 7    1  0.1971192E-015  0.9000777E+02  0.7816164E-02  0.1186339E+00
        -11   -1    0    0    0    0  0.00000000000E+00  0.00000000000E+00  0.45593999997E+02  0.45594000000E+02  0.51100000000E-03 0.  1.
         11   -1    0    0    0    0 -0.00000000000E+00 -0.00000000000E+00 -0.45593999997E+02  0.45594000000E+02  0.51100000000E-03 0. -1.
    9900012    2    1    2    0    0 -0.11439054343E+01  0.10218356939E+00 -0.27198542800E+00  0.90007772396E+02  0.90000034191E+02 0.  0.
         12    1    1    2    0    0  0.11439054343E+01 -0.10218356939E+00  0.27198542800E+00  0.11802276042E+01  0.00000000000E+00 0. -1.
         11    1    3    3    0    0 -0.46361968820E+01  0.15655126922E+02 -0.12339880645E+02  0.20465824564E+02  0.51100000000E-03 0. -1.
        -11    1    3    3    0    0  0.21604294066E+02  0.19272039939E+02  0.20105798781E+01  0.29020673273E+02  0.51100000000E-03 0.  1.
         12    1    3    3    0    0 -0.18112002618E+02 -0.34824983292E+02  0.10057315338E+02  0.40521274560E+02  0.00000000000E+00 0. -1.
</event>
<event>
 7    1  0.1971192E-015  0.9000777E+02  0.7816164E-02  0.1186339E+00
        -11   -1    0    0    0    0  0.00000000000E+00  0.00000000000E+00  0.45593999997E+02  0.45594000000E+02  0.51100000000E-03 0.  1.
         11   -1    0    0    0    0 -0.00000000000E+00 -0.00000000000E+00 -0.45593999997E+02  0.45594000000E+02  0.51100000000E-03 0. -1.
    9900012    2    1    2    0    0  0.23391776651E+00 -0.12117789089E+00  0.11504485026E+01  0.90007774022E+02  0.90000035839E+02 0.  0.
         12    1    1    2    0    0 -0.23391776651E+00  0.12117789089E+00 -0.11504485026E+01  0.11802259783E+01  0.00000000000E+00 0. -1.
         11    1    3    3    0    0 -0.36807109391E+01 -0.69824660219E+01  0.73153346207E+01  0.10761811448E+02  0.51100000000E-03 0. -1.
        -11    1    3    3    0    0  0.35492705677E+02 -0.10628453238E+02 -0.18088429247E+02  0.41229691333E+02  0.51100000000E-03 0.  1.
         12    1    3    3    0    0 -0.31578076971E+02  0.17489741369E+02  0.11923543129E+02  0.38016271241E+02  0.00000000000E+00 0. -1.
</event>
<event>
 7    1  0.1971192E-015  0.9000781E+02  0.7816164E-02  0.1186339E+00
        -11   -1    0    0    0    0  0.00000000000E+00  0.00000000000E+00  0.45593999997E+02  0.45594000000E+02  0.51100000000E-03 0. -1.
         11   -1    0    0    0    0 -0.00000000000E+00 -0.00000000000E+00 -0.45593999997E+02  0.45594000000E+02  0.51100000000E-03 0.  1.
    9900012    2    1    2    0    0  0.31535553773E+00 -0.41097494824E+00 -0.10604206312E+01  0.90007812965E+02  0.90000075296E+02 0.  0.
         12    1    1    2    0    0 -0.31535553773E+00  0.41097494824E+00  0.10604206312E+01  0.11801870354E+01  0.00000000000E+00 0. -1.
         11    1    3    3    0    0  0.72841393481E+01  0.72236097665E+01  0.32793062901E+02  0.34360212438E+02  0.51100000000E-03 0. -1.
        -11    1    3    3    0    0  0.49286321167E+01  0.43748395168E+01  0.80847664130E+01  0.10430440238E+02  0.51100000000E-03 0.  1.
        -12    1    3    3    0    0 -0.11897415927E+02 -0.12009424232E+02 -0.41938249945E+02  0.45217160289E+02  0.00000000000E+00 0.  1.
</event>
<event>
 7    1  0.1971192E-015  0.9000775E+02  0.7816164E-02  0.1186339E+00
        -11   -1    0    0    0    0  0.00000000000E+00  0.00000000000E+00  0.45593999997E+02  0.45594000000E+02  0.51100000000E-03 0. -1.
         11   -1    0    0    0    0 -0.00000000000E+00 -0.00000000000E+00 -0.45593999997E+02  0.45594000000E+02  0.51100000000E-03 0.  1.
    9900012    2    1    2    0    0  0.79486577497E+00  0.82606865146E+00 -0.28070051527E+00  0.90007748418E+02  0.90000009897E+02 0.  0.
         12    1    1    2    0    0 -0.79486577497E+00 -0.82606865146E+00  0.28070051527E+00  0.11802515818E+01  0.00000000000E+00 0. -1.
         11    1    3    3    0    0  0.38662291654E+01 -0.67030115261E+01  0.14620800754E+00  0.77394746928E+01  0.51100000000E-03 0. -1.
        -11    1    3    3    0    0  0.29021935375E+02 -0.24173084774E+01 -0.26782594112E+02  0.39565432651E+02  0.51100000000E-03 0.  1.
         12    1    3    3    0    0 -0.32093298766E+02  0.99463886549E+01  0.26355685589E+02  0.42702841074E+02  0.00000000000E+00 0. -1.
</event>
<event>
 7    1  0.1971192E-015  0.9000873E+02  0.7816164E-02  0.1186337E+00
        -11   -1    0    0    0    0  0.00000000000E+00  0.00000000000E+00  0.45593999997E+02  0.45594000000E+02  0.51100000000E-03 0. -1.
         11   -1    0    0    0    0 -0.00000000000E+00 -0.00000000000E+00 -0.45593999997E+02  0.45594000000E+02  0.51100000000E-03 0.  1.
    9900012    2    1    2    0    0  0.44170549080E+00 -0.67949946054E+00 -0.85665568456E+00  0.90008728098E+02  0.90001002503E+02 0.  0.
         12    1    1    2    0    0 -0.44170549080E+00  0.67949946054E+00  0.85665568456E+00  0.11792719022E+01  0.00000000000E+00 0. -1.
         11    1    3    3    0    0 -0.42187075556E+01  0.70811175855E+01 -0.54962158005E+01  0.99069727004E+01  0.51100000000E-03 0. -1.
        -11    1    3    3    0    0  0.25837734603E+01 -0.23954041703E+02 -0.31961211526E+02  0.40024880283E+02  0.51100000000E-03 0.  1.
         12    1    3    3    0    0  0.20766395861E+01  0.16193424657E+02  0.36600771642E+02  0.40076875114E+02  0.00000000000E+00 0. -1.
</event>
<event>
 7    1  0.1971192E-015  0.9000805E+02  0.7816164E-02  0.1186338E+00
        -11   -1    0    0    0    0  0.00000000000E+00  0.00000000000E+00  0.45593999997E+02  0.45594000000E+02  0.51100000000E-03 0.  1.
         11   -1    0    0    0    0 -0.00000000000E+00 -0.00000000000E+00 -0.45593999997E+02  0.45594000000E+02  0.51100000000E-03 0. -1.
    9900012    2    1    2    0    0  0.54957414573E+00  0.10221882761E+01  0.21304666962E+00  0.90008046824E+02  0.90000312242E+02 0.  0.
         12    1    1    2    0    0 -0.54957414573E+00 -0.10221882761E+01 -0.21304666962E+00  0.11799531757E+01  0.00000000000E+00 0. -1.
         11    1    3    3    0    0 -0.81523195796E+01  0.37433446712E+02 -0.11819727285E+02  0.40092757458E+02  0.51100000000E-03 0. -1.
        -11    1    3    3    0    0 -0.50720823847E+01 -0.32442071172E+01 -0.70302039933E+01  0.92560611485E+01  0.51100000000E-03 0.  1.
        -12    1    3    3    0    0  0.13773976110E+02 -0.33167051318E+02  0.19062977948E+02  0.40659228218E+02  0.00000000000E+00 0.  1.
</event>
<event>
 7    1  0.1971192E-015  0.9000813E+02  0.7816164E-02  0.1186338E+00
        -11   -1    0    0    0    0  0.00000000000E+00  0.00000000000E+00  0.45593999997E+02  0.45594000000E+02  0.51100000000E-03 0.  1.
         11   -1    0    0    0    0 -0.00000000000E+00 -0.00000000000E+00 -0.45593999997E+02  0.45594000000E+02  0.51100000000E-03 0. -1.
    9900012    2    1    2    0    0  0.72796490632E+00 -0.53111763853E+00 -0.76162970668E+00  0.90008127693E+02  0.90000394178E+02 0.  0.
         12    1    1    2    0    0 -0.72796490632E+00  0.53111763853E+00  0.76162970668E+00  0.11798723070E+01  0.00000000000E+00 0. -1.
         11    1    3    3    0    0  0.39586585553E+02  0.10751737920E+02 -0.12983309275E+02  0.43026316877E+02  0.51100000000E-03 0. -1.
        -11    1    3    3    0    0 -0.39239701071E+01 -0.87302431823E+01 -0.81611892339E+00  0.96062863679E+01  0.51100000000E-03 0.  1.
        -12    1    3    3    0    0 -0.34934650539E+02 -0.25526123761E+01  0.13037798492E+02  0.37375524448E+02  0.00000000000E+00 0.  1.
</event>
<event>
 7    1  0.1971192E-015  0.9000773E+02  0.7816164E-02  0.1186339E+00
        -11   -1    0    0    0    0  0.00000000000E+00  0.00000000000E+00  0.45593999997E+02  0.45594000000E+02  0.51100000000E-03 0.  1.
         11   -1    0    0    0    0 -0.00000000000E+00 -0.00000000000E+00 -0.45593999997E+02  0.45594000000E+02  0.51100000000E-03 0. -1.
    9900012    2    1    2    0    0 -0.93761837702E+00 -0.60785373292E+00 -0.38002855104E+00  0.90007730505E+02  0.89999991748E+02 0.  0.
         12    1    1    2    0    0  0.93761837702E+00  0.60785373292E+00  0.38002855104E+00  0.11802694951E+01  0.00000000000E+00 0. -1.
         11    1    3    3    0    0 -0.52306355153E+01  0.34657280073E+02 -0.87864247682E+01  0.36134303237E+02  0.51100000000E-03 0. -1.
        -11    1    3    3    0    0 -0.99004614625E+01  0.39023876910E+01 -0.22392420951E+01  0.10874832058E+02  0.51100000000E-03 0.  1.
        -12    1    3    3    0    0  0.14193478601E+02 -0.39167521497E+02  0.10645638312E+02  0.42998595210E+02  0.00000000000E+00 0.  1.
</event>
<event>
 7    1  0.1971192E-015  0.9000771E+02  0.7816164E-02  0.1186339E+00
        -11   -1    0    0    0    0  0.00000000000E+00  0.00000000000E+00  0.45593999997E+02  0.45594000000E+02  0.51100000000E-03 0.  1.
         11   -1    0    0    0    0 -0.00000000000E+00 -0.00000000000E+00 -0.45593999997E+02  0.45594000000E+02  0.51100000000E-03 0. -1.
    9900012    2    1    2    0    0 -0.62000258372E+00  0.23538799250E+00  0.97636117637E+00  0.90007706876E+02  0.89999967807E+02 0.  0.
         12    1    1    2    0    0  0.62000258372E+00 -0.23538799250E+00 -0.97636117637E+00  0.11802931236E+01  0.00000000000E+00 0. -1.
         11    1    3    3    0    0 -0.19706629605E+01 -0.72195076524E+01  0.48481651917E+01  0.89168104855E+01  0.51100000000E-03 0. -1.
        -11    1    3    3    0    0  0.19926542843E+02 -0.31417296875E+02 -0.71471316993E+01  0.37883969491E+02  0.51100000000E-03 0.  1.
         12    1    3    3    0    0 -0.18575882467E+02  0.38872192520E+02  0.32753276840E+01  0.43206926900E+02  0.00000000000E+00 0. -1.
</event>
<event>
 7    1  0.1971192E-015  0.9000770E+02  0.7816164E-02  0.1186339E+00
        -11   -1    0    0    0    0  0.00000000000E+00  0.00000000000E+00  0.45593999997E+02  0.45594000000E+02  0.51100000000E-03 0. -1.
         11   -1    0    0    0    0 -0.00000000000E+00 -0.00000000000E+00 -0.45593999997E+02  0.45594000000E+02  0.51100000000E-03 0.  1.
    9900012    2    1    2    0    0  0.79138776448E+00 -0.58207464134E+00 -0.65422764732E+00  0.90007695253E+02  0.89999956030E+02 0.  0.
         12    1    1    2    0    0 -0.79138776448E+00  0.58207464134E+00  0.65422764732E+00  0.11803047472E+01  0.00000000000E+00 0. -1.
         11    1    3    3    0    0 -0.17617095785E+02 -0.28307447042E+02  0.87542768945E+01  0.34471886895E+02  0.51100000000E-03 0. -1.
        -11    1    3    3    0    0 -0.71827259993E+01 -0.64953141747E+01  0.43889417729E+01  0.10632190233E+02  0.51100000000E-03 0.  1.
        -12    1    3    3    0    0  0.25591209548E+02  0.34220686575E+02 -0.13797446315E+02  0.44903618124E+02  0.00000000000E+00 0.  1.
</event>
<event>
 7    1  0.1971192E-015  0.9000766E+02  0.7816164E-02  0.1186339E+00
        -11   -1    0    0    0    0  0.00000000000E+00  0.00000000000E+00  0.45593999997E+02  0.45594000000E+02  0.51100000000E-03 0. -1.
         11   -1    0    0    0    0 -0.00000000000E+00 -0.00000000000E+00 -0.45593999997E+02  0.45594000000E+02  0.51100000000E-03 0.  1.
    9900012    2    1    2    0    0  0.71906445347E+00  0.79224259444E+00 -0.49850425885E+00  0.90007657460E+02  0.89999917738E+02 0.  0.
         12    1    1    2    0    0 -0.71906445347E+00 -0.79224259444E+00  0.49850425885E+00  0.11803425404E+01  0.00000000000E+00 0. -1.
         11    1    3    3    0    0 -0.89934887903E+01 -0.53975372848E+01 -0.14877695416E+01  0.10593852360E+02  0.51100000000E-03 0. -1.
        -11    1    3    3    0    0 -0.30524486689E+02 -0.45134516305E+01 -0.15622773030E+02  0.34585930242E+02  0.51100000000E-03 0.  1.
         12    1    3    3    0    0  0.40237039933E+02  0.10703231510E+02  0.16612038313E+02  0.44827874858E+02  0.00000000000E+00 0. -1.
</event>
<event>
 7    1  0.1971192E-015  0.9000768E+02  0.7816164E-02  0.1186339E+00
        -11   -1    0    0    0    0  0.00000000000E+00  0.00000000000E+00  0.45593999997E+02  0.45594000000E+02  0.51100000000E-03 0.  1.
         11   -1    0    0    0    0 -0.00000000000E+00 -0.00000000000E+00 -0.45593999997E+02  0.45594000000E+02  0.51100000000E-03 0. -1.
    9900012    2    1    2    0    0  0.67734971425E+00 -0.62471289952E-01  0.96459424544E+00  0.90007683366E+02  0.89999943987E+02 0.  0.
         12    1    1    2    0    0 -0.67734971425E+00  0.62471289952E-01 -0.96459424544E+00  0.11803166337E+01  0.00000000000E+00 0. -1.
         11    1    3    3    0    0  0.58831340098E+01  0.67922277103E+01  0.64005770190E+01  0.11032361918E+02  0.51100000000E-03 0. -1.
        -11    1    3    3    0    0  0.10522290126E+02 -0.38892607757E+02  0.75571529207E+01  0.40993463968E+02  0.51100000000E-03 0.  1.
         12    1    3    3    0    0 -0.15728074421E+02  0.32037908756E+02 -0.12993135694E+02  0.37981857480E+02  0.00000000000E+00 0. -1.
</event>
<event>
 7    1  0.1971192E-015  0.9000772E+02  0.7816164E-02  0.1186339E+00
        -11   -1    0    0    0    0  0.00000000000E+00  0.00000000000E+00  0.45593999997E+02  0.45594000000E+02  0.51100000000E-03 0.  1.
         11   -1    0    0    0    0 -0.00000000000E+00 -0.00000000000E+00 -0.45593999997E+02  0.45594000000E+02  0.51100000000E-03 0. -1.
    9900012    2    1    2    0    0 -0.27029492046E+00 -0.10558265975E+01  0.45302197809E+00  0.90007721194E+02  0.89999982313E+02 0.  0.
         12    1    1    2    0    0  0.27029492046E+00  0.10558265975E+01 -0.45302197809E+00  0.11802788063E+01  0.00000000000E+00 0. -1.
         11    1    3    3    0    0 -0.11120767261E+02 -0.33346811536E+02 -0.16841568981E+02  0.38978452382E+02  0.51100000000E-03 0. -1.
        -11    1    3    3    0    0  0.13914942807E+01 -0.47764300563E+01 -0.47487198746E+01  0.68775636038E+01  0.51100000000E-03 0.  1.
        -12    1    3    3    0    0  0.94589780593E+01  0.37067414995E+02  0.22043310833E+02  0.44151705208E+02  0.00000000000E+00 0.  1.
</event>
<event>
 7    1  0.1971192E-015  0.9000783E+02  0.7816164E-02  0.1186339E+00
        -11   -1    0    0    0    0  0.00000000000E+00  0.00000000000E+00  0.45593999997E+02  0.45594000000E+02  0.51100000000E-03 0. -1.
         11   -1    0    0    0    0 -0.00000000000E+00 -0.00000000000E+00 -0.45593999997E+02  0.45594000000E+02  0.51100000000E-03 0.  1.
    9900012    2    1    2    0    0  0.11542608595E+01 -0.42987049221E-01  0.24215492147E+00  0.90007828392E+02  0.90000090927E+02 0.  0.
         12    1    1    2    0    0 -0.11542608595E+01  0.42987049221E-01 -0.24215492147E+00  0.11801716079E+01  0.00000000000E+00 0. -1.
         11    1    3    3    0    0  0.24571342617E+01 -0.76004627314E+01  0.42926267839E+02  0.43663131053E+02  0.51100000000E-03 0. -1.
        -11    1    3    3    0    0 -0.31800572172E+01  0.21895786962E+01 -0.63503877952E+00  0.39128369867E+01  0.51100000000E-03 0.  1.
        -12    1    3    3    0    0  0.18771838150E+01  0.53678969860E+01 -0.42049074138E+02  0.42431860353E+02  0.00000000000E+00 0.  1.
</event>
<event>
 7    1  0.1971192E-015  0.9000755E+02  0.7816164E-02  0.1186339E+00
        -11   -1    0    0    0    0  0.00000000000E+00  0.00000000000E+00  0.45593999997E+02  0.45594000000E+02  0.51100000000E-03 0. -1.
         11   -1    0    0    0    0 -0.00000000000E+00 -0.00000000000E+00 -0.45593999997E+02  0.45594000000E+02  0.51100000000E-03 0.  1.
    9900012    2    1    2    0    0 -0.20258799682E+00 -0.11119088280E+01 -0.34069698749E+00  0.90007551960E+02  0.89999810846E+02 0.  0.
         12    1    1    2    0    0  0.20258799682E+00  0.11119088280E+01  0.34069698749E+00  0.11804480401E+01  0.00000000000E+00 0. -1.
         11    1    3    3    0    0 -0.17730970799E+02 -0.35087058815E+02  0.17745413318E+02  0.43132223637E+02  0.51100000000E-03 0. -1.
        -11    1    3    3    0    0  0.49624746709E+01  0.64518835643E+01  0.43304517531E+01  0.92198573218E+01  0.51100000000E-03 0.  1.
        -12    1    3    3    0    0  0.12565908131E+02  0.27523266423E+02 -0.22416562059E+02  0.37655471001E+02  0.00000000000E+00 0.  1.
</event>
<event>
 7    1  0.1971192E-015  0.9000774E+02  0.7816164E-02  0.1186339E+00
        -11   -1    0    0    0    0  0.00000000000E+00  0.00000000000E+00  0.45593999997E+02  0.45594000000E+02  0.51100000000E-03 0. -1.
         11   -1    0    0    0    0 -0.00000000000E+00 -0.00000000000E+00 -0.45593999997E+02  0.45594000000E+02  0.51100000000E-03 0.  1.
    9900012    2    1    2    0    0  0.10528286595E+01  0.43244694114E+00 -0.31232833853E+00  0.90007742598E+02  0.90000004001E+02 0.  0.
         12    1    1    2    0    0 -0.10528286595E+01 -0.43244694114E+00  0.31232833853E+00  0.11802574017E+01  0.00000000000E+00 0. -1.
         11    1    3    3    0    0 -0.29821430813E+02  0.16452652469E+02 -0.41275346958E+01  0.34308075608E+02  0.51100000000E-03 0. -1.
        -11    1    3    3    0    0  0.32736171951E+01  0.11740767627E+02 -0.82706247179E+01  0.14729746348E+02  0.51100000000E-03 0.  1.
        -12    1    3    3    0    0  0.27600642278E+02 -0.27760973154E+02  0.12085831075E+02  0.40969920642E+02  0.00000000000E+00 0.  1.
</event>
<event>
 7    1  0.1971192E-015  0.9000751E+02  0.7816164E-02  0.1186340E+00
        -11   -1    0    0    0    0  0.00000000000E+00  0.00000000000E+00  0.45593999997E+02  0.45594000000E+02  0.51100000000E-03 0. -1.
         11   -1    0    0    0    0 -0.00000000000E+00 -0.00000000000E+00 -0.45593999997E+02  0.45594000000E+02  0.51100000000E-03 0.  1.
    9900012    2    1    2    0    0 -0.36912670077E+00 -0.77599740425E+00 -0.80940555692E+00  0.90007506947E+02  0.89999765238E+02 0.  0.
         12    1    1    2    0    0  0.36912670077E+00  0.77599740425E+00  0.80940555692E+00  0.11804930530E+01  0.00000000000E+00 0. -1.
         11    1    3    3    0    0  0.17765841215E+01  0.13745443824E+02  0.32023866158E+02  0.34894433381E+02  0.51100000000E-03 0. -1.
        -11    1    3    3    0    0 -0.18448790708E+01  0.14813450137E+02 -0.10889933246E+02  0.18477893011E+02  0.51100000000E-03 0.  1.
        -12    1    3    3    0    0 -0.30083175148E+00 -0.29334891365E+02 -0.21943338469E+02  0.36635180555E+02  0.00000000000E+00 0.  1.
</event>
<event>
 7    1  0.1971192E-015  0.9000774E+02  0.7816164E-02  0.1186339E+00
        -11   -1    0    0    0    0  0.00000000000E+00  0.00000000000E+00  0.45593999997E+02  0.45594000000E+02  0.51100000000E-03 0.  1.
         11   -1    0    0    0    0 -0.00000000000E+00 -0.00000000000E+00 -0.45593999997E+02  0.45594000000E+02  0.51100000000E-03 0. -1.
    9900012    2    1    2    0    0 -0.12009622422E-01  0.70970872797E+00  0.94296119761E+00  0.90007743024E+02  0.90000004432E+02 0.  0.
         12    1    1    2    0    0  0.12009622422E-01 -0.70970872797E+00 -0.94296119761E+00  0.11802569762E+01  0.00000000000E+00 0. -1.
         11    1    3    3    0    0 -0.22108611021E-01  0.17857737132E+01  0.97187772653E+01  0.98815033441E+01  0.51100000000E-03 0. -1.
        -11    1    3    3    0    0 -0.21288130380E+02 -0.14981513277E+02  0.26164513756E+02  0.36908156490E+02  0.51100000000E-03 0.  1.
         12    1    3    3    0    0  0.21298229369E+02  0.13905448291E+02 -0.34940329824E+02  0.43218083190E+02  0.00000000000E+00 0. -1.
</event>
<event>
 7    1  0.1971192E-015  0.9000772E+02  0.7816164E-02  0.1186339E+00
        -11   -1    0    0    0    0  0.00000000000E+00  0.00000000000E+00  0.45593999997E+02  0.45594000000E+02  0.51100000000E-03 0.  1.
         11   -1    0    0    0    0 -0.00000000000E+00 -0.00000000000E+00 -0.45593999997E+02  0.45594000000E+02  0.51100000000E-03 0. -1.
    9900012    2    1    2    0    0 -0.24157238716E+00 -0.32311285102E+00  0.11091860570E+01  0.90007723405E+02  0.89999984554E+02 0.  0.
         12    1    1    2    0    0  0.24157238716E+00  0.32311285102E+00 -0.11091860570E+01  0.11802765954E+01  0.00000000000E+00 0. -1.
         11    1    3    3    0    0  0.13426502537E+02 -0.17075514976E+02 -0.26731572775E+02  0.34444464945E+02  0.51100000000E-03 0. -1.
        -11    1    3    3    0    0  0.47423547725E+01  0.24057814283E+01 -0.98714333403E+01  0.11212622776E+02  0.51100000000E-03 0.  1.
        -12    1    3    3    0    0 -0.18410429696E+02  0.14346620697E+02  0.37712192173E+02  0.44350635683E+02  0.00000000000E+00 0.  1.
</event>
<event>
 7    1  0.1971192E-015  0.9000756E+02  0.7816164E-02  0.1186339E+00
        -11   -1    0    0    0    0  0.00000000000E+00  0.00000000000E+00  0.45593999997E+02  0.45594000000E+02  0.51100000000E-03 0.  1.
         11   -1    0    0    0    0 -0.00000000000E+00 -0.00000000000E+00 -0.45593999997E+02  0.45594000000E+02  0.51100000000E-03 0. -1.
    9900012    2    1    2    0    0  0.77240014009E+00  0.85008647630E+00  0.27236801174E+00  0.90007562231E+02  0.89999821252E+02 0.  0.
         12    1    1    2    0    0 -0.77240014009E+00 -0.85008647630E+00 -0.27236801174E+00  0.11804377694E+01  0.00000000000E+00 0. -1.
         11    1    3    3    0    0  0.34390638986E+02 -0.94351428906E+01 -0.32453388681E+01  0.35808800537E+02  0.51100000000E-03 0. -1.
        -11    1    3    3    0    0  0.41787085751E+01  0.10614084731E+02 -0.88401476582E+01  0.14431514505E+02  0.51100000000E-03 0.  1.
        -12    1    3    3    0    0 -0.37796947421E+02 -0.32885536392E+00  0.12357854538E+02  0.39767247189E+02  0.00000000000E+00 0.  1.
</event>
<event>
 7    1  0.1971192E-015  0.9000771E+02  0.7816164E-02  0.1186339E+00
        -11   -1    0    0    0    0  0.00000000000E+00  0.00000000000E+00  0.45593999997E+02  0.45594000000E+02  0.51100000000E-03 0.  1.
         11   -1    0    0    0    0 -0.00000000000E+00 -0.00000000000E+00 -0.45593999997E+02  0.45594000000E+02  0.51100000000E-03 0. -1.
    9900012    2    1    2    0    0 -0.70423279880E-01  0.73253635704E+00  0.92277850689E+00  0.90007708034E+02  0.89999968980E+02 0.  0.
         12    1    1    2    0    0  0.70423279880E-01 -0.73253635704E+00 -0.92277850689E+00  0.11802919662E+01  0.00000000000E+00 0. -1.
         11    1    3    3    0    0 -0.21915010558E+01  0.48318546524E+01 -0.54336603826E+01  0.75943506420E+01  0.51100000000E-03 0. -1.
        -11    1    3    3    0    0  0.39163040387E+02  0.13034397063E+02  0.50146428217E+01  0.41578670999E+02  0.51100000000E-03 0.  1.
         12    1    3    3    0    0 -0.37041962611E+02 -0.17133715358E+02  0.13417960678E+01  0.40834686393E+02  0.00000000000E+00 0. -1.
</event>
<event>
 7    1  0.1971192E-015  0.9000773E+02  0.7816164E-02  0.1186339E+00
        -11   -1    0    0    0    0  0.00000000000E+00  0.00000000000E+00  0.45593999997E+02  0.45594000000E+02  0.51100000000E-03 0.  1.
         11   -1    0    0    0    0 -0.00000000000E+00 -0.00000000000E+00 -0.45593999997E+02  0.45594000000E+02  0.51100000000E-03 0. -1.
    9900012    2    1    2    0    0 -0.69619754742E+00 -0.51366425131E-01 -0.95168556325E+00  0.90007730986E+02  0.89999992235E+02 0.  0.
         12    1    1    2    0    0  0.69619754743E+00  0.51366425131E-01  0.95168556325E+00  0.11802690142E+01  0.00000000000E+00 0. -1.
         11    1    3    3    0    0  0.51644368394E+00 -0.10626507020E+02  0.31231473921E+01  0.11087985183E+02  0.51100000000E-03 0. -1.
        -11    1    3    3    0    0 -0.32613746484E+02 -0.16528262235E+02 -0.74076319831E+01  0.37305668793E+02  0.51100000000E-03 0.  1.
         12    1    3    3    0    0  0.31401105253E+02  0.27103402830E+02  0.33327990277E+01  0.41614077010E+02  0.00000000000E+00 0. -1.
</event>
<event>
 7    1  0.1971192E-015  0.9000780E+02  0.7816164E-02  0.1186339E+00
        -11   -1    0    0    0    0  0.00000000000E+00  0.00000000000E+00  0.45593999997E+02  0.45594000000E+02  0.51100000000E-03 0. -1.
         11   -1    0    0    0    0 -0.00000000000E+00 -0.00000000000E+00 -0.45593999997E+02  0.45594000000E+02  0.51100000000E-03 0.  1.
    9900012    2    1    2    0    0 -0.99491275131E+00 -0.63471507160E+00 -0.12991138637E-01  0.90007795198E+02  0.90000057295E+02 0.  0.
         12    1    1    2    0    0  0.99491275131E+00  0.63471507160E+00  0.12991138637E-01  0.11802048019E+01  0.00000000000E+00 0. -1.
         11    1    3    3    0    0  0.46447836535E+01  0.19359885738E+01  0.80556600660E+01  0.94981959500E+01  0.51100000000E-03 0. -1.
        -11    1    3    3    0    0  0.19948055236E+02  0.31526047463E+02 -0.63601920155E+01  0.37845324931E+02  0.51100000000E-03 0.  1.
         12    1    3    3    0    0 -0.25587751641E+02 -0.34096751109E+02 -0.17084591891E+01  0.42664274317E+02  0.00000000000E+00 0. -1.
</event>
<event>
 7    1  0.1971192E-015  0.9000761E+02  0.7816164E-02  0.1186339E+00
        -11   -1    0    0    0    0  0.00000000000E+00  0.00000000000E+00  0.45593999997E+02  0.45594000000E+02  0.51100000000E-03 0.  1.
         11   -1    0    0    0    0 -0.00000000000E+00 -0.00000000000E+00 -0.45593999997E+02  0.45594000000E+02  0.51100000000E-03 0. -1.
    9900012    2    1    2    0    0  0.93075821357E+00 -0.78795671448E-01  0.72166226043E+00  0.90007611916E+02  0.89999871594E+02 0.  0.
         12    1    1    2    0    0 -0.93075821357E+00  0.78795671448E-01 -0.72166226043E+00  0.11803880837E+01  0.00000000000E+00 0. -1.
         11    1    3    3    0    0 -0.18605768533E+02 -0.15661232104E+02 -0.36037386520E+02  0.43475763837E+02  0.51100000000E-03 0. -1.
        -11    1    3    3    0    0 -0.94315676086E+00  0.32870197791E+00  0.80395144630E+01  0.81013198139E+01  0.51100000000E-03 0.  1.
        -12    1    3    3    0    0  0.20479683507E+02  0.15253734454E+02  0.28719534318E+02  0.38430528266E+02  0.00000000000E+00 0.  1.
</event>
<event>
 7    1  0.1971192E-015  0.9000775E+02  0.7816164E-02  0.1186339E+00
        -11   -1    0    0    0    0  0.00000000000E+00  0.00000000000E+00  0.45593999997E+02  0.45594000000E+02  0.51100000000E-03 0.  1.
         11   -1    0    0    0    0 -0.00000000000E+00 -0.00000000000E+00 -0.45593999997E+02  0.45594000000E+02  0.51100000000E-03 0. -1.
    9900012    2    1    2    0    0  0.19666868701E+00 -0.85154172465E+00  0.79321447735E+00  0.90007749565E+02  0.90000011060E+02 0.  0.
         12    1    1    2    0    0 -0.19666868701E+00  0.85154172465E+00 -0.79321447735E+00  0.11802504346E+01  0.00000000000E+00 0. -1.
         11    1    3    3    0    0 -0.28901235760E+01  0.33329742945E+02 -0.28739167294E+02  0.44104017006E+02  0.51100000000E-03 0. -1.
        -11    1    3    3    0    0 -0.16968957341E+01 -0.49638303923E+01  0.67360094567E+01  0.85377333618E+01  0.51100000000E-03 0.  1.
        -12    1    3    3    0    0  0.47836879972E+01 -0.29217454278E+02  0.22796372314E+02  0.37365999197E+02  0.00000000000E+00 0.  1.
</event>
<event>
 7    1  0.1971192E-015  0.9000778E+02  0.7816164E-02  0.1186339E+00
        -11   -1    0    0    0    0  0.00000000000E+00  0.00000000000E+00  0.45593999997E+02  0.45594000000E+02  0.51100000000E-03 0. -1.
         11   -1    0    0    0    0 -0.00000000000E+00 -0.00000000000E+00 -0.45593999997E+02  0.45594000000E+02  0.51100000000E-03 0.  1.
    9900012    2    1    2    0    0  0.36559233309E+00 -0.11035578446E+01 -0.20354461503E+00  0.90007776258E+02  0.90000038105E+02 0.  0.
         12    1    1    2    0    0 -0.36559233309E+00  0.11035578446E+01  0.20354461503E+00  0.11802237418E+01  0.00000000000E+00 0. -1.
         11    1    3    3    0    0 -0.17280052804E+02 -0.32421527424E+00  0.21732762981E+01  0.17419198333E+02  0.51100000000E-03 0. -1.
        -11    1    3    3    0    0 -0.13982276067E+02 -0.27580888313E+02  0.14437270372E+01  0.30956320714E+02  0.51100000000E-03 0.  1.
         12    1    3    3    0    0  0.31627921204E+02  0.26801545742E+02 -0.38205479503E+01  0.41632257211E+02  0.00000000000E+00 0. -1.
</event>
<event>
 7    1  0.1971192E-015  0.9000759E+02  0.7816164E-02  0.1186339E+00
        -11   -1    0    0    0    0  0.00000000000E+00  0.00000000000E+00  0.45593999997E+02  0.45594000000E+02  0.51100000000E-03 0.  1.
         11   -1    0    0    0    0 -0.00000000000E+00 -0.00000000000E+00 -0.45593999997E+02  0.45594000000E+02  0.51100000000E-03 0. -1.
    9900012    2    1    2    0    0  0.67762986400E+00 -0.14392679997E+00 -0.95575461233E+00  0.90007591581E+02  0.89999850990E+02 0.  0.
         12    1    1    2    0    0 -0.67762986400E+00  0.14392679997E+00  0.95575461233E+00  0.11804084189E+01  0.00000000000E+00 0. -1.
         11    1    3    3    0    0 -0.81793638284E+01  0.44741301484E-01 -0.45853956616E+01  0.93770916630E+01  0.51100000000E-03 0. -1.
        -11    1    3    3    0    0 -0.10335755820E+02 -0.94983577568E+01  0.37814639061E+02  0.40336008429E+02  0.51100000000E-03 0.  1.
         12    1    3    3    0    0  0.19192749512E+02  0.93096896553E+01 -0.34184998012E+02  0.40294491489E+02  0.00000000000E+00 0. -1.
</event>
<event>
 7    1  0.1971192E-015  0.9000778E+02  0.7816164E-02  0.1186339E+00
        -11   -1    0    0    0    0  0.00000000000E+00  0.00000000000E+00  0.45593999997E+02  0.45594000000E+02  0.51100000000E-03 0.  1.
         11   -1    0    0    0    0 -0.00000000000E+00 -0.00000000000E+00 -0.45593999997E+02  0.45594000000E+02  0.51100000000E-03 0. -1.
    9900012    2    1    2    0    0 -0.89033931722E+00 -0.59664216641E+00 -0.49419066699E+00  0.90007783753E+02  0.90000045698E+02 0.  0.
         12    1    1    2    0    0  0.89033931722E+00  0.59664216641E+00  0.49419066699E+00  0.11802162471E+01  0.00000000000E+00 0. -1.
         11    1    3    3    0    0 -0.14685858890E+02  0.34751127370E+01 -0.36071009584E+02  0.39100749258E+02  0.51100000000E-03 0. -1.
        -11    1    3    3    0    0 -0.28029453137E+01 -0.91778922021E+01 -0.17348642123E+01  0.97519209288E+01  0.51100000000E-03 0.  1.
        -12    1    3    3    0    0  0.16598464886E+02  0.51061372988E+01  0.37311683129E+02  0.41155113566E+02  0.00000000000E+00 0.  1.
</event>
<event>
 7    1  0.1971192E-015  0.9000780E+02  0.7816164E-02  0.1186339E+00
        -11   -1    0    0    0    0  0.00000000000E+00  0.00000000000E+00  0.45593999997E+02  0.45594000000E+02  0.51100000000E-03 0.  1.
         11   -1    0    0    0    0 -0.00000000000E+00 -0.00000000000E+00 -0.45593999997E+02  0.45594000000E+02  0.51100000000E-03 0. -1.
    9900012    2    1    2    0    0 -0.25694962590E+00 -0.11097780587E+01  0.30861163807E+00  0.90007800189E+02  0.90000062352E+02 0.  0.
         12    1    1    2    0    0  0.25694962590E+00  0.11097780587E+01 -0.30861163807E+00  0.11801998107E+01  0.00000000000E+00 0. -1.
         11    1    3    3    0    0 -0.59261149071E+01  0.78180009466E+00 -0.68850009563E+01  0.91177457581E+01  0.51100000000E-03 0. -1.
        -11    1    3    3    0    0 -0.14622886087E+02 -0.30558753354E+02 -0.17330812664E+02  0.38052900966E+02  0.51100000000E-03 0.  1.
         12    1    3    3    0    0  0.20292051369E+02  0.28667175201E+02  0.24524425258E+02  0.42837153465E+02  0.00000000000E+00 0. -1.
</event>
<event>
 7    1  0.1971192E-015  0.9000831E+02  0.7816164E-02  0.1186338E+00
        -11   -1    0    0    0    0  0.00000000000E+00  0.00000000000E+00  0.45593999997E+02  0.45594000000E+02  0.51100000000E-03 0. -1.
         11   -1    0    0    0    0 -0.00000000000E+00 -0.00000000000E+00 -0.45593999997E+02  0.45594000000E+02  0.51100000000E-03 0.  1.
    9900012    2    1    2    0    0 -0.25383274632E+00  0.11211373047E+01  0.26514130797E+00  0.90008305195E+02  0.90000574022E+02 0.  0.
         12    1    1    2    0    0  0.25383274632E+00 -0.11211373047E+01 -0.26514130797E+00  0.11796948047E+01  0.00000000000E+00 0. -1.
         11    1    3    3    0    0 -0.50932588942E+01 -0.56621317825E+01  0.74716368891E+01  0.10668944678E+02  0.51100000000E-03 0. -1.
        -11    1    3    3    0    0 -0.10996402943E+02 -0.56286087937E+01 -0.39446812472E+02  0.41335857668E+02  0.51100000000E-03 0.  1.
         12    1    3    3    0    0  0.15835829091E+02  0.12411877881E+02  0.32240316891E+02  0.38003502849E+02  0.00000000000E+00 0. -1.
</event>
<event>
 7    1  0.1971192E-015  0.9000776E+02  0.7816164E-02  0.1186339E+00
        -11   -1    0    0    0    0  0.00000000000E+00  0.00000000000E+00  0.45593999997E+02  0.45594000000E+02  0.51100000000E-03 0.  1.
         11   -1    0    0    0    0 -0.00000000000E+00 -0.00000000000E+00 -0.45593999997E+02  0.45594000000E+02  0.51100000000E-03 0. -1.
    9900012    2    1    2    0    0  0.78707741308E+00 -0.77988377014E+00  0.40651884310E+00  0.90007759720E+02  0.90000021348E+02 0.  0.
         12    1    1    2    0    0 -0.78707741308E+00  0.77988377014E+00 -0.40651884310E+00  0.11802402802E+01  0.00000000000E+00 0. -1.
         11    1    3    3    0    0  0.34218444374E+02 -0.11727854550E+02  0.16670711872E+02  0.39829099190E+02  0.51100000000E-03 0. -1.
        -11    1    3    3    0    0  0.72903799038E+00 -0.18561983884E+01  0.67542443215E+01  0.70424985242E+01  0.51100000000E-03 0.  1.
        -12    1    3    3    0    0 -0.34160404951E+02  0.12804169168E+02 -0.23018437350E+02  0.43136162006E+02  0.00000000000E+00 0.  1.
</event>
<event>
 7    1  0.1971192E-015  0.9000695E+02  0.7816164E-02  0.1186341E+00
        -11   -1    0    0    0    0  0.00000000000E+00  0.00000000000E+00  0.45593999997E+02  0.45594000000E+02  0.51100000000E-03 0. -1.
         11   -1    0    0    0    0 -0.00000000000E+00 -0.00000000000E+00 -0.45593999997E+02  0.45594000000E+02  0.51100000000E-03 0.  1.
    9900012    2    1    2    0    0  0.52366635990E+00 -0.19240658400E+00 -0.10409740531E+01  0.90006952275E+02  0.89999203241E+02 0.  0.
         12    1    1    2    0    0 -0.52366635990E+00  0.19240658400E+00  0.10409740531E+01  0.11810477253E+01  0.00000000000E+00 0. -1.
         11    1    3    3    0    0  0.59388476662E+00  0.10792682506E+02 -0.26532604847E+01  0.11129891566E+02  0.51100000000E-03 0. -1.
        -11    1    3    3    0    0  0.91226613805E+01  0.25645384723E+02 -0.21423887767E+02  0.34639452588E+02  0.51100000000E-03 0.  1.
         12    1    3    3    0    0 -0.91928797872E+01 -0.36630473814E+02  0.23036174199E+02  0.44237608121E+02  0.00000000000E+00 0. -1.
</event>
<event>
 7    1  0.1971192E-015  0.9000775E+02  0.7816164E-02  0.1186339E+00
        -11   -1    0    0    0    0  0.00000000000E+00  0.00000000000E+00  0.45593999997E+02  0.45594000000E+02  0.51100000000E-03 0. -1.
         11   -1    0    0    0    0 -0.00000000000E+00 -0.00000000000E+00 -0.45593999997E+02  0.45594000000E+02  0.51100000000E-03 0.  1.
    9900012    2    1    2    0    0  0.20026336788E+00 -0.70997153748E+00 -0.92131791153E+00  0.90007749309E+02  0.90000010799E+02 0.  0.
         12    1    1    2    0    0 -0.20026336788E+00  0.70997153748E+00  0.92131791153E+00  0.11802506914E+01  0.00000000000E+00 0. -1.
         11    1    3    3    0    0  0.28902987183E+02 -0.14814297490E+02  0.21228250025E+02  0.38800575738E+02  0.51100000000E-03 0. -1.
        -11    1    3    3    0    0  0.41794517146E+01  0.22501798895E+00  0.48849895479E+01  0.64328510689E+01  0.51100000000E-03 0.  1.
        -12    1    3    3    0    0 -0.32882175529E+02  0.13879307964E+02 -0.27034557484E+02  0.44774322502E+02  0.00000000000E+00 0.  1.
</event>
<event>
 7    1  0.1971192E-015  0.9000777E+02  0.7816164E-02  0.1186339E+00
        -11   -1    0    0    0    0  0.00000000000E+00  0.00000000000E+00  0.45593999997E+02  0.45594000000E+02  0.51100000000E-03 0. -1.
         11   -1    0    0    0    0 -0.00000000000E+00 -0.00000000000E+00 -0.45593999997E+02  0.45594000000E+02  0.51100000000E-03 0.  1.
    9900012    2    1    2    0    0 -0.15471719571E+00  0.11642232627E+01  0.11653992529E+00  0.90007773424E+02  0.90000035233E+02 0.  0.
         12    1    1    2    0    0  0.15471719571E+00 -0.11642232627E+01 -0.11653992529E+00  0.11802265758E+01  0.00000000000E+00 0. -1.
         11    1    3    3    0    0 -0.83232215173E+01  0.39040366975E-01  0.45578923364E+01  0.94895691888E+01  0.51100000000E-03 0. -1.
        -11    1    3    3    0    0 -0.35226285449E+02 -0.54145129984E+01  0.38829742877E+01  0.35850880423E+02  0.51100000000E-03 0.  1.
         12    1    3    3    0    0  0.43394789770E+02  0.65396958940E+01 -0.83243266988E+01  0.44667323813E+02  0.00000000000E+00 0. -1.
</event>
<event>
 7    1  0.1971192E-015  0.9000772E+02  0.7816164E-02  0.1186339E+00
        -11   -1    0    0    0    0  0.00000000000E+00  0.00000000000E+00  0.45593999997E+02  0.45594000000E+02  0.51100000000E-03 0. -1.
         11   -1    0    0    0    0 -0.00000000000E+00 -0.00000000000E+00 -0.45593999997E+02  0.45594000000E+02  0.51100000000E-03 0.  1.
    9900012    2    1    2    0    0 -0.41200306149E+00  0.86986320515E+00  0.68312469634E+00  0.90007717039E+02  0.89999978103E+02 0.  0.
         12    1    1    2    0    0  0.41200306149E+00 -0.86986320515E+00 -0.68312469634E+00  0.11802829615E+01  0.00000000000E+00 0. -1.
         11    1    3    3    0    0 -0.24007333852E+02 -0.26465138284E+02  0.42221639249E+01  0.35980304217E+02  0.51100000000E-03 0. -1.
        -11    1    3    3    0    0 -0.71283412217E+01 -0.39570365621E+01  0.46939869313E+01  0.94077043161E+01  0.51100000000E-03 0.  1.
        -12    1    3    3    0    0  0.30723672012E+02  0.31292038052E+02 -0.82330261599E+01  0.44619708505E+02  0.00000000000E+00 0.  1.
</event>
<event>
 7    1  0.1971192E-015  0.9000778E+02  0.7816164E-02  0.1186339E+00
        -11   -1    0    0    0    0  0.00000000000E+00  0.00000000000E+00  0.45593999997E+02  0.45594000000E+02  0.51100000000E-03 0.  1.
         11   -1    0    0    0    0 -0.00000000000E+00 -0.00000000000E+00 -0.45593999997E+02  0.45594000000E+02  0.51100000000E-03 0. -1.
    9900012    2    1    2    0    0 -0.92431887489E-01 -0.11765643448E+01 -0.85703918434E-02  0.90007779358E+02  0.90000041246E+02 0.  0.
         12    1    1    2    0    0  0.92431887489E-01  0.11765643448E+01  0.85703918434E-02  0.11802206416E+01  0.00000000000E+00 0. -1.
         11    1    3    3    0    0 -0.16640022418E+02 -0.21763058023E+02 -0.64980513671E+01  0.28155740310E+02  0.51100000000E-03 0. -1.
        -11    1    3    3    0    0  0.99101212695E+01 -0.16839071243E+02  0.12749286790E+02  0.23330433726E+02  0.51100000000E-03 0.  1.
        -12    1    3    3    0    0  0.66374692610E+01  0.37425564921E+02 -0.62598058151E+01  0.38521605323E+02  0.00000000000E+00 0.  1.
</event>
<event>
 7    1  0.1971192E-015  0.9000774E+02  0.7816164E-02  0.1186339E+00
        -11   -1    0    0    0    0  0.00000000000E+00  0.00000000000E+00  0.45593999997E+02  0.45594000000E+02  0.51100000000E-03 0. -1.
         11   -1    0    0    0    0 -0.00000000000E+00 -0.00000000000E+00 -0.45593999997E+02  0.45594000000E+02  0.51100000000E-03 0.  1.
    9900012    2    1    2    0    0  0.62503704172E+00  0.55159621572E+00  0.83550845862E+00  0.90007744065E+02  0.90000005486E+02 0.  0.
         12    1    1    2    0    0 -0.62503704172E+00 -0.55159621572E+00 -0.83550845862E+00  0.11802559354E+01  0.00000000000E+00 0. -1.
         11    1    3    3    0    0  0.30472905679E+02 -0.17181921942E+02  0.21110533948E+02  0.40859161347E+02  0.51100000000E-03 0. -1.
        -11    1    3    3    0    0  0.30566486936E+01  0.94282429469E+01 -0.61896543039E+00  0.99306588284E+01  0.51100000000E-03 0.  1.
        -12    1    3    3    0    0 -0.32904517331E+02  0.83052752110E+01 -0.19656060059E+02  0.39217923889E+02  0.00000000000E+00 0.  1.
</event>
<event>
 7    1  0.1971192E-015  0.9000776E+02  0.7816164E-02  0.1186339E+00
        -11   -1    0    0    0    0  0.00000000000E+00  0.00000000000E+00  0.45593999997E+02  0.45594000000E+02  0.51100000000E-03 0. -1.
         11   -1    0    0    0    0 -0.00000000000E+00 -0.00000000000E+00 -0.45593999997E+02  0.45594000000E+02  0.51100000000E-03 0.  1.
    9900012    2    1    2    0    0  0.23343790840E+00 -0.11486792808E+01  0.13789983382E+00  0.90007756927E+02  0.90000018518E+02 0.  0.
         12    1    1    2    0    0 -0.23343790840E+00  0.11486792808E+01 -0.13789983382E+00  0.11802430730E+01  0.00000000000E+00 0. -1.
         11    1    3    3    0    0 -0.34964027945E+01 -0.34060142741E+02  0.25107728118E+02  0.42458405146E+02  0.51100000000E-03 0. -1.
        -11    1    3    3    0    0  0.39064471949E+01  0.43930275100E+01  0.38316586308E+01  0.70171667013E+01  0.51100000000E-03 0.  1.
        -12    1    3    3    0    0 -0.17660649204E+00  0.28518435950E+02 -0.28801486915E+02  0.40532185080E+02  0.00000000000E+00 0.  1.
</event>
<event>
 7    1  0.1971192E-015  0.9000770E+02  0.7816164E-02  0.1186339E+00
        -11   -1    0    0    0    0  0.00000000000E+00  0.00000000000E+00  0.45593999997E+02  0.45594000000E+02  0.51100000000E-03 0.  1.
         11   -1    0    0    0    0 -0.00000000000E+00 -0.00000000000E+00 -0.45593999997E+02  0.45594000000E+02  0.51100000000E-03 0. -1.
    9900012    2    1    2    0    0 -0.41133157142E+00  0.10425511356E+01  0.37013316446E+00  0.90007701270E+02  0.89999962127E+02 0.  0.
         12    1    1    2    0    0  0.41133157142E+00 -0.10425511356E+01 -0.37013316446E+00  0.11802987298E+01  0.00000000000E+00 0. -1.
         11    1    3    3    0    0 -0.25773800345E+02 -0.17872625571E+02 -0.14012629042E+02  0.34352195010E+02  0.51100000000E-03 0. -1.
        -11    1    3    3    0    0 -0.63354359507E+01 -0.54287825940E+01 -0.64861420719E+01  0.10567850698E+02  0.51100000000E-03 0.  1.
        -12    1    3    3    0    0  0.31697904724E+02  0.24343959301E+02  0.20868904279E+02  0.45087655563E+02  0.00000000000E+00 0.  1.
</event>
<event>
 7    1  0.1971192E-015  0.9000783E+02  0.7816164E-02  0.1186339E+00
        -11   -1    0    0    0    0  0.00000000000E+00  0.00000000000E+00  0.45593999997E+02  0.45594000000E+02  0.51100000000E-03 0.  1.
         11   -1    0    0    0    0 -0.00000000000E+00 -0.00000000000E+00 -0.45593999997E+02  0.45594000000E+02  0.51100000000E-03 0. -1.
    9900012    2    1    2    0    0 -0.30391972154E+00 -0.10817135183E+01 -0.36099604396E+00  0.90007834979E+02  0.90000097601E+02 0.  0.
         12    1    1    2    0    0  0.30391972154E+00  0.10817135183E+01  0.36099604396E+00  0.11801650209E+01  0.00000000000E+00 0. -1.
         11    1    3    3    0    0  0.31140995072E+01 -0.10841550853E+01  0.82206396013E+01  0.88573090556E+01  0.51100000000E-03 0. -1.
        -11    1    3    3    0    0 -0.45625290443E+01  0.37427212848E+02 -0.19090019369E+02  0.42261587436E+02  0.51100000000E-03 0.  1.
         12    1    3    3    0    0  0.11445098155E+01 -0.37424771281E+02  0.10508383724E+02  0.38888938487E+02  0.00000000000E+00 0. -1.
</event>
<event>
 7    1  0.1971192E-015  0.9000775E+02  0.7816164E-02  0.1186339E+00
        -11   -1    0    0    0    0  0.00000000000E+00  0.00000000000E+00  0.45593999997E+02  0.45594000000E+02  0.51100000000E-03 0.  1.
         11   -1    0    0    0    0 -0.00000000000E+00 -0.00000000000E+00 -0.45593999997E+02  0.45594000000E+02  0.51100000000E-03 0. -1.
    9900012    2    1    2    0    0  0.82841079058E+00  0.42693393855E+00  0.72419811812E+00  0.90007745815E+02  0.90000007260E+02 0.  0.
         12    1    1    2    0    0 -0.82841079058E+00 -0.42693393855E+00 -0.72419811812E+00  0.11802541845E+01  0.00000000000E+00 0. -1.
         11    1    3    3    0    0  0.51680759560E+01 -0.44798551960E+01 -0.39749358934E+01  0.79106401309E+01  0.51100000000E-03 0. -1.
        -11    1    3    3    0    0 -0.14167662664E+02  0.14701109244E+01  0.41487130335E+02  0.43864175305E+02  0.51100000000E-03 0.  1.
         12    1    3    3    0    0  0.98279974989E+01  0.34366782101E+01 -0.36787996323E+02  0.38232930380E+02  0.00000000000E+00 0. -1.
</event>
<event>
 7    1  0.1971192E-015  0.9000770E+02  0.7816164E-02  0.1186339E+00
        -11   -1    0    0    0    0  0.00000000000E+00  0.00000000000E+00  0.45593999997E+02  0.45594000000E+02  0.51100000000E-03 0.  1.
         11   -1    0    0    0    0 -0.00000000000E+00 -0.00000000000E+00 -0.45593999997E+02  0.45594000000E+02  0.51100000000E-03 0. -1.
    9900012    2    1    2    0    0  0.74558481303E+00  0.23808602860E+00  0.88348002831E+00  0.90007695535E+02  0.89999956316E+02 0.  0.
         12    1    1    2    0    0 -0.74558481303E+00 -0.23808602860E+00 -0.88348002831E+00  0.11803044653E+01  0.00000000000E+00 0. -1.
         11    1    3    3    0    0  0.26396284476E+02 -0.31529983669E+02  0.94173220790E+01  0.42185182940E+02  0.51100000000E-03 0. -1.
        -11    1    3    3    0    0  0.10682155874E+01  0.85462528493E+01  0.49589728892E+01  0.99383567395E+01  0.51100000000E-03 0.  1.
        -12    1    3    3    0    0 -0.26718915250E+02  0.23221816848E+02 -0.13492814940E+02  0.37884155855E+02  0.00000000000E+00 0.  1.
</event>
<event>
 7    1  0.1971192E-015  0.9000755E+02  0.7816164E-02  0.1186339E+00
        -11   -1    0    0    0    0  0.00000000000E+00  0.00000000000E+00  0.45593999997E+02  0.45594000000E+02  0.51100000000E-03 0.  1.
         11   -1    0    0    0    0 -0.00000000000E+00 -0.00000000000E+00 -0.45593999997E+02  0.45594000000E+02  0.51100000000E-03 0. -1.
    9900012    2    1    2    0    0  0.61463470703E+00  0.96452451843E+00 -0.29218988753E+00  0.90007551653E+02  0.89999810535E+02 0.  0.
         12    1    1    2    0    0 -0.61463470703E+00 -0.96452451843E+00  0.29218988753E+00  0.11804483471E+01  0.00000000000E+00 0. -1.
         11    1    3    3    0    0 -0.62593945894E+00  0.95388229960E+01  0.36599654926E+01  0.10236029114E+02  0.51100000000E-03 0. -1.
        -11    1    3    3    0    0  0.24912260640E+02  0.17865094389E+02  0.20318345132E+02  0.36777948242E+02  0.51100000000E-03 0.  1.
         12    1    3    3    0    0 -0.23671686474E+02 -0.26439392867E+02 -0.24270500512E+02  0.42993574297E+02  0.00000000000E+00 0. -1.
</event>
<event>
 7    1  0.1971192E-015  0.9000780E+02  0.7816164E-02  0.1186339E+00
        -11   -1    0    0    0    0  0.00000000000E+00  0.00000000000E+00  0.45593999997E+02  0.45594000000E+02  0.51100000000E-03 0.  1.
         11   -1    0    0    0    0 -0.00000000000E+00 -0.00000000000E+00 -0.45593999997E+02  0.45594000000E+02  0.51100000000E-03 0. -1.
    9900012    2    1    2    0    0 -0.18387616865E+00 -0.88670792622E+00  0.75683559691E+00  0.90007804460E+02  0.90000066679E+02 0.  0.
         12    1    1    2    0    0  0.18387616865E+00  0.88670792622E+00 -0.75683559691E+00  0.11801955400E+01  0.00000000000E+00 0. -1.
         11    1    3    3    0    0  0.63894191406E+01 -0.65534414095E+00 -0.79410735522E+01  0.10213461819E+02  0.51100000000E-03 0. -1.
        -11    1    3    3    0    0  0.22459335324E+02  0.29332744147E+02  0.10217863222E+02  0.38330618982E+02  0.51100000000E-03 0.  1.
         12    1    3    3    0    0 -0.29032630633E+02 -0.29564107933E+02 -0.15199540730E+01  0.41463723660E+02  0.00000000000E+00 0. -1.
</event>
<event>
 7    1  0.1971192E-015  0.9000787E+02  0.7816164E-02  0.1186339E+00
        -11   -1    0    0    0    0  0.00000000000E+00  0.00000000000E+00  0.45593999997E+02  0.45594000000E+02  0.51100000000E-03 0.  1.
         11   -1    0    0    0    0 -0.00000000000E+00 -0.00000000000E+00 -0.45593999997E+02  0.45594000000E+02  0.51100000000E-03 0. -1.
    9900012    2    1    2    0    0  0.27038093421E+00 -0.63175625671E+00  0.95942514079E+00  0.90007865085E+02  0.90000128104E+02 0.  0.
         12    1    1    2    0    0 -0.27038093421E+00  0.63175625671E+00 -0.95942514079E+00  0.11801349153E+01  0.00000000000E+00 0. -1.
         11    1    3    3    0    0 -0.83657364456E+00  0.84782127323E+01 -0.25982265306E+01  0.89067798874E+01  0.51100000000E-03 0. -1.
        -11    1    3    3    0    0  0.14107982723E+02  0.34569253643E+01  0.38833404121E+02  0.41461051426E+02  0.51100000000E-03 0.  1.
         12    1    3    3    0    0 -0.13001028144E+02 -0.12566894353E+02 -0.35275752450E+02  0.39640033771E+02  0.00000000000E+00 0. -1.
</event>
<event>
 7    1  0.1971192E-015  0.9000750E+02  0.7816164E-02  0.1186340E+00
        -11   -1    0    0    0    0  0.00000000000E+00  0.00000000000E+00  0.45593999997E+02  0.45594000000E+02  0.51100000000E-03 0.  1.
         11   -1    0    0    0    0 -0.00000000000E+00 -0.00000000000E+00 -0.45593999997E+02  0.45594000000E+02  0.51100000000E-03 0. -1.
    9900012    2    1    2    0    0  0.89257688469E+00 -0.76057627889E+00 -0.13569516132E+00  0.90007498857E+02  0.89999757042E+02 0.  0.
         12    1    1    2    0    0 -0.89257688469E+00  0.76057627889E+00  0.13569516132E+00  0.11805011427E+01  0.00000000000E+00 0. -1.
         11    1    3    3    0    0 -0.67465500572E+01  0.41168477212E+01 -0.10232540236E+01  0.79694053663E+01  0.51100000000E-03 0. -1.
        -11    1    3    3    0    0 -0.32476038376E+02  0.16520277408E+02 -0.19136778723E+01  0.36486638616E+02  0.51100000000E-03 0.  1.
         12    1    3    3    0    0  0.40115165318E+02 -0.21397701408E+02  0.28012367345E+01  0.45551454875E+02  0.00000000000E+00 0. -1.
</event>
<event>
 7    1  0.1971192E-015  0.9000744E+02  0.7816164E-02  0.1186340E+00
        -11   -1    0    0    0    0  0.00000000000E+00  0.00000000000E+00  0.45593999997E+02  0.45594000000E+02  0.51100000000E-03 0.  1.
         11   -1    0    0    0    0 -0.00000000000E+00 -0.00000000000E+00 -0.45593999997E+02  0.45594000000E+02  0.51100000000E-03 0. -1.
    9900012    2    1    2    0    0 -0.21942442136E+00  0.11180388930E+01  0.30913523683E+00  0.90007439693E+02  0.89999697097E+02 0.  0.
         12    1    1    2    0    0  0.21942442136E+00 -0.11180388930E+01 -0.30913523683E+00  0.11805603066E+01  0.00000000000E+00 0. -1.
         11    1    3    3    0    0  0.19400815181E+01 -0.55522705580E+01 -0.10464230636E+02  0.12003822213E+02  0.51100000000E-03 0. -1.
        -11    1    3    3    0    0 -0.26138366045E+02 -0.22759567618E+02 -0.81245225280E+01  0.35598033152E+02  0.51100000000E-03 0.  1.
         12    1    3    3    0    0  0.23978860106E+02  0.29429877069E+02  0.18897888401E+02  0.42405584329E+02  0.00000000000E+00 0. -1.
</event>
<event>
 7    1  0.1971192E-015  0.9000776E+02  0.7816164E-02  0.1186339E+00
        -11   -1    0    0    0    0  0.00000000000E+00  0.00000000000E+00  0.45593999997E+02  0.45594000000E+02  0.51100000000E-03 0.  1.
         11   -1    0    0    0    0 -0.00000000000E+00 -0.00000000000E+00 -0.45593999997E+02  0.45594000000E+02  0.51100000000E-03 0. -1.
    9900012    2    1    2    0    0  0.84937296108E+00 -0.20690564778E-01  0.81920433216E+00  0.90007763471E+02  0.90000025149E+02 0.  0.
         12    1    1    2    0    0 -0.84937296108E+00  0.20690564778E-01 -0.81920433216E+00  0.11802365290E+01  0.00000000000E+00 0. -1.
         11    1    3    3    0    0  0.37045047848E+01  0.77279824387E+01  0.41580147851E+01  0.95254477841E+01  0.51100000000E-03 0. -1.
        -11    1    3    3    0    0  0.33381663885E+02  0.15455609133E+02  0.33406829104E+01  0.36937399746E+02  0.51100000000E-03 0.  1.
         12    1    3    3    0    0 -0.36236795709E+02 -0.23204282136E+02 -0.66794933634E+01  0.43544915941E+02  0.00000000000E+00 0. -1.
</event>
<event>
 7    1  0.1971192E-015  0.9000772E+02  0.7816164E-02  0.1186339E+00
        -11   -1    0    0    0    0  0.00000000000E+00  0.00000000000E+00  0.45593999997E+02  0.45594000000E+02  0.51100000000E-03 0.  1.
         11   -1    0    0    0    0 -0.00000000000E+00 -0.00000000000E+00 -0.45593999997E+02  0.45594000000E+02  0.51100000000E-03 0. -1.
    9900012    2    1    2    0    0 -0.43899343350E+00  0.71615654537E+00  0.82912917790E+00  0.90007724343E+02  0.89999985505E+02 0.  0.
         12    1    1    2    0    0  0.43899343350E+00 -0.71615654537E+00 -0.82912917790E+00  0.11802756567E+01  0.00000000000E+00 0. -1.
         11    1    3    3    0    0  0.89629585579E+00 -0.29714735815E+02 -0.27938752213E+02  0.40796357022E+02  0.51100000000E-03 0. -1.
        -11    1    3    3    0    0 -0.57029123653E+01  0.46339314375E+01 -0.31029879313E+01  0.79765321022E+01  0.51100000000E-03 0.  1.
        -12    1    3    3    0    0  0.43676230761E+01  0.25796960923E+02  0.31870869322E+02  0.41234835219E+02  0.00000000000E+00 0.  1.
</event>
<event>
 7    1  0.1971192E-015  0.9000798E+02  0.7816164E-02  0.1186339E+00
        -11   -1    0    0    0    0  0.00000000000E+00  0.00000000000E+00  0.45593999997E+02  0.45594000000E+02  0.51100000000E-03 0.  1.
         11   -1    0    0    0    0 -0.00000000000E+00 -0.00000000000E+00 -0.45593999997E+02  0.45594000000E+02  0.51100000000E-03 0. -1.
    9900012    2    1    2    0    0 -0.46427403756E+00 -0.65767180926E+00  0.86276103054E+00  0.90007983396E+02  0.90000247976E+02 0.  0.
         12    1    1    2    0    0  0.46427403756E+00  0.65767180926E+00 -0.86276103054E+00  0.11800166043E+01  0.00000000000E+00 0. -1.
         11    1    3    3    0    0  0.44543145007E+01 -0.25422623467E+01 -0.50748756013E+01  0.72151492112E+01  0.51100000000E-03 0. -1.
        -11    1    3    3    0    0 -0.18496538461E+02  0.38120041457E+02  0.10979369383E+02  0.43769921728E+02  0.51100000000E-03 0.  1.
         12    1    3    3    0    0  0.13577949923E+02 -0.36235450920E+02 -0.50417327511E+01  0.39022912457E+02  0.00000000000E+00 0. -1.
</event>
<event>
 7    1  0.1971192E-015  0.9000775E+02  0.7816164E-02  0.1186339E+00
        -11   -1    0    0    0    0  0.00000000000E+00  0.00000000000E+00  0.45593999997E+02  0.45594000000E+02  0.51100000000E-03 0.  1.
         11   -1    0    0    0    0 -0.00000000000E+00 -0.00000000000E+00 -0.45593999997E+02  0.45594000000E+02  0.51100000000E-03 0. -1.
    9900012    2    1    2    0    0 -0.80612935499E+00 -0.86205794342E+00  0.79955078502E-03  0.90007750419E+02  0.90000011924E+02 0.  0.
         12    1    1    2    0    0  0.80612935499E+00  0.86205794342E+00 -0.79955078502E-03  0.11802495813E+01  0.00000000000E+00 0. -1.
         11    1    3    3    0    0 -0.19171279777E+02 -0.27111342251E+02  0.15517405890E+02  0.36651776666E+02  0.51100000000E-03 0. -1.
        -11    1    3    3    0    0 -0.32186474033E+01 -0.90094424637E+01 -0.45009604851E+01  0.10573002892E+02  0.51100000000E-03 0.  1.
        -12    1    3    3    0    0  0.21583797825E+02  0.35258726771E+02 -0.11015645854E+02  0.42782970861E+02  0.00000000000E+00 0.  1.
</event>
<event>
 7    1  0.1971192E-015  0.9000797E+02  0.7816164E-02  0.1186339E+00
        -11   -1    0    0    0    0  0.00000000000E+00  0.00000000000E+00  0.45593999997E+02  0.45594000000E+02  0.51100000000E-03 0. -1.
         11   -1    0    0    0    0 -0.00000000000E+00 -0.00000000000E+00 -0.45593999997E+02  0.45594000000E+02  0.51100000000E-03 0.  1.
    9900012    2    1    2    0    0 -0.24757655515E+00 -0.22986530652E+00 -0.11306324413E+01  0.90007973760E+02  0.90000238213E+02 0.  0.
         12    1    1    2    0    0  0.24757655515E+00  0.22986530652E+00  0.11306324413E+01  0.11800262400E+01  0.00000000000E+00 0. -1.
         11    1    3    3    0    0  0.11694364605E+02  0.12969280424E+02  0.28003568826E+02  0.33002428175E+02  0.51100000000E-03 0. -1.
        -11    1    3    3    0    0  0.46378729439E+01  0.56509640758E+01  0.88476505510E+01  0.11477115533E+02  0.51100000000E-03 0.  1.
        -12    1    3    3    0    0 -0.16579814105E+02 -0.18850109806E+02 -0.37981851818E+02  0.45528430051E+02  0.00000000000E+00 0.  1.
</event>
<event>
 7    1  0.1971192E-015  0.9000803E+02  0.7816164E-02  0.1186338E+00
        -11   -1    0    0    0    0  0.00000000000E+00  0.00000000000E+00  0.45593999997E+02  0.45594000000E+02  0.51100000000E-03 0. -1.
         11   -1    0    0    0    0 -0.00000000000E+00 -0.00000000000E+00 -0.45593999997E+02  0.45594000000E+02  0.51100000000E-03 0.  1.
    9900012    2    1    2    0    0 -0.11647012756E+01  0.16784209673E+00 -0.87396625772E-01  0.90008026186E+02  0.90000291331E+02 0.  0.
         12    1    1    2    0    0  0.11647012756E+01 -0.16784209673E+00  0.87396625772E-01  0.11799738137E+01  0.00000000000E+00 0. -1.
         11    1    3    3    0    0  0.38318555480E+01 -0.30044173037E+02  0.25709473063E+02  0.39727980768E+02  0.51100000000E-03 0. -1.
        -11    1    3    3    0    0 -0.70705032982E+01 -0.43580181292E+01 -0.70794621993E+01  0.10913437781E+02  0.51100000000E-03 0.  1.
        -12    1    3    3    0    0  0.20739464746E+01  0.34570033263E+02 -0.18717407490E+02  0.39366607638E+02  0.00000000000E+00 0.  1.
</event>
<event>
 7    1  0.1971192E-015  0.9000779E+02  0.7816164E-02  0.1186339E+00
        -11   -1    0    0    0    0  0.00000000000E+00  0.00000000000E+00  0.45593999997E+02  0.45594000000E+02  0.51100000000E-03 0.  1.
         11   -1    0    0    0    0 -0.00000000000E+00 -0.00000000000E+00 -0.45593999997E+02  0.45594000000E+02  0.51100000000E-03 0. -1.
    9900012    2    1    2    0    0  0.21527508816E+00  0.10152971920E+01  0.56188675161E+00  0.90007793038E+02  0.90000055106E+02 0.  0.
         12    1    1    2    0    0 -0.21527508816E+00 -0.10152971920E+01 -0.56188675161E+00  0.11802069621E+01  0.00000000000E+00 0. -1.
         11    1    3    3    0    0  0.30893341873E+01 -0.69006860107E+01 -0.58315336601E+01  0.95483107526E+01  0.51100000000E-03 0. -1.
        -11    1    3    3    0    0  0.33446880114E+02  0.93504100598E+01 -0.15494475377E+02  0.38028972180E+02  0.51100000000E-03 0.  1.
         12    1    3    3    0    0 -0.36320939213E+02 -0.14344268570E+01  0.21887895788E+02  0.42430510105E+02  0.00000000000E+00 0. -1.
</event>
<event>
 7    1  0.1971192E-015  0.9000774E+02  0.7816164E-02  0.1186339E+00
        -11   -1    0    0    0    0  0.00000000000E+00  0.00000000000E+00  0.45593999997E+02  0.45594000000E+02  0.51100000000E-03 0. -1.
         11   -1    0    0    0    0 -0.00000000000E+00 -0.00000000000E+00 -0.45593999997E+02  0.45594000000E+02  0.51100000000E-03 0.  1.
    9900012    2    1    2    0    0 -0.11496866603E+00  0.52143000455E+00 -0.10525660864E+01  0.90007744769E+02  0.90000006200E+02 0.  0.
         12    1    1    2    0    0  0.11496866603E+00 -0.52143000455E+00  0.10525660864E+01  0.11802552309E+01  0.00000000000E+00 0. -1.
         11    1    3    3    0    0  0.33397338033E+02  0.13628014587E+02  0.34201741100E+01  0.36232617356E+02  0.51100000000E-03 0. -1.
        -11    1    3    3    0    0  0.72826488652E+01  0.51208635348E+01 -0.99149588982E+00  0.89578614745E+01  0.51100000000E-03 0.  1.
        -12    1    3    3    0    0 -0.40794955564E+02 -0.18227448117E+02 -0.34812443065E+01  0.44817265939E+02  0.00000000000E+00 0.  1.
</event>
<event>
 7    1  0.1971192E-015  0.9000772E+02  0.7816164E-02  0.1186339E+00
        -11   -1    0    0    0    0  0.00000000000E+00  0.00000000000E+00  0.45593999997E+02  0.45594000000E+02  0.51100000000E-03 0. -1.
         11   -1    0    0    0    0 -0.00000000000E+00 -0.00000000000E+00 -0.45593999997E+02  0.45594000000E+02  0.51100000000E-03 0.  1.
    9900012    2    1    2    0    0  0.39488270467E+00 -0.50813769824E+00 -0.98940845619E+00  0.90007718100E+02  0.89999979179E+02 0.  0.
         12    1    1    2    0    0 -0.39488270467E+00  0.50813769824E+00  0.98940845619E+00  0.11802819002E+01  0.00000000000E+00 0. -1.
         11    1    3    3    0    0  0.86158325124E+01 -0.25152416740E+01 -0.37678252172E+01  0.97342445875E+01  0.51100000000E-03 0. -1.
        -11    1    3    3    0    0  0.11705018047E+02 -0.31635349555E+02  0.18096906339E+02  0.38279247749E+02  0.51100000000E-03 0.  1.
         12    1    3    3    0    0 -0.19925967855E+02  0.33642453531E+02 -0.15318489578E+02  0.41994225763E+02  0.00000000000E+00 0. -1.
</event>
<event>
 7    1  0.1971192E-015  0.9000767E+02  0.7816164E-02  0.1186339E+00
        -11   -1    0    0    0    0  0.00000000000E+00  0.00000000000E+00  0.45593999997E+02  0.45594000000E+02  0.51100000000E-03 0.  1.
         11   -1    0    0    0    0 -0.00000000000E+00 -0.00000000000E+00 -0.45593999997E+02  0.45594000000E+02  0.51100000000E-03 0. -1.
    9900012    2    1    2    0    0  0.53286695067E+00  0.94455761253E+00 -0.46587264400E+00  0.90007672253E+02  0.89999932726E+02 0.  0.
         12    1    1    2    0    0 -0.53286695067E+00 -0.94455761253E+00  0.46587264400E+00  0.11803277473E+01  0.00000000000E+00 0. -1.
         11    1    3    3    0    0 -0.26816461025E+01 -0.47486380379E+01  0.55606112428E+01  0.77885291736E+01  0.51100000000E-03 0. -1.
        -11    1    3    3    0    0 -0.32308521940E+02  0.10198142992E+02  0.18705606513E+02  0.38700677329E+02  0.51100000000E-03 0.  1.
         12    1    3    3    0    0  0.35523034993E+02 -0.45049473418E+01 -0.24732090400E+02  0.43518465750E+02  0.00000000000E+00 0. -1.
</event>
<event>
 7    1  0.1971192E-015  0.9000766E+02  0.7816164E-02  0.1186339E+00
        -11   -1    0    0    0    0  0.00000000000E+00  0.00000000000E+00  0.45593999997E+02  0.45594000000E+02  0.51100000000E-03 0.  1.
         11   -1    0    0    0    0 -0.00000000000E+00 -0.00000000000E+00 -0.45593999997E+02  0.45594000000E+02  0.51100000000E-03 0. -1.
    9900012    2    1    2    0    0  0.94949361376E+00 -0.69125943412E+00 -0.11756137805E+00  0.90007661741E+02  0.89999922076E+02 0.  0.
         12    1    1    2    0    0 -0.94949361376E+00  0.69125943412E+00  0.11756137805E+00  0.11803382589E+01  0.00000000000E+00 0. -1.
         11    1    3    3    0    0  0.10702459559E+02  0.22759711658E+01 -0.45405902381E+01  0.11846503507E+02  0.51100000000E-03 0. -1.
        -11    1    3    3    0    0  0.13078978524E+02 -0.34614259546E+02  0.10964745571E+02  0.38593163758E+02  0.51100000000E-03 0.  1.
         12    1    3    3    0    0 -0.22831944469E+02  0.31647028946E+02 -0.65417167114E+01  0.39567994476E+02  0.00000000000E+00 0. -1.
</event>
<event>
 7    1  0.1971192E-015  0.9000776E+02  0.7816164E-02  0.1186339E+00
        -11   -1    0    0    0    0  0.00000000000E+00  0.00000000000E+00  0.45593999997E+02  0.45594000000E+02  0.51100000000E-03 0. -1.
         11   -1    0    0    0    0 -0.00000000000E+00 -0.00000000000E+00 -0.45593999997E+02  0.45594000000E+02  0.51100000000E-03 0.  1.
    9900012    2    1    2    0    0  0.23521178859E+00  0.33061763777E+00 -0.11083023691E+01  0.90007759876E+02  0.90000021507E+02 0.  0.
         12    1    1    2    0    0 -0.23521178859E+00 -0.33061763777E+00  0.11083023691E+01  0.11802401235E+01  0.00000000000E+00 0. -1.
         11    1    3    3    0    0 -0.28609076820E+02 -0.30106980120E+02  0.85532819453E+01  0.42403633815E+02  0.51100000000E-03 0. -1.
        -11    1    3    3    0    0  0.95544781352E+01 -0.47581580386E+00  0.10511261358E+01  0.96238931587E+01  0.51100000000E-03 0.  1.
        -12    1    3    3    0    0  0.19289810473E+02  0.30913413562E+02 -0.10712710450E+02  0.37980232903E+02  0.00000000000E+00 0.  1.
</event>
<event>
 7    1  0.1971192E-015  0.9000777E+02  0.7816164E-02  0.1186339E+00
        -11   -1    0    0    0    0  0.00000000000E+00  0.00000000000E+00  0.45593999997E+02  0.45594000000E+02  0.51100000000E-03 0.  1.
         11   -1    0    0    0    0 -0.00000000000E+00 -0.00000000000E+00 -0.45593999997E+02  0.45594000000E+02  0.51100000000E-03 0. -1.
    9900012    2    1    2    0    0 -0.97593784624E+00  0.40620830433E-01  0.66244134289E+00  0.90007774062E+02  0.90000035880E+02 0.  0.
         12    1    1    2    0    0  0.97593784624E+00 -0.40620830433E-01 -0.66244134289E+00  0.11802259378E+01  0.00000000000E+00 0. -1.
         11    1    3    3    0    0  0.28899728321E+02  0.22777186668E+02  0.74167335231E+01  0.37536681606E+02  0.51100000000E-03 0. -1.
        -11    1    3    3    0    0 -0.17336449171E+01  0.90738655154E+01 -0.34846024139E+01  0.98733486890E+01  0.51100000000E-03 0.  1.
        -12    1    3    3    0    0 -0.28142021250E+02 -0.31810431353E+02 -0.32696897663E+01  0.42597743768E+02  0.00000000000E+00 0.  1.
</event>
<event>
 7    1  0.1971192E-015  0.9000772E+02  0.7816164E-02  0.1186339E+00
        -11   -1    0    0    0    0  0.00000000000E+00  0.00000000000E+00  0.45593999997E+02  0.45594000000E+02  0.51100000000E-03 0.  1.
         11   -1    0    0    0    0 -0.00000000000E+00 -0.00000000000E+00 -0.45593999997E+02  0.45594000000E+02  0.51100000000E-03 0. -1.
    9900012    2    1    2    0    0  0.14883662060E+00  0.71020144428E+00 -0.93086707267E+00  0.90007723787E+02  0.89999984941E+02 0.  0.
         12    1    1    2    0    0 -0.14883662060E+00 -0.71020144428E+00  0.93086707267E+00  0.11802762126E+01  0.00000000000E+00 0. -1.
         11    1    3    3    0    0  0.14380340499E+02 -0.30482771998E+02  0.12480631656E+02  0.35941059366E+02  0.51100000000E-03 0. -1.
        -11    1    3    3    0    0 -0.81133527682E+00 -0.41425650756E+01  0.91290945095E+01  0.10057806777E+02  0.51100000000E-03 0.  1.
        -12    1    3    3    0    0 -0.13420168601E+02  0.35335538518E+02 -0.22540593238E+02  0.44008857645E+02  0.00000000000E+00 0.  1.
</event>
<event>
 7    1  0.1971192E-015  0.9000775E+02  0.7816164E-02  0.1186339E+00
        -11   -1    0    0    0    0  0.00000000000E+00  0.00000000000E+00  0.45593999997E+02  0.45594000000E+02  0.51100000000E-03 0. -1.
         11   -1    0    0    0    0 -0.00000000000E+00 -0.00000000000E+00 -0.45593999997E+02  0.45594000000E+02  0.51100000000E-03 0.  1.
    9900012    2    1    2    0    0 -0.75249881065E+00  0.89336726355E-01 -0.90484732557E+00  0.90007752486E+02  0.90000014019E+02 0.  0.
         12    1    1    2    0    0  0.75249881065E+00 -0.89336726355E-01  0.90484732557E+00  0.11802475136E+01  0.00000000000E+00 0. -1.
         11    1    3    3    0    0 -0.84516134109E+01  0.31327239772E+01  0.10770429816E+01  0.90776511615E+01  0.51100000000E-03 0. -1.
        -11    1    3    3    0    0 -0.87265070918E+01  0.12346455699E+02 -0.36621485119E+02  0.39619692918E+02  0.51100000000E-03 0.  1.
         12    1    3    3    0    0  0.16425621692E+02 -0.15389842950E+02  0.34639594812E+02  0.41310408407E+02  0.00000000000E+00 0. -1.
</event>
<event>
 7    1  0.1971192E-015  0.9000767E+02  0.7816164E-02  0.1186339E+00
        -11   -1    0    0    0    0  0.00000000000E+00  0.00000000000E+00  0.45593999997E+02  0.45594000000E+02  0.51100000000E-03 0. -1.
         11   -1    0    0    0    0 -0.00000000000E+00 -0.00000000000E+00 -0.45593999997E+02  0.45594000000E+02  0.51100000000E-03 0.  1.
    9900012    2    1    2    0    0 -0.22650642617E+00  0.90322933277E+00 -0.72529696866E+00  0.90007667809E+02  0.89999928224E+02 0.  0.
         12    1    1    2    0    0  0.22650642617E+00 -0.90322933277E+00  0.72529696866E+00  0.11803321911E+01  0.00000000000E+00 0. -1.
         11    1    3    3    0    0  0.11216009766E+01 -0.23369466848E+02  0.30324339384E+02  0.38300855458E+02  0.51100000000E-03 0. -1.
        -11    1    3    3    0    0  0.99486958563E+01 -0.36754486379E+01 -0.44410591637E+01  0.11498194584E+02  0.51100000000E-03 0.  1.
        -12    1    3    3    0    0 -0.11296803259E+02  0.27948144819E+02 -0.26608577189E+02  0.40208617767E+02  0.00000000000E+00 0.  1.
</event>
<event>
 7    1  0.1971192E-015  0.9000769E+02  0.7816164E-02  0.1186339E+00
        -11   -1    0    0    0    0  0.00000000000E+00  0.00000000000E+00  0.45593999997E+02  0.45594000000E+02  0.51100000000E-03 0.  1.
         11   -1    0    0    0    0 -0.00000000000E+00 -0.00000000000E+00 -0.45593999997E+02  0.45594000000E+02  0.51100000000E-03 0. -1.
    9900012    2    1    2    0    0  0.68777718453E+00  0.86900718071E+00  0.40609641056E+00  0.90007692739E+02  0.89999953483E+02 0.  0.
         12    1    1    2    0    0 -0.68777718453E+00 -0.86900718071E+00 -0.40609641056E+00  0.11803072610E+01  0.00000000000E+00 0. -1.
         11    1    3    3    0    0 -0.13177662087E+02 -0.31544367084E+02 -0.18655219534E+02  0.38945026498E+02  0.51100000000E-03 0. -1.
        -11    1    3    3    0    0 -0.69405971131E+01  0.25546818636E+01 -0.35643979766E+01  0.82099464619E+01  0.51100000000E-03 0.  1.
        -12    1    3    3    0    0  0.20806036385E+02  0.29858692401E+02  0.22625713921E+02  0.42852719779E+02  0.00000000000E+00 0.  1.
</event>
<event>
 7    1  0.1971192E-015  0.9000777E+02  0.7816164E-02  0.1186339E+00
        -11   -1    0    0    0    0  0.00000000000E+00  0.00000000000E+00  0.45593999997E+02  0.45594000000E+02  0.51100000000E-03 0. -1.
         11   -1    0    0    0    0 -0.00000000000E+00 -0.00000000000E+00 -0.45593999997E+02  0.45594000000E+02  0.51100000000E-03 0.  1.
    9900012    2    1    2    0    0 -0.51886556428E+00 -0.43737818312E+00 -0.96561582425E+00  0.90007773298E+02  0.90000035105E+02 0.  0.
         12    1    1    2    0    0  0.51886556428E+00  0.43737818312E+00  0.96561582425E+00  0.11802267023E+01  0.00000000000E+00 0. -1.
         11    1    3    3    0    0 -0.80850795590E+01 -0.30138654394E+01 -0.73502018788E+00  0.86598008811E+01  0.51100000000E-03 0. -1.
        -11    1    3    3    0    0  0.66001920401E+01  0.41599888755E+02  0.26716897963E+01  0.42204871828E+02  0.51100000000E-03 0.  1.
         12    1    3    3    0    0  0.96602195466E+00 -0.39023401499E+02 -0.29022854327E+01  0.39143100589E+02  0.00000000000E+00 0. -1.
</event>
<event>
 7    1  0.1971192E-015  0.9000783E+02  0.7816164E-02  0.1186339E+00
        -11   -1    0    0    0    0  0.00000000000E+00  0.00000000000E+00  0.45593999997E+02  0.45594000000E+02  0.51100000000E-03 0.  1.
         11   -1    0    0    0    0 -0.00000000000E+00 -0.00000000000E+00 -0.45593999997E+02  0.45594000000E+02  0.51100000000E-03 0. -1.
    9900012    2    1    2    0    0 -0.96710444986E+00 -0.35708917243E+00 -0.57444698307E+00  0.90007833473E+02  0.90000096075E+02 0.  0.
         12    1    1    2    0    0  0.96710444986E+00  0.35708917243E+00  0.57444698307E+00  0.11801665265E+01  0.00000000000E+00 0. -1.
         11    1    3    3    0    0  0.24111725257E+02 -0.32078505908E+02 -0.10990700464E+02  0.41607707617E+02  0.51100000000E-03 0. -1.
        -11    1    3    3    0    0 -0.93638501278E+01 -0.20795739210E+01 -0.35803369794E+00  0.95986720592E+01  0.51100000000E-03 0.  1.
        -12    1    3    3    0    0 -0.15714979579E+02  0.33800990657E+02  0.10774287179E+02  0.38801453797E+02  0.00000000000E+00 0.  1.
</event>
<event>
 7    1  0.1971192E-015  0.9000777E+02  0.7816164E-02  0.1186339E+00
        -11   -1    0    0    0    0  0.00000000000E+00  0.00000000000E+00  0.45593999997E+02  0.45594000000E+02  0.51100000000E-03 0.  1.
         11   -1    0    0    0    0 -0.00000000000E+00 -0.00000000000E+00 -0.45593999997E+02  0.45594000000E+02  0.51100000000E-03 0. -1.
    9900012    2    1    2    0    0 -0.99794271586E+00  0.59938650728E+00 -0.19439568398E+00  0.90007769713E+02  0.90000031473E+02 0.  0.
         12    1    1    2    0    0  0.99794271586E+00 -0.59938650728E+00  0.19439568398E+00  0.11802302874E+01  0.00000000000E+00 0. -1.
         11    1    3    3    0    0 -0.29971357840E+01  0.16597986833E+01 -0.80563229148E+01  0.87545470325E+01  0.51100000000E-03 0. -1.
        -11    1    3    3    0    0  0.12628878486E+01  0.21278123516E+02  0.38096486372E+02  0.43654274707E+02  0.51100000000E-03 0.  1.
         12    1    3    3    0    0  0.73630521948E+00 -0.22338535692E+02 -0.30234559141E+02  0.37598947973E+02  0.00000000000E+00 0. -1.
</event>
<event>
 7    1  0.1971192E-015  0.9000771E+02  0.7816164E-02  0.1186339E+00
        -11   -1    0    0    0    0  0.00000000000E+00  0.00000000000E+00  0.45593999997E+02  0.45594000000E+02  0.51100000000E-03 0. -1.
         11   -1    0    0    0    0 -0.00000000000E+00 -0.00000000000E+00 -0.45593999997E+02  0.45594000000E+02  0.51100000000E-03 0.  1.
    9900012    2    1    2    0    0  0.10692119447E+01 -0.18044656316E+00 -0.46617567813E+00  0.90007705584E+02  0.89999966498E+02 0.  0.
         12    1    1    2    0    0 -0.10692119447E+01  0.18044656316E+00  0.46617567813E+00  0.11802944157E+01  0.00000000000E+00 0. -1.
         11    1    3    3    0    0 -0.66608979006E+01 -0.76060864857E+01  0.10212343438E+01  0.10161841975E+02  0.51100000000E-03 0. -1.
        -11    1    3    3    0    0 -0.99101189558E+01  0.45814352412E+01 -0.37816200172E+02  0.39360703783E+02  0.51100000000E-03 0.  1.
         12    1    3    3    0    0  0.17640228801E+02  0.28442046813E+01  0.36328790150E+02  0.40485159827E+02  0.00000000000E+00 0. -1.
</event>
<event>
 7    1  0.1971192E-015  0.9000771E+02  0.7816164E-02  0.1186339E+00
        -11   -1    0    0    0    0  0.00000000000E+00  0.00000000000E+00  0.45593999997E+02  0.45594000000E+02  0.51100000000E-03 0.  1.
         11   -1    0    0    0    0 -0.00000000000E+00 -0.00000000000E+00 -0.45593999997E+02  0.45594000000E+02  0.51100000000E-03 0. -1.
    9900012    2    1    2    0    0 -0.64259729052E+00  0.92387624617E+00  0.35581831538E+00  0.90007709667E+02  0.89999970635E+02 0.  0.
         12    1    1    2    0    0  0.64259729052E+00 -0.92387624617E+00 -0.35581831538E+00  0.11802903327E+01  0.00000000000E+00 0. -1.
         11    1    3    3    0    0 -0.58197075034E+01  0.22482015792E+01 -0.51862993732E+01  0.81130208440E+01  0.51100000000E-03 0. -1.
        -11    1    3    3    0    0 -0.34566797681E+02  0.15921664413E+02  0.62352063983E+01  0.38564759803E+02  0.51100000000E-03 0.  1.
         12    1    3    3    0    0  0.39743907893E+02 -0.17245989746E+02 -0.69308870967E+00  0.43329929020E+02  0.00000000000E+00 0. -1.
</event>
<event>
 7    1  0.2330680E-015  0.9000773E+02  0.7816164E-02  0.1186339E+00
        -11   -1    0    0    0    0  0.00000000000E+00  0.00000000000E+00  0.45593999997E+02  0.45594000000E+02  0.51100000000E-03 0. -1.
         11   -1    0    0    0    0 -0.00000000000E+00 -0.00000000000E+00 -0.45593999997E+02  0.45594000000E+02  0.51100000000E-03 0.  1.
    9900012    2    1    2    0    0 -0.83969796848E+00  0.14556624495E+00 -0.81654629007E+00  0.90007733058E+02  0.89999994335E+02 0.  0.
         12    1    1    2    0    0  0.83969796848E+00 -0.14556624495E+00  0.81654629007E+00  0.11802669417E+01  0.00000000000E+00 0. -1.
         11    1    3    3    0    0 -0.15118828228E+02 -0.56112274041E+01  0.34268627577E+02  0.37873522100E+02  0.51100000000E-03 0. -1.
        -11    1    3    3    0    0 -0.81596375379E+01  0.54753582723E+01  0.74732939733E+00  0.98548330503E+01  0.51100000000E-03 0.  1.
        -12    1    3    3    0    0  0.22438767797E+02  0.28143537671E+00 -0.35832503264E+02  0.42279377908E+02  0.00000000000E+00 0.  1.
</event>
<event>
 7    1  0.1971192E-015  0.9000774E+02  0.7816164E-02  0.1186339E+00
        -11   -1    0    0    0    0  0.00000000000E+00  0.00000000000E+00  0.45593999997E+02  0.45594000000E+02  0.51100000000E-03 0. -1.
         11   -1    0    0    0    0 -0.00000000000E+00 -0.00000000000E+00 -0.45593999997E+02  0.45594000000E+02  0.51100000000E-03 0.  1.
    9900012    2    1    2    0    0 -0.19790257414E-01  0.11726930816E+01 -0.13194694639E+00  0.90007741251E+02  0.90000002636E+02 0.  0.
         12    1    1    2    0    0  0.19790257414E-01 -0.11726930816E+01  0.13194694639E+00  0.11802587490E+01  0.00000000000E+00 0. -1.
         11    1    3    3    0    0  0.61039336005E+00  0.38879909655E+01 -0.91624590776E+01  0.99719461697E+01  0.51100000000E-03 0. -1.
        -11    1    3    3    0    0  0.34310664956E+02 -0.65326251462E+01 -0.14415276217E+02  0.37784879379E+02  0.51100000000E-03 0.  1.
         12    1    3    3    0    0 -0.34940848573E+02  0.38173272623E+01  0.23445788348E+02  0.42250915702E+02  0.00000000000E+00 0. -1.
</event>
<event>
 7    1  0.1971192E-015  0.9000766E+02  0.7816164E-02  0.1186339E+00
        -11   -1    0    0    0    0  0.00000000000E+00  0.00000000000E+00  0.45593999997E+02  0.45594000000E+02  0.51100000000E-03 0. -1.
         11   -1    0    0    0    0 -0.00000000000E+00 -0.00000000000E+00 -0.45593999997E+02  0.45594000000E+02  0.51100000000E-03 0.  1.
    9900012    2    1    2    0    0  0.24884657954E+00  0.11462896026E+01 -0.13150652365E+00  0.90007661727E+02  0.89999922062E+02 0.  0.
         12    1    1    2    0    0 -0.24884657954E+00 -0.11462896026E+01  0.13150652365E+00  0.11803382731E+01  0.00000000000E+00 0. -1.
         11    1    3    3    0    0 -0.56809520073E+01  0.18133632864E+00  0.45097794977E+01  0.72556329808E+01  0.51100000000E-03 0. -1.
        -11    1    3    3    0    0 -0.28807342783E+02  0.16209665395E+02 -0.23334511401E+02  0.40461286102E+02  0.51100000000E-03 0.  1.
         12    1    3    3    0    0  0.34737141370E+02 -0.15244712121E+02  0.18693225380E+02  0.42290742644E+02  0.00000000000E+00 0. -1.
</event>
<event>
 7    1  0.1971192E-015  0.9000774E+02  0.7816164E-02  0.1186339E+00
        -11   -1    0    0    0    0  0.00000000000E+00  0.00000000000E+00  0.45593999997E+02  0.45594000000E+02  0.51100000000E-03 0.  1.
         11   -1    0    0    0    0 -0.00000000000E+00 -0.00000000000E+00 -0.45593999997E+02  0.45594000000E+02  0.51100000000E-03 0. -1.
    9900012    2    1    2    0    0  0.60072749961E+00 -0.30656721971E+00  0.96858990798E+00  0.90007735878E+02  0.89999997191E+02 0.  0.
         12    1    1    2    0    0 -0.60072749961E+00  0.30656721971E+00 -0.96858990798E+00  0.11802641225E+01  0.00000000000E+00 0. -1.
         11    1    3    3    0    0  0.38411889518E+01 -0.35621262020E+01 -0.12630235143E+02  0.13673562654E+02  0.51100000000E-03 0. -1.
        -11    1    3    3    0    0 -0.65030926847E+00  0.35315220243E+02 -0.96872966223E+01  0.36625556638E+02  0.51100000000E-03 0.  1.
         12    1    3    3    0    0 -0.25901521837E+01 -0.32059661261E+02  0.23286121673E+02  0.39708616585E+02  0.00000000000E+00 0. -1.
</event>
<event>
 7    1  0.1971192E-015  0.9000772E+02  0.7816164E-02  0.1186339E+00
        -11   -1    0    0    0    0  0.00000000000E+00  0.00000000000E+00  0.45593999997E+02  0.45594000000E+02  0.51100000000E-03 0.  1.
         11   -1    0    0    0    0 -0.00000000000E+00 -0.00000000000E+00 -0.45593999997E+02  0.45594000000E+02  0.51100000000E-03 0. -1.
    9900012    2    1    2    0    0 -0.95972937289E+00  0.55776452187E+00  0.40110537964E+00  0.90007717298E+02  0.89999978366E+02 0.  0.
         12    1    1    2    0    0  0.95972937289E+00 -0.55776452187E+00 -0.40110537964E+00  0.11802827020E+01  0.00000000000E+00 0. -1.
         11    1    3    3    0    0  0.64173774623E+01 -0.11686897846E+01  0.50675342751E+01  0.82600528568E+01  0.51100000000E-03 0. -1.
        -11    1    3    3    0    0  0.24748491385E+02 -0.19882590263E+02  0.18387637470E+02  0.36686651978E+02  0.51100000000E-03 0.  1.
         12    1    3    3    0    0 -0.32125598220E+02  0.21609044570E+02 -0.23054066365E+02  0.45061012463E+02  0.00000000000E+00 0. -1.
</event>
<event>
 7    1  0.1971192E-015  0.9000779E+02  0.7816164E-02  0.1186339E+00
        -11   -1    0    0    0    0  0.00000000000E+00  0.00000000000E+00  0.45593999997E+02  0.45594000000E+02  0.51100000000E-03 0.  1.
         11   -1    0    0    0    0 -0.00000000000E+00 -0.00000000000E+00 -0.45593999997E+02  0.45594000000E+02  0.51100000000E-03 0. -1.
    9900012    2    1    2    0    0 -0.98052608026E+00  0.42557304238E+00  0.50034988715E+00  0.90007790774E+02  0.90000052812E+02 0.  0.
         12    1    1    2    0    0  0.98052608026E+00 -0.42557304238E+00 -0.50034988715E+00  0.11802092264E+01  0.00000000000E+00 0. -1.
         11    1    3    3    0    0 -0.23324200426E+01 -0.19481376304E+00 -0.39395241131E+02  0.39464707774E+02  0.51100000000E-03 0. -1.
        -11    1    3    3    0    0  0.39109523961E+01 -0.13084112772E+02  0.82299914253E+01  0.15944350561E+02  0.51100000000E-03 0.  1.
        -12    1    3    3    0    0 -0.25590584337E+01  0.13704499578E+02  0.31665599593E+02  0.34598732438E+02  0.00000000000E+00 0.  1.
</event>
<event>
 7    1  0.1971192E-015  0.9000779E+02  0.7816164E-02  0.1186339E+00
        -11   -1    0    0    0    0  0.00000000000E+00  0.00000000000E+00  0.45593999997E+02  0.45594000000E+02  0.51100000000E-03 0.  1.
         11   -1    0    0    0    0 -0.00000000000E+00 -0.00000000000E+00 -0.45593999997E+02  0.45594000000E+02  0.51100000000E-03 0. -1.
    9900012    2    1    2    0    0  0.85705679316E+00 -0.16756596887E-01 -0.81121673000E+00  0.90007788276E+02  0.90000050281E+02 0.  0.
         12    1    1    2    0    0 -0.85705679316E+00  0.16756596887E-01  0.81121673000E+00  0.11802117239E+01  0.00000000000E+00 0. -1.
         11    1    3    3    0    0 -0.25291440676E+01  0.28778012751E+02 -0.26997773112E+02  0.39540489892E+02  0.51100000000E-03 0. -1.
        -11    1    3    3    0    0 -0.78456741538E+01  0.28529767010E+01  0.83342282828E+00  0.83897957577E+01  0.51100000000E-03 0.  1.
        -12    1    3    3    0    0  0.11231875015E+02 -0.31647746049E+02  0.25353133553E+02  0.42077502627E+02  0.00000000000E+00 0.  1.
</event>
<event>
 7    1  0.1971192E-015  0.9000775E+02  0.7816164E-02  0.1186339E+00
        -11   -1    0    0    0    0  0.00000000000E+00  0.00000000000E+00  0.45593999997E+02  0.45594000000E+02  0.51100000000E-03 0.  1.
         11   -1    0    0    0    0 -0.00000000000E+00 -0.00000000000E+00 -0.45593999997E+02  0.45594000000E+02  0.51100000000E-03 0. -1.
    9900012    2    1    2    0    0 -0.12693305705E+00 -0.19125584355E+00  0.11577169504E+01  0.90007746071E+02  0.90000007520E+02 0.  0.
         12    1    1    2    0    0  0.12693305705E+00  0.19125584355E+00 -0.11577169504E+01  0.11802539286E+01  0.00000000000E+00 0. -1.
         11    1    3    3    0    0  0.27843732580E+02 -0.17901113489E+02 -0.17054349722E+02  0.37236731232E+02  0.51100000000E-03 0. -1.
        -11    1    3    3    0    0  0.35667850248E+01 -0.41691668668E+01  0.12904103829E+02  0.14022118373E+02  0.51100000000E-03 0.  1.
        -12    1    3    3    0    0 -0.31537450661E+02  0.21879024513E+02  0.53079628437E+01  0.38748896467E+02  0.00000000000E+00 0.  1.
</event>
<event>
 7    1  0.1971192E-015  0.9000817E+02  0.7816164E-02  0.1186338E+00
        -11   -1    0    0    0    0  0.00000000000E+00  0.00000000000E+00  0.45593999997E+02  0.45594000000E+02  0.51100000000E-03 0.  1.
         11   -1    0    0    0    0 -0.00000000000E+00 -0.00000000000E+00 -0.45593999997E+02  0.45594000000E+02  0.51100000000E-03 0. -1.
    9900012    2    1    2    0    0 -0.11572244168E+01  0.21075172693E+00 -0.91771930802E-01  0.90008166652E+02  0.90000433651E+02 0.  0.
         12    1    1    2    0    0  0.11572244168E+01 -0.21075172693E+00  0.91771930802E-01  0.11798333478E+01  0.00000000000E+00 0. -1.
         11    1    3    3    0    0 -0.37687364651E+01 -0.37602061113E+02 -0.51968814759E+01  0.38146113194E+02  0.51100000000E-03 0. -1.
        -11    1    3    3    0    0 -0.70492897503E+01 -0.31181640358E+01  0.60452110609E+01  0.97959180258E+01  0.51100000000E-03 0.  1.
        -12    1    3    3    0    0  0.96608017985E+01  0.40930976875E+02 -0.94010151576E+00  0.42066135432E+02  0.00000000000E+00 0.  1.
</event>
<event>
 7    1  0.1971192E-015  0.9000786E+02  0.7816164E-02  0.1186339E+00
        -11   -1    0    0    0    0  0.00000000000E+00  0.00000000000E+00  0.45593999997E+02  0.45594000000E+02  0.51100000000E-03 0.  1.
         11   -1    0    0    0    0 -0.00000000000E+00 -0.00000000000E+00 -0.45593999997E+02  0.45594000000E+02  0.51100000000E-03 0. -1.
    9900012    2    1    2    0    0 -0.44694557071E-01 -0.11113515279E+01 -0.39449013647E+00  0.90007863444E+02  0.90000126442E+02 0.  0.
         12    1    1    2    0    0  0.44694557071E-01  0.11113515279E+01  0.39449013647E+00  0.11801365556E+01  0.00000000000E+00 0. -1.
         11    1    3    3    0    0 -0.82870912604E+01 -0.15378177615E+00  0.29313751111E+01  0.87916147946E+01  0.51100000000E-03 0. -1.
        -11    1    3    3    0    0 -0.19103128733E+02 -0.33223227173E+02  0.30439142857E+01  0.38444476399E+02  0.51100000000E-03 0.  1.
         12    1    3    3    0    0  0.27345525436E+02  0.32265657421E+02 -0.63697795333E+01  0.42771772251E+02  0.00000000000E+00 0. -1.
</event>
<event>
 7    1  0.1971192E-015  0.9000769E+02  0.7816164E-02  0.1186339E+00
        -11   -1    0    0    0    0  0.00000000000E+00  0.00000000000E+00  0.45593999997E+02  0.45594000000E+02  0.51100000000E-03 0.  1.
         11   -1    0    0    0    0 -0.00000000000E+00 -0.00000000000E+00 -0.45593999997E+02  0.45594000000E+02  0.51100000000E-03 0. -1.
    9900012    2    1    2    0    0  0.90019308324E+00 -0.26371569035E-01  0.76294401937E+00  0.90007692149E+02  0.89999952885E+02 0.  0.
         12    1    1    2    0    0 -0.90019308324E+00  0.26371569035E-01 -0.76294401937E+00  0.11803078511E+01  0.00000000000E+00 0. -1.
         11    1    3    3    0    0 -0.38083188215E+00  0.10564535864E+02  0.50648467131E+01  0.11722078460E+02  0.51100000000E-03 0. -1.
        -11    1    3    3    0    0  0.10683726796E+02 -0.12314918032E+02  0.34588134684E+02  0.38237916857E+02  0.51100000000E-03 0.  1.
         12    1    3    3    0    0 -0.94027018303E+01  0.17240105992E+01 -0.38890037378E+02  0.40047696832E+02  0.00000000000E+00 0. -1.
</event>
<event>
 7    1  0.1971192E-015  0.9000726E+02  0.7816164E-02  0.1186340E+00
        -11   -1    0    0    0    0  0.00000000000E+00  0.00000000000E+00  0.45593999997E+02  0.45594000000E+02  0.51100000000E-03 0.  1.
         11   -1    0    0    0    0 -0.00000000000E+00 -0.00000000000E+00 -0.45593999997E+02  0.45594000000E+02  0.51100000000E-03 0. -1.
    9900012    2    1    2    0    0  0.50690087091E+00 -0.10656642695E+01  0.39585742784E-01  0.90007256226E+02  0.89999511207E+02 0.  0.
         12    1    1    2    0    0 -0.50690087091E+00  0.10656642695E+01 -0.39585742784E-01  0.11807437738E+01  0.00000000000E+00 0. -1.
         11    1    3    3    0    0  0.93623429580E+01  0.25348294251E+01 -0.14375930463E+01  0.98053811708E+01  0.51100000000E-03 0. -1.
        -11    1    3    3    0    0 -0.40520071342E+01  0.35235304216E+02  0.15400697605E+02  0.38666870988E+02  0.51100000000E-03 0.  1.
         12    1    3    3    0    0 -0.48034349528E+01 -0.38835797911E+02 -0.13923518816E+02  0.41535004068E+02  0.00000000000E+00 0. -1.
</event>
<event>
 7    1  0.1971192E-015  0.9000852E+02  0.7816164E-02  0.1186337E+00
        -11   -1    0    0    0    0  0.00000000000E+00  0.00000000000E+00  0.45593999997E+02  0.45594000000E+02  0.51100000000E-03 0.  1.
         11   -1    0    0    0    0 -0.00000000000E+00 -0.00000000000E+00 -0.45593999997E+02  0.45594000000E+02  0.51100000000E-03 0. -1.
    9900012    2    1    2    0    0  0.43085904313E+00  0.96396449374E+00  0.52565343878E+00  0.90008517657E+02  0.90000789286E+02 0.  0.
         12    1    1    2    0    0 -0.43085904313E+00 -0.96396449374E+00 -0.52565343878E+00  0.11794823432E+01  0.00000000000E+00 0. -1.
         11    1    3    3    0    0  0.50203050478E+01  0.34717971840E+02  0.88994470920E+01  0.36190346645E+02  0.51100000000E-03 0. -1.
        -11    1    3    3    0    0 -0.25322539837E+00  0.94578279740E+01  0.56831208734E+00  0.94782705162E+01  0.51100000000E-03 0.  1.
        -12    1    3    3    0    0 -0.43362206063E+01 -0.43211835320E+02 -0.89421057406E+01  0.44339900496E+02  0.00000000000E+00 0.  1.
</event>
<event>
 7    1  0.1971192E-015  0.9000771E+02  0.7816164E-02  0.1186339E+00
        -11   -1    0    0    0    0  0.00000000000E+00  0.00000000000E+00  0.45593999997E+02  0.45594000000E+02  0.51100000000E-03 0. -1.
         11   -1    0    0    0    0 -0.00000000000E+00 -0.00000000000E+00 -0.45593999997E+02  0.45594000000E+02  0.51100000000E-03 0.  1.
    9900012    2    1    2    0    0  0.79915567381E+00 -0.85243789472E+00  0.16670692950E+00  0.90007707089E+02  0.89999968023E+02 0.  0.
         12    1    1    2    0    0 -0.79915567381E+00  0.85243789472E+00 -0.16670692950E+00  0.11802929110E+01  0.00000000000E+00 0. -1.
         11    1    3    3    0    0  0.23363340485E+02 -0.14052483791E+02  0.26993664957E+02  0.38366338467E+02  0.51100000000E-03 0. -1.
        -11    1    3    3    0    0  0.25550892302E+00  0.26844365959E+01  0.81446485370E+01  0.85794396495E+01  0.51100000000E-03 0.  1.
        -12    1    3    3    0    0 -0.22819693734E+02  0.10515609300E+02 -0.34971606565E+02  0.43061928972E+02  0.00000000000E+00 0.  1.
</event>
<event>
 7    1  0.1971192E-015  0.9000778E+02  0.7816164E-02  0.1186339E+00
        -11   -1    0    0    0    0  0.00000000000E+00  0.00000000000E+00  0.45593999997E+02  0.45594000000E+02  0.51100000000E-03 0.  1.
         11   -1    0    0    0    0 -0.00000000000E+00 -0.00000000000E+00 -0.45593999997E+02  0.45594000000E+02  0.51100000000E-03 0. -1.
    9900012    2    1    2    0    0  0.98073646037E+00  0.43057306205E+00 -0.49567033515E+00  0.90007777035E+02  0.90000038892E+02 0.  0.
         12    1    1    2    0    0 -0.98073646037E+00 -0.43057306205E+00  0.49567033515E+00  0.11802229652E+01  0.00000000000E+00 0. -1.
         11    1    3    3    0    0 -0.92532957248E+01 -0.13600721636E+01 -0.34602451939E+02  0.35844148177E+02  0.51100000000E-03 0. -1.
        -11    1    3    3    0    0 -0.16487577260E+00 -0.24022576387E+01 -0.91581564524E+01  0.94694168591E+01  0.51100000000E-03 0.  1.
        -12    1    3    3    0    0  0.10398907958E+02  0.41929028644E+01  0.43264938057E+02  0.44694211999E+02  0.00000000000E+00 0.  1.
</event>
<event>
 7    1  0.1971192E-015  0.9000776E+02  0.7816164E-02  0.1186339E+00
        -11   -1    0    0    0    0  0.00000000000E+00  0.00000000000E+00  0.45593999997E+02  0.45594000000E+02  0.51100000000E-03 0.  1.
         11   -1    0    0    0    0 -0.00000000000E+00 -0.00000000000E+00 -0.45593999997E+02  0.45594000000E+02  0.51100000000E-03 0. -1.
    9900012    2    1    2    0    0 -0.87508989147E+00 -0.76240089309E+00  0.21432647368E+00  0.90007757111E+02  0.90000018705E+02 0.  0.
         12    1    1    2    0    0  0.87508989147E+00  0.76240089309E+00 -0.21432647368E+00  0.11802428891E+01  0.00000000000E+00 0. -1.
         11    1    3    3    0    0 -0.69139492351E+01  0.56158549262E+01 -0.13360130586E+01  0.90069668441E+01  0.51100000000E-03 0. -1.
        -11    1    3    3    0    0  0.21474697235E+02  0.30082786229E+02 -0.12454274703E+02  0.39003148684E+02  0.51100000000E-03 0.  1.
         12    1    3    3    0    0 -0.15435837891E+02 -0.36461042048E+02  0.14004614235E+02  0.41997641583E+02  0.00000000000E+00 0. -1.
</event>
<event>
 7    1  0.1971192E-015  0.9000771E+02  0.7816164E-02  0.1186339E+00
        -11   -1    0    0    0    0  0.00000000000E+00  0.00000000000E+00  0.45593999997E+02  0.45594000000E+02  0.51100000000E-03 0.  1.
         11   -1    0    0    0    0 -0.00000000000E+00 -0.00000000000E+00 -0.45593999997E+02  0.45594000000E+02  0.51100000000E-03 0. -1.
    9900012    2    1    2    0    0  0.61838357113E+00 -0.52935014028E+00  0.85467781845E+00  0.90007710211E+02  0.89999971186E+02 0.  0.
         12    1    1    2    0    0 -0.61838357113E+00  0.52935014028E+00 -0.85467781845E+00  0.11802897887E+01  0.00000000000E+00 0. -1.
         11    1    3    3    0    0  0.32060696942E+02 -0.10238675600E+02 -0.22150920996E+02  0.40291215763E+02  0.51100000000E-03 0. -1.
        -11    1    3    3    0    0  0.48043654769E+01 -0.19485662794E+01  0.62419520790E+01  0.81142346650E+01  0.51100000000E-03 0.  1.
        -12    1    3    3    0    0 -0.36246678847E+02  0.11657891739E+02  0.16763646735E+02  0.41602259784E+02  0.00000000000E+00 0.  1.
</event>
<event>
 7    1  0.1971192E-015  0.9000783E+02  0.7816164E-02  0.1186339E+00
        -11   -1    0    0    0    0  0.00000000000E+00  0.00000000000E+00  0.45593999997E+02  0.45594000000E+02  0.51100000000E-03 0.  1.
         11   -1    0    0    0    0 -0.00000000000E+00 -0.00000000000E+00 -0.45593999997E+02  0.45594000000E+02  0.51100000000E-03 0. -1.
    9900012    2    1    2    0    0  0.46712330814E-01 -0.23457286756E-01  0.11790163860E+01  0.90007825469E+02  0.90000087965E+02 0.  0.
         12    1    1    2    0    0 -0.46712330814E-01  0.23457286756E-01 -0.11790163860E+01  0.11801745314E+01  0.00000000000E+00 0. -1.
         11    1    3    3    0    0  0.77401007441E+01  0.53145856636E+01  0.82244564424E+01  0.12481813343E+02  0.51100000000E-03 0. -1.
        -11    1    3    3    0    0  0.17295156099E+02 -0.17306883510E+02  0.25124053230E+02  0.35069483776E+02  0.51100000000E-03 0.  1.
         12    1    3    3    0    0 -0.24988544512E+02  0.11968840560E+02 -0.32169493287E+02  0.42456528350E+02  0.00000000000E+00 0. -1.
</event>
<event>
 7    1  0.1971192E-015  0.9000781E+02  0.7816164E-02  0.1186339E+00
        -11   -1    0    0    0    0  0.00000000000E+00  0.00000000000E+00  0.45593999997E+02  0.45594000000E+02  0.51100000000E-03 0. -1.
         11   -1    0    0    0    0 -0.00000000000E+00 -0.00000000000E+00 -0.45593999997E+02  0.45594000000E+02  0.51100000000E-03 0.  1.
    9900012    2    1    2    0    0  0.52530350082E-01  0.93026629890E+00 -0.72436420817E+00  0.90007805808E+02  0.90000068045E+02 0.  0.
         12    1    1    2    0    0 -0.52530350082E-01 -0.93026629890E+00  0.72436420817E+00  0.11801941919E+01  0.00000000000E+00 0. -1.
         11    1    3    3    0    0  0.64201296586E+01 -0.80151954619E+01 -0.52173331889E+01  0.11518766817E+02  0.51100000000E-03 0. -1.
        -11    1    3    3    0    0  0.29080458851E+02  0.86417365642E+01  0.23399461172E+02  0.38313019735E+02  0.51100000000E-03 0.  1.
         12    1    3    3    0    0 -0.35448058159E+02  0.30372519658E+00 -0.18906492191E+02  0.40176019256E+02  0.00000000000E+00 0. -1.
</event>
<event>
 7    1  0.1971192E-015  0.9000776E+02  0.7816164E-02  0.1186339E+00
        -11   -1    0    0    0    0  0.00000000000E+00  0.00000000000E+00  0.45593999997E+02  0.45594000000E+02  0.51100000000E-03 0. -1.
         11   -1    0    0    0    0 -0.00000000000E+00 -0.00000000000E+00 -0.45593999997E+02  0.45594000000E+02  0.51100000000E-03 0.  1.
    9900012    2    1    2    0    0 -0.43124987452E+00  0.50006080047E+00 -0.97822199820E+00  0.90007764627E+02  0.90000026320E+02 0.  0.
         12    1    1    2    0    0  0.43124987452E+00 -0.50006080047E+00  0.97822199820E+00  0.11802353732E+01  0.00000000000E+00 0. -1.
         11    1    3    3    0    0  0.11957422196E+02  0.11977071391E+02  0.29323573452E+02  0.33857084117E+02  0.51100000000E-03 0. -1.
        -11    1    3    3    0    0 -0.14893712242E+01  0.90411643109E+01  0.74587879731E+01  0.11815007280E+02  0.51100000000E-03 0.  1.
        -12    1    3    3    0    0 -0.10899300847E+02 -0.20518174902E+02 -0.37760583423E+02  0.44335673229E+02  0.00000000000E+00 0.  1.
</event>
<event>
 7    1  0.1971192E-015  0.9000770E+02  0.7816164E-02  0.1186339E+00
        -11   -1    0    0    0    0  0.00000000000E+00  0.00000000000E+00  0.45593999997E+02  0.45594000000E+02  0.51100000000E-03 0. -1.
         11   -1    0    0    0    0 -0.00000000000E+00 -0.00000000000E+00 -0.45593999997E+02  0.45594000000E+02  0.51100000000E-03 0.  1.
    9900012    2    1    2    0    0 -0.90637336584E+00 -0.35497795089E+00 -0.66752020926E+00  0.90007701202E+02  0.89999962057E+02 0.  0.
         12    1    1    2    0    0  0.90637336584E+00  0.35497795089E+00  0.66752020926E+00  0.11802987985E+01  0.00000000000E+00 0. -1.
         11    1    3    3    0    0 -0.45675685933E+01 -0.72356928579E+01  0.47222996036E+01  0.97733335047E+01  0.51100000000E-03 0. -1.
        -11    1    3    3    0    0 -0.55442408224E+01 -0.11873765119E+02 -0.38731315515E+02  0.40888136497E+02  0.51100000000E-03 0.  1.
         12    1    3    3    0    0  0.92054360498E+01  0.18754480026E+02  0.33341495703E+02  0.39346231200E+02  0.00000000000E+00 0. -1.
</event>
<event>
 7    1  0.1971192E-015  0.9000780E+02  0.7816164E-02  0.1186339E+00
        -11   -1    0    0    0    0  0.00000000000E+00  0.00000000000E+00  0.45593999997E+02  0.45594000000E+02  0.51100000000E-03 0.  1.
         11   -1    0    0    0    0 -0.00000000000E+00 -0.00000000000E+00 -0.45593999997E+02  0.45594000000E+02  0.51100000000E-03 0. -1.
    9900012    2    1    2    0    0 -0.96968177682E+00  0.67192473495E+00 -0.33331394182E-01  0.90007798077E+02  0.90000060211E+02 0.  0.
         12    1    1    2    0    0  0.96968177682E+00 -0.67192473495E+00  0.33331394182E-01  0.11802019232E+01  0.00000000000E+00 0. -1.
         11    1    3    3    0    0  0.36345650098E+02  0.45850780710E+01 -0.15341195049E+01  0.36665825299E+02  0.51100000000E-03 0. -1.
        -11    1    3    3    0    0  0.42740281809E+01  0.44572814137E+01  0.83332461965E+01  0.10371965432E+02  0.51100000000E-03 0.  1.
        -12    1    3    3    0    0 -0.41589360056E+02 -0.83704347498E+01 -0.68324580858E+01  0.42970007345E+02  0.00000000000E+00 0.  1.
</event>
<event>
 7    1  0.1971192E-015  0.9000790E+02  0.7816164E-02  0.1186339E+00
        -11   -1    0    0    0    0  0.00000000000E+00  0.00000000000E+00  0.45593999997E+02  0.45594000000E+02  0.51100000000E-03 0.  1.
         11   -1    0    0    0    0 -0.00000000000E+00 -0.00000000000E+00 -0.45593999997E+02  0.45594000000E+02  0.51100000000E-03 0. -1.
    9900012    2    1    2    0    0 -0.10656142331E+01  0.35283851579E+00  0.36413986101E+00  0.90007904008E+02  0.90000167541E+02 0.  0.
         12    1    1    2    0    0  0.10656142331E+01 -0.35283851579E+00 -0.36413986101E+00  0.11800959920E+01  0.00000000000E+00 0. -1.
         11    1    3    3    0    0  0.34425092557E+01 -0.73337104294E+00  0.81450076596E+01  0.88729844528E+01  0.51100000000E-03 0. -1.
        -11    1    3    3    0    0  0.10563778724E+02 -0.29026259909E+02  0.20573715594E+02  0.37113272004E+02  0.51100000000E-03 0.  1.
         12    1    3    3    0    0 -0.15071902213E+02  0.30112469468E+02 -0.28354583392E+02  0.44021647551E+02  0.00000000000E+00 0. -1.
</event>
<event>
 7    1  0.1971192E-015  0.9000759E+02  0.7816164E-02  0.1186339E+00
        -11   -1    0    0    0    0  0.00000000000E+00  0.00000000000E+00  0.45593999997E+02  0.45594000000E+02  0.51100000000E-03 0.  1.
         11   -1    0    0    0    0 -0.00000000000E+00 -0.00000000000E+00 -0.45593999997E+02  0.45594000000E+02  0.51100000000E-03 0. -1.
    9900012    2    1    2    0    0  0.59247989143E+00 -0.69413067734E+00  0.74867700677E+00  0.90007590292E+02  0.89999849683E+02 0.  0.
         12    1    1    2    0    0 -0.59247989143E+00  0.69413067734E+00 -0.74867700677E+00  0.11804097083E+01  0.00000000000E+00 0. -1.
         11    1    3    3    0    0 -0.10926548076E+02  0.10238628161E+02 -0.37549202795E+02  0.40424764567E+02  0.51100000000E-03 0. -1.
        -11    1    3    3    0    0  0.98636557840E+01  0.23656939193E+01  0.12921900032E+01  0.10225359085E+02  0.51100000000E-03 0.  1.
        -12    1    3    3    0    0  0.16553721834E+01 -0.13298452758E+02  0.37005689799E+02  0.39357466640E+02  0.00000000000E+00 0.  1.
</event>
<event>
 7    1  0.1971192E-015  0.9000773E+02  0.7816164E-02  0.1186339E+00
        -11   -1    0    0    0    0  0.00000000000E+00  0.00000000000E+00  0.45593999997E+02  0.45594000000E+02  0.51100000000E-03 0. -1.
         11   -1    0    0    0    0 -0.00000000000E+00 -0.00000000000E+00 -0.45593999997E+02  0.45594000000E+02  0.51100000000E-03 0.  1.
    9900012    2    1    2    0    0  0.96954368159E+00  0.37548929923E+00  0.55860212117E+00  0.90007727364E+02  0.89999988566E+02 0.  0.
         12    1    1    2    0    0 -0.96954368159E+00 -0.37548929923E+00 -0.55860212117E+00  0.11802726355E+01  0.00000000000E+00 0. -1.
         11    1    3    3    0    0  0.27705940411E+02  0.23767240196E+02  0.24209437644E+00  0.36504238803E+02  0.51100000000E-03 0. -1.
        -11    1    3    3    0    0  0.69243928640E+01  0.22108411991E+01 -0.75573046620E+01  0.10485603910E+02  0.51100000000E-03 0.  1.
        -12    1    3    3    0    0 -0.33660789594E+02 -0.25602592096E+02  0.78738124067E+01  0.43017884652E+02  0.00000000000E+00 0.  1.
</event>
<event>
 7    1  0.1971192E-015  0.9000776E+02  0.7816164E-02  0.1186339E+00
        -11   -1    0    0    0    0  0.00000000000E+00  0.00000000000E+00  0.45593999997E+02  0.45594000000E+02  0.51100000000E-03 0. -1.
         11   -1    0    0    0    0 -0.00000000000E+00 -0.00000000000E+00 -0.45593999997E+02  0.45594000000E+02  0.51100000000E-03 0.  1.
    9900012    2    1    2    0    0 -0.33037014109E+00  0.11330609260E+01 -0.19556935943E-02  0.90007756247E+02  0.90000017829E+02 0.  0.
         12    1    1    2    0    0  0.33037014109E+00 -0.11330609260E+01  0.19556935943E-02  0.11802437532E+01  0.00000000000E+00 0. -1.
         11    1    3    3    0    0 -0.63449979074E+01 -0.59232839019E+01 -0.53006354109E+01  0.10170596180E+02  0.51100000000E-03 0. -1.
        -11    1    3    3    0    0  0.12335580065E+02 -0.34985296888E+02  0.38891339325E+01  0.37299636686E+02  0.51100000000E-03 0.  1.
         12    1    3    3    0    0 -0.63209522990E+01  0.42041641716E+02  0.14095457848E+01  0.42537523382E+02  0.00000000000E+00 0. -1.
</event>
<event>
 7    1  0.1971192E-015  0.9000770E+02  0.7816164E-02  0.1186339E+00
        -11   -1    0    0    0    0  0.00000000000E+00  0.00000000000E+00  0.45593999997E+02  0.45594000000E+02  0.51100000000E-03 0.  1.
         11   -1    0    0    0    0 -0.00000000000E+00 -0.00000000000E+00 -0.45593999997E+02  0.45594000000E+02  0.51100000000E-03 0. -1.
    9900012    2    1    2    0    0 -0.87042007700E+00  0.23772658210E+00  0.76089107591E+00  0.90007703314E+02  0.89999964197E+02 0.  0.
         12    1    1    2    0    0  0.87042007700E+00 -0.23772658210E+00 -0.76089107591E+00  0.11802966863E+01  0.00000000000E+00 0. -1.
         11    1    3    3    0    0 -0.22395142612E+01 -0.72834707605E+01  0.45486860555E+01  0.88743966295E+01  0.51100000000E-03 0. -1.
        -11    1    3    3    0    0  0.21472291272E+02  0.48737261758E+01  0.32681129718E+02  0.39406455553E+02  0.51100000000E-03 0.  1.
         12    1    3    3    0    0 -0.20103197087E+02  0.26474711668E+01 -0.36468924698E+02  0.41726851132E+02  0.00000000000E+00 0. -1.
</event>
<event>
 7    1  0.1971192E-015  0.9000774E+02  0.7816164E-02  0.1186339E+00
        -11   -1    0    0    0    0  0.00000000000E+00  0.00000000000E+00  0.45593999997E+02  0.45594000000E+02  0.51100000000E-03 0. -1.
         11   -1    0    0    0    0 -0.00000000000E+00 -0.00000000000E+00 -0.45593999997E+02  0.45594000000E+02  0.51100000000E-03 0.  1.
    9900012    2    1    2    0    0 -0.85611918510E+00  0.77670451861E+00  0.23831716143E+00  0.90007743656E+02  0.90000005072E+02 0.  0.
         12    1    1    2    0    0  0.85611918510E+00 -0.77670451861E+00 -0.23831716143E+00  0.11802563441E+01  0.00000000000E+00 0. -1.
         11    1    3    3    0    0 -0.27184818804E+02 -0.76169706824E+01  0.23891355595E+02  0.36984178891E+02  0.51100000000E-03 0. -1.
        -11    1    3    3    0    0 -0.59443013096E+01 -0.40487017173E+01  0.44499472998E+01  0.84574662214E+01  0.51100000000E-03 0.  1.
        -12    1    3    3    0    0  0.32273000929E+02  0.12442376918E+02 -0.28102985733E+02  0.44566098544E+02  0.00000000000E+00 0.  1.
</event>
<event>
 7    1  0.1971192E-015  0.9000774E+02  0.7816164E-02  0.1186339E+00
        -11   -1    0    0    0    0  0.00000000000E+00  0.00000000000E+00  0.45593999997E+02  0.45594000000E+02  0.51100000000E-03 0.  1.
         11   -1    0    0    0    0 -0.00000000000E+00 -0.00000000000E+00 -0.45593999997E+02  0.45594000000E+02  0.51100000000E-03 0. -1.
    9900012    2    1    2    0    0  0.57587212522E+00  0.73147237681E+00 -0.72549054595E+00  0.90007738557E+02  0.89999999905E+02 0.  0.
         12    1    1    2    0    0 -0.57587212522E+00 -0.73147237681E+00  0.72549054595E+00  0.11802614435E+01  0.00000000000E+00 0. -1.
         11    1    3    3    0    0 -0.20439222850E+02 -0.22272111385E+02  0.19877783739E+02  0.36179207605E+02  0.51100000000E-03 0. -1.
        -11    1    3    3    0    0 -0.71139673599E+01 -0.58535609582E+01 -0.19246707518E+01  0.94115389418E+01  0.51100000000E-03 0.  1.
        -12    1    3    3    0    0  0.28129062336E+02  0.28857144720E+02 -0.18678603533E+02  0.44416992010E+02  0.00000000000E+00 0.  1.
</event>
<event>
 7    1  0.1971192E-015  0.9000772E+02  0.7816164E-02  0.1186339E+00
        -11   -1    0    0    0    0  0.00000000000E+00  0.00000000000E+00  0.45593999997E+02  0.45594000000E+02  0.51100000000E-03 0. -1.
         11   -1    0    0    0    0 -0.00000000000E+00 -0.00000000000E+00 -0.45593999997E+02  0.45594000000E+02  0.51100000000E-03 0.  1.
    9900012    2    1    2    0    0 -0.64195696382E+00 -0.85904531472E+00 -0.49294722652E+00  0.90007718439E+02  0.89999979522E+02 0.  0.
         12    1    1    2    0    0  0.64195696382E+00  0.85904531472E+00  0.49294722652E+00  0.11802815614E+01  0.00000000000E+00 0. -1.
         11    1    3    3    0    0 -0.66538911502E+01  0.35514562851E+02  0.56102748017E+01  0.36565470400E+02  0.51100000000E-03 0. -1.
        -11    1    3    3    0    0 -0.98097419918E+01 -0.23030350689E+01 -0.11723834699E+02  0.15459084992E+02  0.51100000000E-03 0.  1.
        -12    1    3    3    0    0  0.15821676178E+02 -0.34070573097E+02  0.56206126707E+01  0.37983163047E+02  0.00000000000E+00 0.  1.
</event>
<event>
 7    1  0.1971192E-015  0.9000778E+02  0.7816164E-02  0.1186339E+00
        -11   -1    0    0    0    0  0.00000000000E+00  0.00000000000E+00  0.45593999997E+02  0.45594000000E+02  0.51100000000E-03 0.  1.
         11   -1    0    0    0    0 -0.00000000000E+00 -0.00000000000E+00 -0.45593999997E+02  0.45594000000E+02  0.51100000000E-03 0. -1.
    9900012    2    1    2    0    0 -0.79059663501E+00 -0.83242570039E+00  0.27374552992E+00  0.90007782986E+02  0.90000044921E+02 0.  0.
         12    1    1    2    0    0  0.79059663501E+00  0.83242570039E+00 -0.27374552992E+00  0.11802170144E+01  0.00000000000E+00 0. -1.
         11    1    3    3    0    0  0.22972317286E+01 -0.64120741586E+01 -0.36557245422E+02  0.37186343753E+02  0.51100000000E-03 0. -1.
        -11    1    3    3    0    0  0.13055207561E+01 -0.88120026849E+01 -0.36555532760E+01  0.96290625597E+01  0.51100000000E-03 0.  1.
        -12    1    3    3    0    0 -0.43933491198E+01  0.14391651143E+02  0.40486544228E+02  0.43192376673E+02  0.00000000000E+00 0.  1.
</event>
<event>
 7    1  0.1971192E-015  0.9000777E+02  0.7816164E-02  0.1186339E+00
        -11   -1    0    0    0    0  0.00000000000E+00  0.00000000000E+00  0.45593999997E+02  0.45594000000E+02  0.51100000000E-03 0. -1.
         11   -1    0    0    0    0 -0.00000000000E+00 -0.00000000000E+00 -0.45593999997E+02  0.45594000000E+02  0.51100000000E-03 0.  1.
    9900012    2    1    2    0    0 -0.76155128591E+00  0.88355371380E+00 -0.17978776766E+00  0.90007766477E+02  0.90000028195E+02 0.  0.
         12    1    1    2    0    0  0.76155128591E+00 -0.88355371380E+00  0.17978776766E+00  0.11802335225E+01  0.00000000000E+00 0. -1.
         11    1    3    3    0    0  0.53741124971E+01 -0.34095400654E+01  0.10000237918E+02  0.11853725459E+02  0.51100000000E-03 0. -1.
        -11    1    3    3    0    0  0.97233266109E+01  0.36818951806E+02  0.59364917636E+01  0.38541149791E+02  0.51100000000E-03 0.  1.
         12    1    3    3    0    0 -0.15858990394E+02 -0.32525858027E+02 -0.16116517449E+02  0.39612891227E+02  0.00000000000E+00 0. -1.
</event>
<event>
 7    1  0.1971192E-015  0.9000658E+02  0.7816164E-02  0.1186341E+00
        -11   -1    0    0    0    0  0.00000000000E+00  0.00000000000E+00  0.45593999997E+02  0.45594000000E+02  0.51100000000E-03 0. -1.
         11   -1    0    0    0    0 -0.00000000000E+00 -0.00000000000E+00 -0.45593999997E+02  0.45594000000E+02  0.51100000000E-03 0.  1.
    9900012    2    1    2    0    0  0.10579902108E+01  0.43589397535E+00 -0.29396402134E+00  0.90006576414E+02  0.89998822415E+02 0.  0.
         12    1    1    2    0    0 -0.10579902108E+01 -0.43589397535E+00  0.29396402134E+00  0.11814235860E+01  0.00000000000E+00 0. -1.
         11    1    3    3    0    0  0.27220477608E+02 -0.27538621391E+02  0.12228209754E+02  0.40606147113E+02  0.51100000000E-03 0. -1.
        -11    1    3    3    0    0  0.16043533638E+01 -0.24968946624E+01 -0.72570974842E+01  0.78405291165E+01  0.51100000000E-03 0.  1.
        -12    1    3    3    0    0 -0.27766840761E+02  0.30471410028E+02 -0.52650762912E+01  0.41559900184E+02  0.00000000000E+00 0.  1.
</event>
<event>
 7    1  0.1971192E-015  0.9000774E+02  0.7816164E-02  0.1186339E+00
        -11   -1    0    0    0    0  0.00000000000E+00  0.00000000000E+00  0.45593999997E+02  0.45594000000E+02  0.51100000000E-03 0. -1.
         11   -1    0    0    0    0 -0.00000000000E+00 -0.00000000000E+00 -0.45593999997E+02  0.45594000000E+02  0.51100000000E-03 0.  1.
    9900012    2    1    2    0    0  0.85522287064E+00 -0.38295117645E+00  0.71761027235E+00  0.90007736358E+02  0.89999997678E+02 0.  0.
         12    1    1    2    0    0 -0.85522287064E+00  0.38295117645E+00 -0.71761027235E+00  0.11802636422E+01  0.00000000000E+00 0. -1.
         11    1    3    3    0    0 -0.75238975400E+01  0.26300772736E+01 -0.47721600722E+01  0.92897714005E+01  0.51100000000E-03 0. -1.
        -11    1    3    3    0    0  0.10952704770E+01 -0.41293164961E+02 -0.39238244848E+00  0.41309551609E+02  0.51100000000E-03 0.  1.
         12    1    3    3    0    0  0.72838499336E+01  0.38280136511E+02  0.58821527931E+01  0.39408413348E+02  0.00000000000E+00 0. -1.
</event>
<event>
 7    1  0.1971192E-015  0.9000777E+02  0.7816164E-02  0.1186339E+00
        -11   -1    0    0    0    0  0.00000000000E+00  0.00000000000E+00  0.45593999997E+02  0.45594000000E+02  0.51100000000E-03 0. -1.
         11   -1    0    0    0    0 -0.00000000000E+00 -0.00000000000E+00 -0.45593999997E+02  0.45594000000E+02  0.51100000000E-03 0.  1.
    9900012    2    1    2    0    0 -0.22079421306E+00 -0.44867546696E+00 -0.10690534661E+01  0.90007773296E+02  0.90000035104E+02 0.  0.
         12    1    1    2    0    0  0.22079421306E+00  0.44867546696E+00  0.10690534661E+01  0.11802267039E+01  0.00000000000E+00 0. -1.
         11    1    3    3    0    0  0.80768160928E+01  0.52480837603E+01 -0.85392634836E+00  0.96698775494E+01  0.51100000000E-03 0. -1.
        -11    1    3    3    0    0 -0.92120812090E+00  0.36086008256E+02 -0.85537228951E+01  0.37097369070E+02  0.51100000000E-03 0.  1.
         12    1    3    3    0    0 -0.73764021849E+01 -0.41782767483E+02  0.83385957773E+01  0.43240526677E+02  0.00000000000E+00 0. -1.
</event>
<event>
 7    1  0.1971192E-015  0.9000776E+02  0.7816164E-02  0.1186339E+00
        -11   -1    0    0    0    0  0.00000000000E+00  0.00000000000E+00  0.45593999997E+02  0.45594000000E+02  0.51100000000E-03 0. -1.
         11   -1    0    0    0    0 -0.00000000000E+00 -0.00000000000E+00 -0.45593999997E+02  0.45594000000E+02  0.51100000000E-03 0.  1.
    9900012    2    1    2    0    0 -0.46480110131E+00 -0.10341602566E+01 -0.32777122429E+00  0.90007762111E+02  0.90000023770E+02 0.  0.
         12    1    1    2    0    0  0.46480110131E+00  0.10341602566E+01  0.32777122429E+00  0.11802378894E+01  0.00000000000E+00 0. -1.
         11    1    3    3    0    0 -0.88998936717E+01  0.14575790382E+01  0.13669723855E+01  0.91214723474E+01  0.51100000000E-03 0. -1.
        -11    1    3    3    0    0 -0.35916325372E+02 -0.57373168296E+01  0.27409697910E+00  0.36372714527E+02  0.51100000000E-03 0.  1.
         12    1    3    3    0    0  0.44351417943E+02  0.32455775349E+01 -0.19688405889E+01  0.44513575236E+02  0.00000000000E+00 0. -1.
</event>
<event>
 7    1  0.1971192E-015  0.9000773E+02  0.7816164E-02  0.1186339E+00
        -11   -1    0    0    0    0  0.00000000000E+00  0.00000000000E+00  0.45593999997E+02  0.45594000000E+02  0.51100000000E-03 0.  1.
         11   -1    0    0    0    0 -0.00000000000E+00 -0.00000000000E+00 -0.45593999997E+02  0.45594000000E+02  0.51100000000E-03 0. -1.
    9900012    2    1    2    0    0  0.85523718131E+00 -0.81124039050E+00  0.59220326766E-01  0.90007725178E+02  0.89999986351E+02 0.  0.
         12    1    1    2    0    0 -0.85523718131E+00  0.81124039050E+00 -0.59220326766E-01  0.11802748216E+01  0.00000000000E+00 0. -1.
         11    1    3    3    0    0 -0.30723695985E+01  0.34567535420E+02 -0.83879833887E+01  0.35703112267E+02  0.51100000000E-03 0. -1.
        -11    1    3    3    0    0  0.69156251038E+01  0.74349327220E+01 -0.14590825640E+01  0.10258314547E+02  0.51100000000E-03 0.  1.
        -12    1    3    3    0    0 -0.29880183240E+01 -0.42813708532E+02  0.99062862794E+01  0.44046298365E+02  0.00000000000E+00 0.  1.
</event>
<event>
 7    1  0.1971192E-015  0.9000776E+02  0.7816164E-02  0.1186339E+00
        -11   -1    0    0    0    0  0.00000000000E+00  0.00000000000E+00  0.45593999997E+02  0.45594000000E+02  0.51100000000E-03 0. -1.
         11   -1    0    0    0    0 -0.00000000000E+00 -0.00000000000E+00 -0.45593999997E+02  0.45594000000E+02  0.51100000000E-03 0.  1.
    9900012    2    1    2    0    0 -0.83661731130E+00  0.79618219349E+00 -0.24317441813E+00  0.90007759174E+02  0.90000020795E+02 0.  0.
         12    1    1    2    0    0  0.83661731130E+00 -0.79618219349E+00  0.24317441813E+00  0.11802408264E+01  0.00000000000E+00 0. -1.
         11    1    3    3    0    0 -0.66416587341E+01  0.86325387062E+01  0.13477822750E+02  0.17328706287E+02  0.51100000000E-03 0. -1.
        -11    1    3    3    0    0  0.40053668120E+00  0.17794273276E+02 -0.34779667571E+02  0.39069449288E+02  0.51100000000E-03 0.  1.
         12    1    3    3    0    0  0.54045047416E+01 -0.25630629789E+02  0.21058670403E+02  0.33609603598E+02  0.00000000000E+00 0. -1.
</event>
<event>
 7    1  0.1971192E-015  0.9000774E+02  0.7816164E-02  0.1186339E+00
        -11   -1    0    0    0    0  0.00000000000E+00  0.00000000000E+00  0.45593999997E+02  0.45594000000E+02  0.51100000000E-03 0. -1.
         11   -1    0    0    0    0 -0.00000000000E+00 -0.00000000000E+00 -0.45593999997E+02  0.45594000000E+02  0.51100000000E-03 0.  1.
    9900012    2    1    2    0    0 -0.11802134497E+01  0.83563839137E-02  0.60555113614E-02  0.90007741433E+02  0.90000002820E+02 0.  0.
         12    1    1    2    0    0  0.11802134497E+01 -0.83563839137E-02 -0.60555113614E-02  0.11802585671E+01  0.00000000000E+00 0. -1.
         11    1    3    3    0    0 -0.82282751507E+01  0.25046501273E+01 -0.30563711950E+01  0.91279345615E+01  0.51100000000E-03 0. -1.
        -11    1    3    3    0    0  0.14636486947E+02  0.36783328554E+02 -0.54978055914E+01  0.39968310901E+02  0.51100000000E-03 0.  1.
         12    1    3    3    0    0 -0.75884252464E+01 -0.39279622297E+02  0.85602322979E+01  0.40911495971E+02  0.00000000000E+00 0. -1.
</event>
<event>
 7    1  0.1971192E-015  0.9000783E+02  0.7816164E-02  0.1186339E+00
        -11   -1    0    0    0    0  0.00000000000E+00  0.00000000000E+00  0.45593999997E+02  0.45594000000E+02  0.51100000000E-03 0. -1.
         11   -1    0    0    0    0 -0.00000000000E+00 -0.00000000000E+00 -0.45593999997E+02  0.45594000000E+02  0.51100000000E-03 0.  1.
    9900012    2    1    2    0    0 -0.96206364024E+00 -0.26386932933E+00 -0.63056968245E+00  0.90007825608E+02  0.90000088106E+02 0.  0.
         12    1    1    2    0    0  0.96206364024E+00  0.26386932933E+00  0.63056968245E+00  0.11801743919E+01  0.00000000000E+00 0. -1.
         11    1    3    3    0    0 -0.12770162607E+02  0.10644239549E+02  0.32324168676E+02  0.36348710699E+02  0.51100000000E-03 0. -1.
        -11    1    3    3    0    0  0.35485590546E+00  0.26508558429E+01  0.83150228946E+01  0.87345615467E+01  0.51100000000E-03 0.  1.
        -12    1    3    3    0    0  0.11453243061E+02 -0.13558964721E+02 -0.41269761253E+02  0.44924553363E+02  0.00000000000E+00 0.  1.
</event>
<event>
 7    1  0.1971192E-015  0.9000780E+02  0.7816164E-02  0.1186339E+00
        -11   -1    0    0    0    0  0.00000000000E+00  0.00000000000E+00  0.45593999997E+02  0.45594000000E+02  0.51100000000E-03 0.  1.
         11   -1    0    0    0    0 -0.00000000000E+00 -0.00000000000E+00 -0.45593999997E+02  0.45594000000E+02  0.51100000000E-03 0. -1.
    9900012    2    1    2    0    0 -0.33303635454E-01  0.20475247595E+00  0.11618251197E+01  0.90007800730E+02  0.90000062899E+02 0.  0.
         12    1    1    2    0    0  0.33303635454E-01 -0.20475247595E+00 -0.11618251197E+01  0.11801992702E+01  0.00000000000E+00 0. -1.
         11    1    3    3    0    0 -0.54709690582E+00 -0.16775218061E+02 -0.23385801591E+02  0.28785464602E+02  0.51100000000E-03 0. -1.
        -11    1    3    3    0    0  0.28509127201E+01 -0.17916277278E+02 -0.59010861863E+00  0.18151278833E+02  0.51100000000E-03 0.  1.
        -12    1    3    3    0    0 -0.23371194497E+01  0.34896247816E+02  0.25137735330E+02  0.43071057294E+02  0.00000000000E+00 0.  1.
</event>
<event>
 7    1  0.1971192E-015  0.9000773E+02  0.7816164E-02  0.1186339E+00
        -11   -1    0    0    0    0  0.00000000000E+00  0.00000000000E+00  0.45593999997E+02  0.45594000000E+02  0.51100000000E-03 0.  1.
         11   -1    0    0    0    0 -0.00000000000E+00 -0.00000000000E+00 -0.45593999997E+02  0.45594000000E+02  0.51100000000E-03 0. -1.
    9900012    2    1    2    0    0  0.24243565313E+00  0.11526037188E+01 -0.75950700111E-01  0.90007729316E+02  0.89999990543E+02 0.  0.
         12    1    1    2    0    0 -0.24243565313E+00 -0.11526037188E+01  0.75950700111E-01  0.11802706840E+01  0.00000000000E+00 0. -1.
         11    1    3    3    0    0  0.80777047816E+01 -0.61049315751E+01  0.40949836997E+00  0.10133468964E+02  0.51100000000E-03 0. -1.
        -11    1    3    3    0    0 -0.77283907637E+01  0.43173795892E+02  0.16840574630E+01  0.43892376619E+02  0.51100000000E-03 0.  1.
         12    1    3    3    0    0 -0.10687836485E+00 -0.35916260598E+02 -0.21695065331E+01  0.35981883732E+02  0.00000000000E+00 0. -1.
</event>
<event>
 7    1  0.1971192E-015  0.9000768E+02  0.7816164E-02  0.1186339E+00
        -11   -1    0    0    0    0  0.00000000000E+00  0.00000000000E+00  0.45593999997E+02  0.45594000000E+02  0.51100000000E-03 0. -1.
         11   -1    0    0    0    0 -0.00000000000E+00 -0.00000000000E+00 -0.45593999997E+02  0.45594000000E+02  0.51100000000E-03 0.  1.
    9900012    2    1    2    0    0  0.95226941903E+00  0.51594870528E+00 -0.46918358222E+00  0.90007680828E+02  0.89999941415E+02 0.  0.
         12    1    1    2    0    0 -0.95226941903E+00 -0.51594870528E+00  0.46918358222E+00  0.11803191715E+01  0.00000000000E+00 0. -1.
         11    1    3    3    0    0  0.29986803490E+02 -0.18953687584E+02  0.22287035943E+02  0.41894661091E+02  0.51100000000E-03 0. -1.
        -11    1    3    3    0    0 -0.16688097258E+01 -0.52154374839E+01 -0.38359819530E+01  0.66858411478E+01  0.51100000000E-03 0.  1.
        -12    1    3    3    0    0 -0.27365724345E+02  0.24685073773E+02 -0.18920237572E+02  0.41427178590E+02  0.00000000000E+00 0.  1.
</event>
<event>
 7    1  0.1971192E-015  0.9000779E+02  0.7816164E-02  0.1186339E+00
        -11   -1    0    0    0    0  0.00000000000E+00  0.00000000000E+00  0.45593999997E+02  0.45594000000E+02  0.51100000000E-03 0. -1.
         11   -1    0    0    0    0 -0.00000000000E+00 -0.00000000000E+00 -0.45593999997E+02  0.45594000000E+02  0.51100000000E-03 0.  1.
    9900012    2    1    2    0    0  0.75422014828E+00  0.34810814277E+00 -0.83837232920E+00  0.90007790072E+02  0.90000052101E+02 0.  0.
         12    1    1    2    0    0 -0.75422014828E+00 -0.34810814277E+00  0.83837232920E+00  0.11802099277E+01  0.00000000000E+00 0. -1.
         11    1    3    3    0    0  0.69545056561E+01  0.40045610748E+01  0.63274526076E+01  0.10219506597E+02  0.51100000000E-03 0. -1.
        -11    1    3    3    0    0  0.20137918423E+02  0.19000502266E+02  0.21252889997E+02  0.34903297527E+02  0.51100000000E-03 0.  1.
         12    1    3    3    0    0 -0.26338203931E+02 -0.22656955198E+02 -0.28418714933E+02  0.44884985949E+02  0.00000000000E+00 0. -1.
</event>
<event>
 7    1  0.1971192E-015  0.9000776E+02  0.7816164E-02  0.1186339E+00
        -11   -1    0    0    0    0  0.00000000000E+00  0.00000000000E+00  0.45593999997E+02  0.45594000000E+02  0.51100000000E-03 0.  1.
         11   -1    0    0    0    0 -0.00000000000E+00 -0.00000000000E+00 -0.45593999997E+02  0.45594000000E+02  0.51100000000E-03 0. -1.
    9900012    2    1    2    0    0 -0.12396676182E+00  0.26409514124E+00  0.11436112015E+01  0.90007762489E+02  0.90000024154E+02 0.  0.
         12    1    1    2    0    0  0.12396676182E+00 -0.26409514124E+00 -0.11436112015E+01  0.11802375108E+01  0.00000000000E+00 0. -1.
         11    1    3    3    0    0 -0.10142894293E+02 -0.22381391059E+01 -0.35559970548E-02  0.10386894830E+02  0.51100000000E-03 0. -1.
        -11    1    3    3    0    0 -0.32538688757E+02  0.28302761698E+01  0.13445321401E+02  0.35320721922E+02  0.51100000000E-03 0.  1.
         12    1    3    3    0    0  0.42557616288E+02 -0.32804192269E+00 -0.12298154202E+02  0.44300145738E+02  0.00000000000E+00 0. -1.
</event>
<event>
 7    1  0.1971192E-015  0.9000774E+02  0.7816164E-02  0.1186339E+00
        -11   -1    0    0    0    0  0.00000000000E+00  0.00000000000E+00  0.45593999997E+02  0.45594000000E+02  0.51100000000E-03 0. -1.
         11   -1    0    0    0    0 -0.00000000000E+00 -0.00000000000E+00 -0.45593999997E+02  0.45594000000E+02  0.51100000000E-03 0.  1.
    9900012    2    1    2    0    0  0.81093691760E+00 -0.35953673309E+00 -0.77853510277E+00  0.90007744836E+02  0.90000006267E+02 0.  0.
         12    1    1    2    0    0 -0.81093691760E+00  0.35953673309E+00  0.77853510277E+00  0.11802551644E+01  0.00000000000E+00 0. -1.
         11    1    3    3    0    0  0.27562065943E+01 -0.88895051915E+01  0.30657142140E+01  0.97989071453E+01  0.51100000000E-03 0. -1.
        -11    1    3    3    0    0  0.17324861744E+01 -0.35502795505E+02 -0.56225350810E+01  0.35986982341E+02  0.51100000000E-03 0.  1.
         12    1    3    3    0    0 -0.36777558510E+01  0.44032763963E+02  0.17782857643E+01  0.44221855350E+02  0.00000000000E+00 0. -1.
</event>
<event>
 7    1  0.1971192E-015  0.9000783E+02  0.7816164E-02  0.1186339E+00
        -11   -1    0    0    0    0  0.00000000000E+00  0.00000000000E+00  0.45593999997E+02  0.45594000000E+02  0.51100000000E-03 0. -1.
         11   -1    0    0    0    0 -0.00000000000E+00 -0.00000000000E+00 -0.45593999997E+02  0.45594000000E+02  0.51100000000E-03 0.  1.
    9900012    2    1    2    0    0  0.26665191132E-01 -0.11691167120E+01 -0.15893644865E+00  0.90007828100E+02  0.90000090631E+02 0.  0.
         12    1    1    2    0    0 -0.26665191132E-01  0.11691167120E+01  0.15893644865E+00  0.11801719000E+01  0.00000000000E+00 0. -1.
         11    1    3    3    0    0 -0.15264969176E+01  0.15058466865E+01 -0.99012103918E+01  0.10130732183E+02  0.51100000000E-03 0. -1.
        -11    1    3    3    0    0 -0.34030383333E+02 -0.17625051061E+02 -0.48181504300E+01  0.38625431887E+02  0.51100000000E-03 0.  1.
         12    1    3    3    0    0  0.35583545441E+02  0.14950087662E+02  0.14560424373E+02  0.41251664030E+02  0.00000000000E+00 0. -1.
</event>
<event>
 7    1  0.1971192E-015  0.9000789E+02  0.7816164E-02  0.1186339E+00
        -11   -1    0    0    0    0  0.00000000000E+00  0.00000000000E+00  0.45593999997E+02  0.45594000000E+02  0.51100000000E-03 0.  1.
         11   -1    0    0    0    0 -0.00000000000E+00 -0.00000000000E+00 -0.45593999997E+02  0.45594000000E+02  0.51100000000E-03 0. -1.
    9900012    2    1    2    0    0 -0.92222718587E+00  0.40585249668E+00 -0.61437028737E+00  0.90007885564E+02  0.90000148854E+02 0.  0.
         12    1    1    2    0    0  0.92222718587E+00 -0.40585249668E+00  0.61437028737E+00  0.11801144357E+01  0.00000000000E+00 0. -1.
         11    1    3    3    0    0  0.61133797537E+01  0.29818172500E+01  0.59314591287E+01  0.90247910658E+01  0.51100000000E-03 0. -1.
        -11    1    3    3    0    0  0.31513085313E+02 -0.12171393615E+02  0.13630331581E+02  0.36428056601E+02  0.51100000000E-03 0.  1.
         12    1    3    3    0    0 -0.38548692253E+02  0.95954288614E+01 -0.20176160997E+02  0.44555037897E+02  0.00000000000E+00 0. -1.
</event>
<event>
 7    1  0.1971192E-015  0.9000773E+02  0.7816164E-02  0.1186339E+00
        -11   -1    0    0    0    0  0.00000000000E+00  0.00000000000E+00  0.45593999997E+02  0.45594000000E+02  0.51100000000E-03 0. -1.
         11   -1    0    0    0    0 -0.00000000000E+00 -0.00000000000E+00 -0.45593999997E+02  0.45594000000E+02  0.51100000000E-03 0.  1.
    9900012    2    1    2    0    0  0.75308488589E+00  0.79694167421E+00 -0.43679704914E+00  0.90007726922E+02  0.89999988117E+02 0.  0.
         12    1    1    2    0    0 -0.75308488589E+00 -0.79694167421E+00  0.43679704914E+00  0.11802730784E+01  0.00000000000E+00 0. -1.
         11    1    3    3    0    0  0.62908296996E+01 -0.32450343661E+01  0.56967022586E+01  0.90860994509E+01  0.51100000000E-03 0. -1.
        -11    1    3    3    0    0  0.32923257941E+02 -0.13429353385E+02  0.78707246275E+01  0.36417533582E+02  0.51100000000E-03 0.  1.
        -12    1    3    3    0    0 -0.38461002755E+02  0.17471329426E+02 -0.14004223935E+02  0.44504093888E+02  0.00000000000E+00 0.  1.
</event>
<event>
 7    1  0.1971192E-015  0.9000776E+02  0.7816164E-02  0.1186339E+00
        -11   -1    0    0    0    0  0.00000000000E+00  0.00000000000E+00  0.45593999997E+02  0.45594000000E+02  0.51100000000E-03 0. -1.
         11   -1    0    0    0    0 -0.00000000000E+00 -0.00000000000E+00 -0.45593999997E+02  0.45594000000E+02  0.51100000000E-03 0.  1.
    9900012    2    1    2    0    0 -0.68561100617E+00  0.10102497878E+00 -0.95535365357E+00  0.90007758880E+02  0.90000020497E+02 0.  0.
         12    1    1    2    0    0  0.68561100617E+00 -0.10102497878E+00  0.95535365357E+00  0.11802411201E+01  0.00000000000E+00 0. -1.
         11    1    3    3    0    0 -0.66299511700E+01  0.26796521156E+01 -0.64423615432E+01  0.96250096359E+01  0.51100000000E-03 0. -1.
        -11    1    3    3    0    0 -0.80389306387E+00  0.27120094225E+02 -0.25285133203E+02  0.37087514290E+02  0.51100000000E-03 0.  1.
         12    1    3    3    0    0  0.67482332277E+01 -0.29698721362E+02  0.30772141093E+02  0.43295234954E+02  0.00000000000E+00 0. -1.
</event>
<event>
 7    1  0.1971192E-015  0.9000769E+02  0.7816164E-02  0.1186339E+00
        -11   -1    0    0    0    0  0.00000000000E+00  0.00000000000E+00  0.45593999997E+02  0.45594000000E+02  0.51100000000E-03 0. -1.
         11   -1    0    0    0    0 -0.00000000000E+00 -0.00000000000E+00 -0.45593999997E+02  0.45594000000E+02  0.51100000000E-03 0.  1.
    9900012    2    1    2    0    0  0.11309207667E+01 -0.26954884776E+00 -0.20372609749E+00  0.90007685345E+02  0.89999945992E+02 0.  0.
         12    1    1    2    0    0 -0.11309207667E+01  0.26954884776E+00  0.20372609749E+00  0.11803146549E+01  0.00000000000E+00 0. -1.
         11    1    3    3    0    0 -0.85239724894E+01 -0.32749185598E+01  0.49513814423E+00  0.91448543245E+01  0.51100000000E-03 0. -1.
        -11    1    3    3    0    0 -0.31644447481E+02  0.41823082686E+00 -0.17544536230E+02  0.36185034547E+02  0.51100000000E-03 0.  1.
         12    1    3    3    0    0  0.41299340737E+02  0.25871388852E+01  0.16845671988E+02  0.44677796473E+02  0.00000000000E+00 0. -1.
</event>
<event>
 7    1  0.1971192E-015  0.9000781E+02  0.7816164E-02  0.1186339E+00
        -11   -1    0    0    0    0  0.00000000000E+00  0.00000000000E+00  0.45593999997E+02  0.45594000000E+02  0.51100000000E-03 0.  1.
         11   -1    0    0    0    0 -0.00000000000E+00 -0.00000000000E+00 -0.45593999997E+02  0.45594000000E+02  0.51100000000E-03 0. -1.
    9900012    2    1    2    0    0  0.59720386923E+00 -0.92474957781E+00 -0.42547397822E+00  0.90007812579E+02  0.90000074905E+02 0.  0.
         12    1    1    2    0    0 -0.59720386923E+00  0.92474957781E+00  0.42547397822E+00  0.11801874212E+01  0.00000000000E+00 0. -1.
         11    1    3    3    0    0  0.57065542210E+01  0.10078265502E+02  0.11430126535E+01  0.11637984138E+02  0.51100000000E-03 0. -1.
        -11    1    3    3    0    0  0.41823833158E+01  0.12679111234E+02  0.32913940837E+02  0.35518723141E+02  0.51100000000E-03 0.  1.
         12    1    3    3    0    0 -0.92917336676E+01 -0.23682126314E+02 -0.34482427469E+02  0.42851105300E+02  0.00000000000E+00 0. -1.
</event>
<event>
 7    1  0.1971192E-015  0.9000796E+02  0.7816164E-02  0.1186339E+00
        -11   -1    0    0    0    0  0.00000000000E+00  0.00000000000E+00  0.45593999997E+02  0.45594000000E+02  0.51100000000E-03 0. -1.
         11   -1    0    0    0    0 -0.00000000000E+00 -0.00000000000E+00 -0.45593999997E+02  0.45594000000E+02  0.51100000000E-03 0.  1.
    9900012    2    1    2    0    0  0.91148130182E+00 -0.40695039644E+00 -0.62935922248E+00  0.90007957704E+02  0.90000221946E+02 0.  0.
         12    1    1    2    0    0 -0.91148130182E+00  0.40695039644E+00  0.62935922248E+00  0.11800422957E+01  0.00000000000E+00 0. -1.
         11    1    3    3    0    0  0.36623386761E+02 -0.20083262295E+02 -0.17695007350E+01  0.41805992578E+02  0.51100000000E-03 0. -1.
        -11    1    3    3    0    0  0.20179343159E+01  0.73467527691E+01 -0.32170934026E+01  0.82702191855E+01  0.51100000000E-03 0.  1.
        -12    1    3    3    0    0 -0.37729839775E+02  0.12329559130E+02  0.43572349151E+01  0.39931745941E+02  0.00000000000E+00 0.  1.
</event>
<event>
 7    1  0.1971192E-015  0.9000776E+02  0.7816164E-02  0.1186339E+00
        -11   -1    0    0    0    0  0.00000000000E+00  0.00000000000E+00  0.45593999997E+02  0.45594000000E+02  0.51100000000E-03 0.  1.
         11   -1    0    0    0    0 -0.00000000000E+00 -0.00000000000E+00 -0.45593999997E+02  0.45594000000E+02  0.51100000000E-03 0. -1.
    9900012    2    1    2    0    0 -0.84524653090E+00  0.27428500635E+00  0.77672155238E+00  0.90007758358E+02  0.90000019969E+02 0.  0.
         12    1    1    2    0    0  0.84524653090E+00 -0.27428500635E+00 -0.77672155238E+00  0.11802416416E+01  0.00000000000E+00 0. -1.
         11    1    3    3    0    0  0.28026855839E+02 -0.24305191943E+01 -0.24818417321E+02  0.37514875854E+02  0.51100000000E-03 0. -1.
        -11    1    3    3    0    0 -0.14807422509E+01  0.80631981844E+01 -0.61310842256E+01  0.10237087311E+02  0.51100000000E-03 0.  1.
        -12    1    3    3    0    0 -0.27391360119E+02 -0.53583939838E+01  0.31726223099E+02  0.42255795193E+02  0.00000000000E+00 0.  1.
</event>
<event>
 7    1  0.1971192E-015  0.9000774E+02  0.7816164E-02  0.1186339E+00
        -11   -1    0    0    0    0  0.00000000000E+00  0.00000000000E+00  0.45593999997E+02  0.45594000000E+02  0.51100000000E-03 0.  1.
         11   -1    0    0    0    0 -0.00000000000E+00 -0.00000000000E+00 -0.45593999997E+02  0.45594000000E+02  0.51100000000E-03 0. -1.
    9900012    2    1    2    0    0 -0.61943708409E+00  0.98737104600E+00  0.18548600308E+00  0.90007742002E+02  0.90000003397E+02 0.  0.
         12    1    1    2    0    0  0.61943708409E+00 -0.98737104600E+00 -0.18548600308E+00  0.11802579976E+01  0.00000000000E+00 0. -1.
         11    1    3    3    0    0  0.72648321436E+01  0.32526899598E+02 -0.19192201688E+02  0.38459297828E+02  0.51100000000E-03 0. -1.
        -11    1    3    3    0    0 -0.39745847644E+01  0.75113349981E+01  0.40733389174E+01  0.94238828356E+01  0.51100000000E-03 0.  1.
        -12    1    3    3    0    0 -0.39096844633E+01 -0.39050863550E+02  0.15304348774E+02  0.42124561339E+02  0.00000000000E+00 0.  1.
</event>
<event>
 7    1  0.1971192E-015  0.9000776E+02  0.7816164E-02  0.1186339E+00
        -11   -1    0    0    0    0  0.00000000000E+00  0.00000000000E+00  0.45593999997E+02  0.45594000000E+02  0.51100000000E-03 0. -1.
         11   -1    0    0    0    0 -0.00000000000E+00 -0.00000000000E+00 -0.45593999997E+02  0.45594000000E+02  0.51100000000E-03 0.  1.
    9900012    2    1    2    0    0  0.13856497404E-01  0.38446469389E+00 -0.11157773669E+01  0.90007760941E+02  0.90000022586E+02 0.  0.
         12    1    1    2    0    0 -0.13856497404E-01 -0.38446469389E+00  0.11157773669E+01  0.11802390588E+01  0.00000000000E+00 0. -1.
         11    1    3    3    0    0  0.53957772218E+01  0.22556884421E+01  0.64553618823E+01  0.87105820396E+01  0.51100000000E-03 0. -1.
        -11    1    3    3    0    0  0.68758890962E+01  0.24313971165E+02 -0.33840606333E+02  0.42233087525E+02  0.51100000000E-03 0.  1.
         12    1    3    3    0    0 -0.12257809821E+02 -0.26185194913E+02  0.26269467084E+02  0.39064091377E+02  0.00000000000E+00 0. -1.
</event>
<event>
 7    1  0.1971192E-015  0.9000778E+02  0.7816164E-02  0.1186339E+00
        -11   -1    0    0    0    0  0.00000000000E+00  0.00000000000E+00  0.45593999997E+02  0.45594000000E+02  0.51100000000E-03 0. -1.
         11   -1    0    0    0    0 -0.00000000000E+00 -0.00000000000E+00 -0.45593999997E+02  0.45594000000E+02  0.51100000000E-03 0.  1.
    9900012    2    1    2    0    0  0.87104415536E+00  0.22724217476E+00 -0.76326253828E+00  0.90007776873E+02  0.90000038728E+02 0.  0.
         12    1    1    2    0    0 -0.87104415536E+00 -0.22724217476E+00  0.76326253828E+00  0.11802231268E+01  0.00000000000E+00 0. -1.
         11    1    3    3    0    0 -0.89691649851E+01 -0.12724804604E+02 -0.23055468712E+02  0.27819439436E+02  0.51100000000E-03 0. -1.
        -11    1    3    3    0    0 -0.20774820982E+01  0.26085226521E+01 -0.18318437946E+02  0.18619492242E+02  0.51100000000E-03 0.  1.
         12    1    3    3    0    0  0.11917691239E+02  0.10343524126E+02  0.40610644120E+02  0.43568845195E+02  0.00000000000E+00 0. -1.
</event>
