<event>
 8    1  0.2882335E-009  0.9118800E+02  0.7816164E-02  0.1184000E+00
        -11   -1    0    0    0    0  0.00000000000E+00  0.00000000000E+00  0.45593999997E+02  0.45594000000E+02  0.51100000000E-03 0. -1.
         11   -1    0    0    0    0 -0.00000000000E+00 -0.00000000000E+00 -0.45593999997E+02  0.45594000000E+02  0.51100000000E-03 0.  1.
         23    2    1    2    0    0  0.00000000000E+00  0.00000000000E+00  0.00000000000E+00  0.91188000000E+02  0.91188000000E+02 0.  0.
    9900012    2    3    3    0    0  0.33059274601E+02 -0.20784761179E+02 -0.22454209058E+02  0.46142318311E+02  0.10000005012E+02 0.  0.
         12    1    3    3    0    0 -0.33059274601E+02  0.20784761179E+02  0.22454209058E+02  0.45045681689E+02  0.00000000000E+00 0. -1.
         11    1    4    4    0    0  0.35261485041E+01 -0.49368662654E+01 -0.26792235670E+01  0.66320894881E+01  0.51100000000E-03 0. -1.
        -11    1    4    4    0    0  0.26972417352E+02 -0.16422134114E+02 -0.18387012005E+02  0.36541483240E+02  0.51100000000E-03 0.  1.
         12    1    4    4    0    0  0.25607087450E+01  0.57423919984E+00 -0.13879734862E+01  0.29687455825E+01  0.00000000000E+00 0. -1.
</event>
<event>
 8    1  0.2882335E-009  0.9118800E+02  0.7816164E-02  0.1184000E+00
        -11   -1    0    0    0    0  0.00000000000E+00  0.00000000000E+00  0.45593999997E+02  0.45594000000E+02  0.51100000000E-03 0.  1.
         11   -1    0    0    0    0 -0.00000000000E+00 -0.00000000000E+00 -0.45593999997E+02  0.45594000000E+02  0.51100000000E-03 0. -1.
         23    2    1    2    0    0  0.00000000000E+00  0.00000000000E+00  0.00000000000E+00  0.91188000000E+02  0.91188000000E+02 0.  0.
    9900012    2    3    3    0    0 -0.22045609413E+02  0.33698533475E+02  0.20186960707E+02  0.46142318350E+02  0.10000005370E+02 0.  0.
        -12    1    3    3    0    0  0.22045609413E+02 -0.33698533475E+02 -0.20186960707E+02  0.45045681650E+02  0.00000000000E+00 0.  1.
         11    1    4    4    0    0 -0.13938415755E+02  0.23925710239E+02  0.11587659703E+02  0.30016543802E+02  0.51100000000E-03 0. -1.
        -11    1    4    4    0    0 -0.49102901562E+01  0.62020978196E+01  0.23539327831E+01  0.82533609270E+01  0.51100000000E-03 0.  1.
         12    1    4    4    0    0 -0.31969035011E+01  0.35707254165E+01  0.62453682215E+01  0.78724136208E+01  0.00000000000E+00 0. -1.
</event>
<event>
 8    1  0.2882335E-009  0.9118800E+02  0.7816164E-02  0.1184000E+00
        -11   -1    0    0    0    0  0.00000000000E+00  0.00000000000E+00  0.45593999997E+02  0.45594000000E+02  0.51100000000E-03 0. -1.
         11   -1    0    0    0    0 -0.00000000000E+00 -0.00000000000E+00 -0.45593999997E+02  0.45594000000E+02  0.51100000000E-03 0.  1.
         23    2    1    2    0    0  0.17763568394E-14  0.27755575616E-15  0.00000000000E+00  0.91188000000E+02  0.91188000000E+02 0.  0.
    9900012    2    3    3    0    0 -0.15550227653E+02  0.34821957482E+00  0.42275083181E+02  0.46142317689E+02  0.99999993407E+01 0.  0.
        -12    1    3    3    0    0  0.15550227653E+02 -0.34821957482E+00 -0.42275083181E+02  0.45045682311E+02  0.00000000000E+00 0.  1.
         11    1    4    4    0    0 -0.47892510648E+01 -0.22625101482E+01  0.86926141441E+01  0.10179264161E+02  0.51100000000E-03 0. -1.
        -11    1    4    4    0    0 -0.23500407793E+01  0.49239123939E+00  0.17738922968E+02  0.17900685158E+02  0.51100000000E-03 0.  1.
         12    1    4    4    0    0 -0.84109358087E+01  0.21183384837E+01  0.15843546069E+02  0.18062368371E+02  0.00000000000E+00 0. -1.
</event>
<event>
 8    1  0.2882335E-009  0.9118800E+02  0.7816164E-02  0.1184000E+00
        -11   -1    0    0    0    0  0.00000000000E+00  0.00000000000E+00  0.45593999997E+02  0.45594000000E+02  0.51100000000E-03 0. -1.
         11   -1    0    0    0    0 -0.00000000000E+00 -0.00000000000E+00 -0.45593999997E+02  0.45594000000E+02  0.51100000000E-03 0.  1.
         23    2    1    2    0    0 -0.71054273576E-14 -0.17763568394E-14 -0.35527136788E-14  0.91188000000E+02  0.91188000000E+02 0.  0.
    9900012    2    3    3    0    0 -0.37895981614E+02  0.12624989154E+02 -0.20823489484E+02  0.46142317766E+02  0.10000000044E+02 0.  0.
         12    1    3    3    0    0  0.37895981614E+02 -0.12624989154E+02  0.20823489484E+02  0.45045682234E+02  0.00000000000E+00 0. -1.
         11    1    4    4    0    0 -0.31083489922E+02  0.11037576273E+02 -0.15677982869E+02  0.36521371590E+02  0.51100000000E-03 0. -1.
        -11    1    4    4    0    0 -0.73461852274E+01  0.17846165574E+01 -0.47566993699E+01  0.89318241591E+01  0.51100000000E-03 0.  1.
         12    1    4    4    0    0  0.53369353556E+00 -0.19720367661E+00 -0.38880724464E+00  0.68912201637E+00  0.00000000000E+00 0. -1.
</event>
<event>
 8    1  0.2882335E-009  0.9118800E+02  0.7816164E-02  0.1184000E+00
        -11   -1    0    0    0    0  0.00000000000E+00  0.00000000000E+00  0.45593999997E+02  0.45594000000E+02  0.51100000000E-03 0. -1.
         11   -1    0    0    0    0 -0.00000000000E+00 -0.00000000000E+00 -0.45593999997E+02  0.45594000000E+02  0.51100000000E-03 0.  1.
         23    2    1    2    0    0  0.22204460493E-15  0.17763568394E-14  0.71054273576E-14  0.91188000000E+02  0.91188000000E+02 0.  0.
    9900012    2    3    3    0    0 -0.17070265937E+01 -0.11367372746E+02 -0.43554363491E+02  0.46142315611E+02  0.99999803925E+01 0.  0.
         12    1    3    3    0    0  0.17070265937E+01  0.11367372746E+02  0.43554363491E+02  0.45045684389E+02  0.00000000000E+00 0. -1.
         11    1    4    4    0    0  0.11231089877E+01  0.14806577259E+01 -0.63706282261E+01  0.66361604377E+01  0.51100000000E-03 0. -1.
        -11    1    4    4    0    0 -0.22669123153E+01 -0.95603111774E+01 -0.30368851567E+02  0.31918734108E+02  0.51100000000E-03 0.  1.
         12    1    4    4    0    0 -0.56322326611E+00 -0.32877192946E+01 -0.68148836979E+01  0.75874210654E+01  0.00000000000E+00 0. -1.
</event>
<event>
 8    1  0.2882335E-009  0.9118800E+02  0.7816164E-02  0.1184000E+00
        -11   -1    0    0    0    0  0.00000000000E+00  0.00000000000E+00  0.45593999997E+02  0.45594000000E+02  0.51100000000E-03 0. -1.
         11   -1    0    0    0    0 -0.00000000000E+00 -0.00000000000E+00 -0.45593999997E+02  0.45594000000E+02  0.51100000000E-03 0.  1.
         23    2    1    2    0    0  0.00000000000E+00  0.00000000000E+00 -0.71054273576E-14  0.91188000000E+02  0.91188000000E+02 0.  0.
    9900012    2    3    3    0    0  0.20621656664E+02  0.13405707654E+02  0.37737882601E+02  0.46142317582E+02  0.99999983694E+01 0.  0.
        -12    1    3    3    0    0 -0.20621656664E+02 -0.13405707654E+02 -0.37737882601E+02  0.45045682418E+02  0.00000000000E+00 0.  1.
         11    1    4    4    0    0  0.81610528153E+01  0.75681964528E+01  0.19988194934E+02  0.22878118751E+02  0.51100000000E-03 0. -1.
        -11    1    4    4    0    0  0.89301465156E+01  0.36510990080E+01  0.75473343082E+01  0.12249093688E+02  0.51100000000E-03 0.  1.
        -12    1    4    4    0    0  0.35304573327E+01  0.21864121930E+01  0.10202353360E+02  0.11015105144E+02  0.00000000000E+00 0.  1.
</event>
<event>
 8    1  0.2882335E-009  0.9118800E+02  0.7816164E-02  0.1184000E+00
        -11   -1    0    0    0    0  0.00000000000E+00  0.00000000000E+00  0.45593999997E+02  0.45594000000E+02  0.51100000000E-03 0. -1.
         11   -1    0    0    0    0 -0.00000000000E+00 -0.00000000000E+00 -0.45593999997E+02  0.45594000000E+02  0.51100000000E-03 0.  1.
         23    2    1    2    0    0 -0.71054273576E-14  0.00000000000E+00  0.00000000000E+00  0.91188000000E+02  0.91188000000E+02 0.  0.
    9900012    2    3    3    0    0  0.25610349168E+02 -0.32385004997E+02 -0.18012085935E+02  0.46142314603E+02  0.99999712010E+01 0.  0.
         12    1    3    3    0    0 -0.25610349168E+02  0.32385004997E+02  0.18012085935E+02  0.45045685397E+02  0.00000000000E+00 0. -1.
         11    1    4    4    0    0  0.13257070217E+02 -0.12361191307E+02 -0.10398625694E+02  0.20896898761E+02  0.51100000000E-03 0.  1.
        -11    1    4    4    0    0  0.52332691539E+01 -0.12925548066E+02 -0.34615333114E+01  0.14367989141E+02  0.51100000000E-03 0. -1.
        -12    1    4    4    0    0  0.71200097978E+01 -0.70982656242E+01 -0.41519269295E+01  0.10877426700E+02  0.00000000000E+00 0.  1.
</event>
<event>
 8    1  0.2882335E-009  0.9118800E+02  0.7816164E-02  0.1184000E+00
        -11   -1    0    0    0    0  0.00000000000E+00  0.00000000000E+00  0.45593999997E+02  0.45594000000E+02  0.51100000000E-03 0. -1.
         11   -1    0    0    0    0 -0.00000000000E+00 -0.00000000000E+00 -0.45593999997E+02  0.45594000000E+02  0.51100000000E-03 0.  1.
         23    2    1    2    0    0  0.00000000000E+00  0.00000000000E+00  0.00000000000E+00  0.91188000000E+02  0.91188000000E+02 0.  0.
    9900012    2    3    3    0    0 -0.82143914907E+01 -0.35630024086E+02 -0.26308527439E+02  0.46142318076E+02  0.10000002875E+02 0.  0.
         12    1    3    3    0    0  0.82143914907E+01  0.35630024086E+02  0.26308527439E+02  0.45045681924E+02  0.00000000000E+00 0. -1.
         11    1    4    4    0    0 -0.84703877390E+01 -0.23081725187E+02 -0.17641205571E+02  0.30260959012E+02  0.51100000000E-03 0.  1.
        -11    1    4    4    0    0 -0.13318152735E+01 -0.10508318911E+02 -0.60305442802E+01  0.12188763794E+02  0.51100000000E-03 0. -1.
         12    1    4    4    0    0  0.15878115218E+01 -0.20399799883E+01 -0.26367775878E+01  0.36925952701E+01  0.00000000000E+00 0. -1.
</event>
<event>
 8    1  0.2882335E-009  0.9118800E+02  0.7816164E-02  0.1184000E+00
        -11   -1    0    0    0    0  0.00000000000E+00  0.00000000000E+00  0.45593999997E+02  0.45594000000E+02  0.51100000000E-03 0. -1.
         11   -1    0    0    0    0 -0.00000000000E+00 -0.00000000000E+00 -0.45593999997E+02  0.45594000000E+02  0.51100000000E-03 0.  1.
         23    2    1    2    0    0  0.22204460493E-15  0.00000000000E+00  0.00000000000E+00  0.91188000000E+02  0.91188000000E+02 0.  0.
    9900012    2    3    3    0    0 -0.16339999795E+01  0.26368358282E+02  0.36484967491E+02  0.46142321770E+02  0.10000036557E+02 0.  0.
        -12    1    3    3    0    0  0.16339999795E+01 -0.26368358282E+02 -0.36484967491E+02  0.45045678230E+02  0.00000000000E+00 0.  1.
         11    1    4    4    0    0 -0.34418636117E+01  0.20941224491E+02  0.22587488906E+02  0.30993159949E+02  0.51100000000E-03 0. -1.
        -11    1    4    4    0    0  0.56699138513E+00  0.31736766796E+01  0.97445836789E+01  0.10264044731E+02  0.51100000000E-03 0.  1.
         12    1    4    4    0    0  0.12408722470E+01  0.22534571111E+01  0.41528949061E+01  0.48851170903E+01  0.00000000000E+00 0. -1.
</event>
<event>
 8    1  0.2882335E-009  0.9118800E+02  0.7816164E-02  0.1184000E+00
        -11   -1    0    0    0    0  0.00000000000E+00  0.00000000000E+00  0.45593999997E+02  0.45594000000E+02  0.51100000000E-03 0. -1.
         11   -1    0    0    0    0 -0.00000000000E+00 -0.00000000000E+00 -0.45593999997E+02  0.45594000000E+02  0.51100000000E-03 0.  1.
         23    2    1    2    0    0  0.00000000000E+00  0.00000000000E+00  0.00000000000E+00  0.91188000000E+02  0.91188000000E+02 0.  0.
    9900012    2    3    3    0    0  0.42272760176E+02 -0.57586973054E+01 -0.14455616634E+02  0.46142315414E+02  0.99999785977E+01 0.  0.
         12    1    3    3    0    0 -0.42272760176E+02  0.57586973054E+01  0.14455616634E+02  0.45045684586E+02  0.00000000000E+00 0. -1.
         11    1    4    4    0    0  0.11681789930E+01  0.77888031285E+00  0.24688425819E+00  0.14255696404E+01  0.51100000000E-03 0. -1.
        -11    1    4    4    0    0  0.32530305197E+01  0.34941554753E+00 -0.31624080419E+01  0.45502883065E+01  0.51100000000E-03 0.  1.
         12    1    4    4    0    0  0.37851550663E+02 -0.68869931658E+01 -0.11540092850E+02  0.40166457467E+02  0.00000000000E+00 0. -1.
</event>
<event>
 8    1  0.2882335E-009  0.9118800E+02  0.7816164E-02  0.1184000E+00
        -11   -1    0    0    0    0  0.00000000000E+00  0.00000000000E+00  0.45593999997E+02  0.45594000000E+02  0.51100000000E-03 0. -1.
         11   -1    0    0    0    0 -0.00000000000E+00 -0.00000000000E+00 -0.45593999997E+02  0.45594000000E+02  0.51100000000E-03 0.  1.
         23    2    1    2    0    0  0.00000000000E+00  0.00000000000E+00  0.00000000000E+00  0.91188000000E+02  0.91188000000E+02 0.  0.
    9900012    2    3    3    0    0 -0.57022599301E+01  0.36834644057E+02  0.25294406981E+02  0.46142314350E+02  0.99999688959E+01 0.  0.
        -12    1    3    3    0    0  0.57022599301E+01 -0.36834644057E+02 -0.25294406981E+02  0.45045685650E+02  0.00000000000E+00 0.  1.
         11    1    4    4    0    0 -0.37706504622E+01  0.27189878228E+02  0.18128546359E+02  0.32896070834E+02  0.51100000000E-03 0. -1.
        -11    1    4    4    0    0 -0.62456848599E+00  0.87941220519E+01  0.39266344875E+01  0.96511723183E+01  0.51100000000E-03 0.  1.
         12    1    4    4    0    0 -0.13070409819E+01  0.85064377710E+00  0.32392261350E+01  0.35950711978E+01  0.00000000000E+00 0. -1.
</event>
<event>
 8    1  0.2882335E-009  0.9118800E+02  0.7816164E-02  0.1184000E+00
        -11   -1    0    0    0    0  0.00000000000E+00  0.00000000000E+00  0.45593999997E+02  0.45594000000E+02  0.51100000000E-03 0.  1.
         11   -1    0    0    0    0 -0.00000000000E+00 -0.00000000000E+00 -0.45593999997E+02  0.45594000000E+02  0.51100000000E-03 0. -1.
         23    2    1    2    0    0  0.00000000000E+00  0.00000000000E+00  0.17763568394E-14  0.91188000000E+02  0.91188000000E+02 0.  0.
    9900012    2    3    3    0    0  0.36691177797E+02 -0.22819827502E+02 -0.12732888893E+02  0.46142317467E+02  0.99999973135E+01 0.  0.
        -12    1    3    3    0    0 -0.36691177797E+02  0.22819827502E+02  0.12732888893E+02  0.45045682533E+02  0.00000000000E+00 0.  1.
         11    1    4    4    0    0  0.15381138084E+01  0.19451778374E+00  0.79460470107E+00  0.17421332176E+01  0.51100000000E-03 0. -1.
        -11    1    4    4    0    0  0.17068408509E+02 -0.83248564007E+01 -0.61181913731E+01  0.19951593146E+02  0.51100000000E-03 0.  1.
         12    1    4    4    0    0  0.18084655479E+02 -0.14689488885E+02 -0.74093022214E+01  0.24448591103E+02  0.00000000000E+00 0. -1.
</event>
<event>
 8    1  0.2882335E-009  0.9118800E+02  0.7816164E-02  0.1184000E+00
        -11   -1    0    0    0    0  0.00000000000E+00  0.00000000000E+00  0.45593999997E+02  0.45594000000E+02  0.51100000000E-03 0. -1.
         11   -1    0    0    0    0 -0.00000000000E+00 -0.00000000000E+00 -0.45593999997E+02  0.45594000000E+02  0.51100000000E-03 0.  1.
         23    2    1    2    0    0  0.00000000000E+00  0.35527136788E-14  0.00000000000E+00  0.91188000000E+02  0.91188000000E+02 0.  0.
    9900012    2    3    3    0    0  0.20743230985E+01  0.25125890407E+02 -0.37329618383E+02  0.46142316592E+02  0.99999893368E+01 0.  0.
         12    1    3    3    0    0 -0.20743230985E+01 -0.25125890407E+02  0.37329618383E+02  0.45045683408E+02  0.00000000000E+00 0. -1.
         11    1    4    4    0    0  0.11080999318E+01  0.12506580415E+00 -0.45081715714E+01  0.46440432914E+01  0.51100000000E-03 0. -1.
        -11    1    4    4    0    0  0.22976879905E+01  0.18240863561E+02 -0.25595310620E+02  0.31513939766E+02  0.51100000000E-03 0.  1.
        -12    1    4    4    0    0 -0.13314648238E+01  0.67599610424E+01 -0.72261361913E+01  0.99843335345E+01  0.00000000000E+00 0.  1.
</event>
<event>
 8    1  0.2882335E-009  0.9118800E+02  0.7816164E-02  0.1184000E+00
        -11   -1    0    0    0    0  0.00000000000E+00  0.00000000000E+00  0.45593999997E+02  0.45594000000E+02  0.51100000000E-03 0.  1.
         11   -1    0    0    0    0 -0.00000000000E+00 -0.00000000000E+00 -0.45593999997E+02  0.45594000000E+02  0.51100000000E-03 0. -1.
         23    2    1    2    0    0  0.00000000000E+00  0.00000000000E+00 -0.44408920985E-15  0.91188000000E+02  0.91188000000E+02 0.  0.
    9900012    2    3    3    0    0  0.21455385358E+02 -0.39460320918E+02  0.34152958094E+01  0.46142303943E+02  0.99998739916E+01 0.  0.
        -12    1    3    3    0    0 -0.21455385358E+02  0.39460320918E+02 -0.34152958094E+01  0.45045696057E+02  0.00000000000E+00 0.  1.
         11    1    4    4    0    0  0.11461320208E+02 -0.24019600287E+02  0.46752878540E+00  0.26618069845E+02  0.51100000000E-03 0. -1.
        -11    1    4    4    0    0  0.29681863764E+01 -0.35720262447E+01  0.33493346019E+01  0.57260409005E+01  0.51100000000E-03 0.  1.
        -12    1    4    4    0    0  0.70258787737E+01 -0.11868694387E+02 -0.40156757786E+00  0.13798193197E+02  0.00000000000E+00 0.  1.
</event>
<event>
 8    1  0.2882335E-009  0.9118800E+02  0.7816164E-02  0.1184000E+00
        -11   -1    0    0    0    0  0.00000000000E+00  0.00000000000E+00  0.45593999997E+02  0.45594000000E+02  0.51100000000E-03 0. -1.
         11   -1    0    0    0    0 -0.00000000000E+00 -0.00000000000E+00 -0.45593999997E+02  0.45594000000E+02  0.51100000000E-03 0.  1.
         23    2    1    2    0    0  0.00000000000E+00  0.00000000000E+00  0.00000000000E+00  0.91188000000E+02  0.91188000000E+02 0.  0.
    9900012    2    3    3    0    0  0.35274457162E+02 -0.67814375559E+01 -0.27181580466E+02  0.46142317188E+02  0.99999947708E+01 0.  0.
         12    1    3    3    0    0 -0.35274457162E+02  0.67814375559E+01  0.27181580466E+02  0.45045682812E+02  0.00000000000E+00 0. -1.
         11    1    4    4    0    0  0.19807114388E+02 -0.30533123636E+01 -0.19366142126E+02  0.27869193707E+02  0.51100000000E-03 0. -1.
        -11    1    4    4    0    0  0.12260482007E+02 -0.28749494146E+01 -0.80504690102E+01  0.14946397718E+02  0.51100000000E-03 0.  1.
         12    1    4    4    0    0  0.32068607672E+01 -0.85317577763E+00  0.23503067051E+00  0.33267257632E+01  0.00000000000E+00 0. -1.
</event>
<event>
 8    1  0.2882335E-009  0.9118800E+02  0.7816164E-02  0.1184000E+00
        -11   -1    0    0    0    0  0.00000000000E+00  0.00000000000E+00  0.45593999997E+02  0.45594000000E+02  0.51100000000E-03 0. -1.
         11   -1    0    0    0    0 -0.00000000000E+00 -0.00000000000E+00 -0.45593999997E+02  0.45594000000E+02  0.51100000000E-03 0.  1.
         23    2    1    2    0    0  0.00000000000E+00 -0.17763568394E-14  0.00000000000E+00  0.91188000000E+02  0.91188000000E+02 0.  0.
    9900012    2    3    3    0    0  0.34982948999E+02 -0.13504786489E+02  0.24958520779E+02  0.46142314987E+02  0.99999747059E+01 0.  0.
        -12    1    3    3    0    0 -0.34982948999E+02  0.13504786489E+02 -0.24958520779E+02  0.45045685013E+02  0.00000000000E+00 0.  1.
         11    1    4    4    0    0  0.24088974938E+02 -0.76834035333E+01  0.12149329021E+02  0.28052087255E+02  0.51100000000E-03 0.  1.
        -11    1    4    4    0    0  0.99377879441E+01 -0.40238472740E+01  0.11092360039E+02  0.15426970785E+02  0.51100000000E-03 0. -1.
        -12    1    4    4    0    0  0.95618611695E+00 -0.17975356821E+01  0.17168317181E+01  0.26632569472E+01  0.00000000000E+00 0.  1.
</event>
<event>
 8    1  0.2882335E-009  0.9118800E+02  0.7816164E-02  0.1184000E+00
        -11   -1    0    0    0    0  0.00000000000E+00  0.00000000000E+00  0.45593999997E+02  0.45594000000E+02  0.51100000000E-03 0. -1.
         11   -1    0    0    0    0 -0.00000000000E+00 -0.00000000000E+00 -0.45593999997E+02  0.45594000000E+02  0.51100000000E-03 0.  1.
         23    2    1    2    0    0  0.00000000000E+00  0.00000000000E+00 -0.71054273576E-14  0.91188000000E+02  0.91188000000E+02 0.  0.
    9900012    2    3    3    0    0 -0.27240993929E+02 -0.20215939594E+02  0.29637096366E+02  0.46142318244E+02  0.10000004399E+02 0.  0.
        -12    1    3    3    0    0  0.27240993929E+02  0.20215939594E+02 -0.29637096366E+02  0.45045681756E+02  0.00000000000E+00 0.  1.
         11    1    4    4    0    0 -0.20153863960E+02 -0.15761081017E+02  0.18497606975E+02  0.31571369489E+02  0.51100000000E-03 0. -1.
        -11    1    4    4    0    0 -0.13539320448E+01 -0.15221566803E+01  0.44181828366E+00  0.20845375022E+01  0.51100000000E-03 0.  1.
        -12    1    4    4    0    0 -0.57331979245E+01 -0.29327018967E+01  0.10697671107E+02  0.12486411252E+02  0.00000000000E+00 0.  1.
</event>
<event>
 8    1  0.2882335E-009  0.9118800E+02  0.7816164E-02  0.1184000E+00
        -11   -1    0    0    0    0  0.00000000000E+00  0.00000000000E+00  0.45593999997E+02  0.45594000000E+02  0.51100000000E-03 0. -1.
         11   -1    0    0    0    0 -0.00000000000E+00 -0.00000000000E+00 -0.45593999997E+02  0.45594000000E+02  0.51100000000E-03 0.  1.
         23    2    1    2    0    0  0.00000000000E+00  0.88817841970E-15  0.00000000000E+00  0.91188000000E+02  0.91188000000E+02 0.  0.
    9900012    2    3    3    0    0  0.17851950409E+02 -0.76804113456E+01 -0.40637822766E+02  0.46142317732E+02  0.99999997355E+01 0.  0.
         12    1    3    3    0    0 -0.17851950409E+02  0.76804113456E+01  0.40637822766E+02  0.45045682268E+02  0.00000000000E+00 0. -1.
         11    1    4    4    0    0  0.33794570169E+00 -0.54297040579E+00  0.18744100555E+00  0.66645221174E+00  0.51100000000E-03 0. -1.
        -11    1    4    4    0    0  0.24513786254E+01  0.12899269471E+01 -0.53436514879E+01  0.60189517509E+01  0.51100000000E-03 0.  1.
        -12    1    4    4    0    0  0.15062626081E+02 -0.84273678870E+01 -0.35481612284E+02  0.39456913769E+02  0.00000000000E+00 0.  1.
</event>
<event>
 8    1  0.2882335E-009  0.9118800E+02  0.7816164E-02  0.1184000E+00
        -11   -1    0    0    0    0  0.00000000000E+00  0.00000000000E+00  0.45593999997E+02  0.45594000000E+02  0.51100000000E-03 0. -1.
         11   -1    0    0    0    0 -0.00000000000E+00 -0.00000000000E+00 -0.45593999997E+02  0.45594000000E+02  0.51100000000E-03 0.  1.
         23    2    1    2    0    0 -0.11796119637E-15  0.00000000000E+00  0.00000000000E+00  0.91188000000E+02  0.91188000000E+02 0.  0.
    9900012    2    3    3    0    0  0.38469038501E-01 -0.26669065634E+02  0.36302520269E+02  0.46142317415E+02  0.99999968447E+01 0.  0.
        -12    1    3    3    0    0 -0.38469038501E-01  0.26669065634E+02 -0.36302520269E+02  0.45045682585E+02  0.00000000000E+00 0.  1.
         11    1    4    4    0    0 -0.28322119208E+01 -0.19527606560E+02  0.19980281971E+02  0.28081319595E+02  0.51100000000E-03 0. -1.
        -11    1    4    4    0    0  0.24539066935E+01 -0.65110921464E+01  0.14322913248E+02  0.15923624687E+02  0.51100000000E-03 0.  1.
         12    1    4    4    0    0  0.41677426573E+00 -0.63036692740E+00  0.19993250506E+01  0.21373731330E+01  0.00000000000E+00 0. -1.
</event>
<event>
 8    1  0.2882335E-009  0.9118800E+02  0.7816164E-02  0.1184000E+00
        -11   -1    0    0    0    0  0.00000000000E+00  0.00000000000E+00  0.45593999997E+02  0.45594000000E+02  0.51100000000E-03 0. -1.
         11   -1    0    0    0    0 -0.00000000000E+00 -0.00000000000E+00 -0.45593999997E+02  0.45594000000E+02  0.51100000000E-03 0.  1.
         23    2    1    2    0    0  0.22204460493E-15 -0.22204460493E-15  0.00000000000E+00  0.91188000000E+02  0.91188000000E+02 0.  0.
    9900012    2    3    3    0    0 -0.15024182166E+01  0.93537944747E+00  0.45010901163E+02  0.46142318534E+02  0.10000007050E+02 0.  0.
        -12    1    3    3    0    0  0.15024182166E+01 -0.93537944747E+00 -0.45010901163E+02  0.45045681466E+02  0.00000000000E+00 0.  1.
         11    1    4    4    0    0  0.86654192697E+00 -0.24714320838E+01  0.75759801933E+01  0.80158809626E+01  0.51100000000E-03 0. -1.
        -11    1    4    4    0    0  0.47999390893E+00 -0.31108507090E+00  0.21205810733E+00  0.61003030740E+00  0.51100000000E-03 0.  1.
         12    1    4    4    0    0 -0.28489540525E+01  0.37178966022E+01  0.37222862862E+02  0.37516407264E+02  0.00000000000E+00 0. -1.
</event>
<event>
 8    1  0.2882335E-009  0.9118800E+02  0.7816164E-02  0.1184000E+00
        -11   -1    0    0    0    0  0.00000000000E+00  0.00000000000E+00  0.45593999997E+02  0.45594000000E+02  0.51100000000E-03 0. -1.
         11   -1    0    0    0    0 -0.00000000000E+00 -0.00000000000E+00 -0.45593999997E+02  0.45594000000E+02  0.51100000000E-03 0.  1.
         23    2    1    2    0    0 -0.71054273576E-14  0.00000000000E+00 -0.35527136788E-14  0.91188000000E+02  0.91188000000E+02 0.  0.
    9900012    2    3    3    0    0 -0.33112466975E+02 -0.22459323597E+02 -0.20694391218E+02  0.46142306382E+02  0.99998962388E+01 0.  0.
         12    1    3    3    0    0  0.33112466975E+02  0.22459323597E+02  0.20694391218E+02  0.45045693618E+02  0.00000000000E+00 0. -1.
         11    1    4    4    0    0 -0.28099447890E+00  0.38147097573E+00  0.56672687792E+00  0.73868641369E+00  0.51100000000E-03 0. -1.
        -11    1    4    4    0    0 -0.10521434992E+02 -0.76382592556E+01 -0.85704962010E+01  0.15572315311E+02  0.51100000000E-03 0.  1.
         12    1    4    4    0    0 -0.22310037504E+02 -0.15202535318E+02 -0.12690621894E+02  0.29831304658E+02  0.00000000000E+00 0. -1.
</event>
<event>
 8    1  0.2882335E-009  0.9118800E+02  0.7816164E-02  0.1184000E+00
        -11   -1    0    0    0    0  0.00000000000E+00  0.00000000000E+00  0.45593999997E+02  0.45594000000E+02  0.51100000000E-03 0. -1.
         11   -1    0    0    0    0 -0.00000000000E+00 -0.00000000000E+00 -0.45593999997E+02  0.45594000000E+02  0.51100000000E-03 0.  1.
         23    2    1    2    0    0  0.00000000000E+00  0.00000000000E+00  0.71054273576E-14  0.91188000000E+02  0.91188000000E+02 0.  0.
    9900012    2    3    3    0    0  0.12675692774E+02 -0.18539839251E+02  0.39047594980E+02  0.46142317627E+02  0.99999987736E+01 0.  0.
        -12    1    3    3    0    0 -0.12675692774E+02  0.18539839251E+02 -0.39047594980E+02  0.45045682373E+02  0.00000000000E+00 0.  1.
         11    1    4    4    0    0  0.86349596781E+01 -0.89180044801E+01  0.15586369021E+02  0.19925567296E+02  0.51100000000E-03 0.  1.
        -11    1    4    4    0    0  0.49618773946E+01 -0.88564057960E+01  0.22489178132E+02  0.24674263601E+02  0.51100000000E-03 0. -1.
        -12    1    4    4    0    0 -0.92114429880E+00 -0.76542897448E+00  0.97204782696E+00  0.15424867300E+01  0.00000000000E+00 0.  1.
</event>
<event>
 8    1  0.2882335E-009  0.9118800E+02  0.7816164E-02  0.1184000E+00
        -11   -1    0    0    0    0  0.00000000000E+00  0.00000000000E+00  0.45593999997E+02  0.45594000000E+02  0.51100000000E-03 0. -1.
         11   -1    0    0    0    0 -0.00000000000E+00 -0.00000000000E+00 -0.45593999997E+02  0.45594000000E+02  0.51100000000E-03 0.  1.
         23    2    1    2    0    0 -0.71054273576E-14  0.00000000000E+00 -0.35527136788E-14  0.91188000000E+02  0.91188000000E+02 0.  0.
    9900012    2    3    3    0    0 -0.35336501126E+02  0.11953739621E+02  0.25249820632E+02  0.46142316026E+02  0.99999841750E+01 0.  0.
        -12    1    3    3    0    0  0.35336501126E+02 -0.11953739621E+02 -0.25249820632E+02  0.45045683974E+02  0.00000000000E+00 0.  1.
         11    1    4    4    0    0 -0.17083793297E+02  0.10620890846E+02  0.13682982026E+02  0.24328652103E+02  0.51100000000E-03 0. -1.
        -11    1    4    4    0    0 -0.11012642226E+02  0.10937685057E+01  0.54670746409E+01  0.12343562035E+02  0.51100000000E-03 0.  1.
         12    1    4    4    0    0 -0.72400656036E+01  0.23908026935E+00  0.60997639655E+01  0.94701018872E+01  0.00000000000E+00 0. -1.
</event>
<event>
 8    1  0.2882335E-009  0.9118800E+02  0.7816164E-02  0.1184000E+00
        -11   -1    0    0    0    0  0.00000000000E+00  0.00000000000E+00  0.45593999997E+02  0.45594000000E+02  0.51100000000E-03 0. -1.
         11   -1    0    0    0    0 -0.00000000000E+00 -0.00000000000E+00 -0.45593999997E+02  0.45594000000E+02  0.51100000000E-03 0.  1.
         23    2    1    2    0    0  0.00000000000E+00  0.35527136788E-14  0.00000000000E+00  0.91188000000E+02  0.91188000000E+02 0.  0.
    9900012    2    3    3    0    0  0.21841043376E+02  0.31612754573E+02 -0.23509914811E+02  0.46142317389E+02  0.99999966107E+01 0.  0.
         12    1    3    3    0    0 -0.21841043376E+02 -0.31612754573E+02  0.23509914811E+02  0.45045682611E+02  0.00000000000E+00 0. -1.
         11    1    4    4    0    0  0.10402893539E+02  0.15877211094E+02 -0.93515414495E+01  0.21160277736E+02  0.51100000000E-03 0.  1.
        -11    1    4    4    0    0  0.47060227281E+01  0.11980804326E+02 -0.90338395747E+01  0.15725666279E+02  0.51100000000E-03 0. -1.
         12    1    4    4    0    0  0.67321271082E+01  0.37547391533E+01 -0.51245337864E+01  0.92563733739E+01  0.00000000000E+00 0. -1.
</event>
<event>
 8    1  0.2882335E-009  0.9118800E+02  0.7816164E-02  0.1184000E+00
        -11   -1    0    0    0    0  0.00000000000E+00  0.00000000000E+00  0.45593999997E+02  0.45594000000E+02  0.51100000000E-03 0. -1.
         11   -1    0    0    0    0 -0.00000000000E+00 -0.00000000000E+00 -0.45593999997E+02  0.45594000000E+02  0.51100000000E-03 0.  1.
         23    2    1    2    0    0 -0.17763568394E-14  0.00000000000E+00  0.00000000000E+00  0.91188000000E+02  0.91188000000E+02 0.  0.
    9900012    2    3    3    0    0  0.84014473378E+01  0.60581105532E+01  0.43838663731E+02  0.46142318092E+02  0.10000003016E+02 0.  0.
        -12    1    3    3    0    0 -0.84014473378E+01 -0.60581105532E+01 -0.43838663731E+02  0.45045681908E+02  0.00000000000E+00 0.  1.
         11    1    4    4    0    0  0.33490437658E+01  0.20433783485E+01  0.98914225910E+01  0.10641039909E+02  0.51100000000E-03 0. -1.
        -11    1    4    4    0    0  0.44989829853E+01 -0.10323821721E+01  0.98910753134E+01  0.10915128582E+02  0.51100000000E-03 0.  1.
        -12    1    4    4    0    0  0.55342058668E+00  0.50471143767E+01  0.24056165827E+02  0.24586149600E+02  0.00000000000E+00 0.  1.
</event>
<event>
 8    1  0.2882335E-009  0.9118800E+02  0.7816164E-02  0.1184000E+00
        -11   -1    0    0    0    0  0.00000000000E+00  0.00000000000E+00  0.45593999997E+02  0.45594000000E+02  0.51100000000E-03 0. -1.
         11   -1    0    0    0    0 -0.00000000000E+00 -0.00000000000E+00 -0.45593999997E+02  0.45594000000E+02  0.51100000000E-03 0.  1.
         23    2    1    2    0    0  0.35527136788E-14 -0.35527136788E-14  0.71054273576E-14  0.91188000000E+02  0.91188000000E+02 0.  0.
    9900012    2    3    3    0    0  0.18949772053E+02 -0.16946468524E+02  0.37186506999E+02  0.46142323636E+02  0.10000053572E+02 0.  0.
        -12    1    3    3    0    0 -0.18949772053E+02  0.16946468524E+02 -0.37186506999E+02  0.45045676364E+02  0.00000000000E+00 0.  1.
         11    1    4    4    0    0  0.47500298259E+01 -0.38127100874E+01  0.13639026889E+02  0.14937288787E+02  0.51100000000E-03 0. -1.
        -11    1    4    4    0    0  0.67003097789E+01 -0.10524267037E+02  0.15533042377E+02  0.19923095983E+02  0.51100000000E-03 0.  1.
        -12    1    4    4    0    0  0.74994324481E+01 -0.26094913999E+01  0.80144377331E+01  0.11281938867E+02  0.00000000000E+00 0.  1.
</event>
<event>
 8    1  0.2882335E-009  0.9118800E+02  0.7816164E-02  0.1184000E+00
        -11   -1    0    0    0    0  0.00000000000E+00  0.00000000000E+00  0.45593999997E+02  0.45594000000E+02  0.51100000000E-03 0. -1.
         11   -1    0    0    0    0 -0.00000000000E+00 -0.00000000000E+00 -0.45593999997E+02  0.45594000000E+02  0.51100000000E-03 0.  1.
         23    2    1    2    0    0  0.00000000000E+00  0.00000000000E+00 -0.71054273576E-14  0.91188000000E+02  0.91188000000E+02 0.  0.
    9900012    2    3    3    0    0 -0.44578404390E+01 -0.37221568247E+02  0.24975905472E+02  0.46142319427E+02  0.10000015189E+02 0.  0.
        -12    1    3    3    0    0  0.44578404390E+01  0.37221568247E+02 -0.24975905472E+02  0.45045680573E+02  0.00000000000E+00 0.  1.
         11    1    4    4    0    0 -0.53697408701E+01 -0.36397718860E+02  0.22372645982E+02  0.43059997024E+02  0.51100000000E-03 0. -1.
        -11    1    4    4    0    0  0.72570027292E-01 -0.50508827030E+00  0.25947099948E+00  0.57245613836E+00  0.51100000000E-03 0.  1.
         12    1    4    4    0    0  0.83933040372E+00 -0.31876111704E+00  0.23437884909E+01  0.25098662646E+01  0.00000000000E+00 0. -1.
</event>
<event>
 8    1  0.2882335E-009  0.9118800E+02  0.7816164E-02  0.1184000E+00
        -11   -1    0    0    0    0  0.00000000000E+00  0.00000000000E+00  0.45593999997E+02  0.45594000000E+02  0.51100000000E-03 0. -1.
         11   -1    0    0    0    0 -0.00000000000E+00 -0.00000000000E+00 -0.45593999997E+02  0.45594000000E+02  0.51100000000E-03 0.  1.
         23    2    1    2    0    0  0.17763568394E-14  0.71054273576E-14  0.00000000000E+00  0.91188000000E+02  0.91188000000E+02 0.  0.
    9900012    2    3    3    0    0 -0.15666813983E+02 -0.34928157883E+02 -0.23742120933E+02  0.46142316746E+02  0.99999907390E+01 0.  0.
         12    1    3    3    0    0  0.15666813983E+02  0.34928157883E+02  0.23742120933E+02  0.45045683254E+02  0.00000000000E+00 0. -1.
         11    1    4    4    0    0 -0.12862670178E+01 -0.61156440798E+01 -0.17046461253E+01  0.64777622699E+01  0.51100000000E-03 0. -1.
        -11    1    4    4    0    0 -0.61277681178E+01 -0.19893540795E+02 -0.14425933448E+02  0.25326074776E+02  0.51100000000E-03 0.  1.
        -12    1    4    4    0    0 -0.82527788469E+01 -0.89189730084E+01 -0.76115413598E+01  0.14338479699E+02  0.00000000000E+00 0.  1.
</event>
<event>
 8    1  0.2882335E-009  0.9118800E+02  0.7816164E-02  0.1184000E+00
        -11   -1    0    0    0    0  0.00000000000E+00  0.00000000000E+00  0.45593999997E+02  0.45594000000E+02  0.51100000000E-03 0. -1.
         11   -1    0    0    0    0 -0.00000000000E+00 -0.00000000000E+00 -0.45593999997E+02  0.45594000000E+02  0.51100000000E-03 0.  1.
         23    2    1    2    0    0  0.35527136788E-14  0.35527136788E-14  0.00000000000E+00  0.91188000000E+02  0.91188000000E+02 0.  0.
    9900012    2    3    3    0    0  0.19628043711E+02  0.17613076375E+02  0.36518939010E+02  0.46142318012E+02  0.10000002292E+02 0.  0.
        -12    1    3    3    0    0 -0.19628043711E+02 -0.17613076375E+02 -0.36518939010E+02  0.45045681988E+02  0.00000000000E+00 0.  1.
         11    1    4    4    0    0  0.64273718090E+01  0.15199216214E+01  0.85699704494E+01  0.10819688714E+02  0.51100000000E-03 0. -1.
        -11    1    4    4    0    0  0.12356394666E+02  0.14784138300E+02  0.22339586909E+02  0.29500989440E+02  0.51100000000E-03 0.  1.
        -12    1    4    4    0    0  0.84427723634E+00  0.13090164533E+01  0.56093816515E+01  0.58216398582E+01  0.00000000000E+00 0.  1.
</event>
<event>
 8    1  0.2882335E-009  0.9118800E+02  0.7816164E-02  0.1184000E+00
        -11   -1    0    0    0    0  0.00000000000E+00  0.00000000000E+00  0.45593999997E+02  0.45594000000E+02  0.51100000000E-03 0.  1.
         11   -1    0    0    0    0 -0.00000000000E+00 -0.00000000000E+00 -0.45593999997E+02  0.45594000000E+02  0.51100000000E-03 0. -1.
         23    2    1    2    0    0  0.00000000000E+00  0.00000000000E+00  0.22204460493E-15  0.91188000000E+02  0.91188000000E+02 0.  0.
    9900012    2    3    3    0    0 -0.93940241091E+01  0.44027302338E+02  0.15692105936E+01  0.46142318053E+02  0.10000002665E+02 0.  0.
        -12    1    3    3    0    0  0.93940241091E+01 -0.44027302338E+02 -0.15692105936E+01  0.45045681947E+02  0.00000000000E+00 0.  1.
         11    1    4    4    0    0 -0.32540684308E+01  0.10497140780E+02 -0.14350999682E+01  0.11083250340E+02  0.51100000000E-03 0. -1.
        -11    1    4    4    0    0  0.61896652483E+00  0.62246454825E+01 -0.18290047495E+01  0.65172532233E+01  0.51100000000E-03 0.  1.
         12    1    4    4    0    0 -0.67589222032E+01  0.27305516076E+02  0.48333153113E+01  0.28541814490E+02  0.00000000000E+00 0. -1.
</event>
<event>
 8    1  0.2882335E-009  0.9118800E+02  0.7816164E-02  0.1184000E+00
        -11   -1    0    0    0    0  0.00000000000E+00  0.00000000000E+00  0.45593999997E+02  0.45594000000E+02  0.51100000000E-03 0. -1.
         11   -1    0    0    0    0 -0.00000000000E+00 -0.00000000000E+00 -0.45593999997E+02  0.45594000000E+02  0.51100000000E-03 0.  1.
         23    2    1    2    0    0  0.00000000000E+00 -0.71054273576E-14 -0.35527136788E-14  0.91188000000E+02  0.91188000000E+02 0.  0.
    9900012    2    3    3    0    0 -0.23449417204E+02 -0.22108075222E+02 -0.31471757256E+02  0.46142315834E+02  0.99999824226E+01 0.  0.
         12    1    3    3    0    0  0.23449417204E+02  0.22108075222E+02  0.31471757256E+02  0.45045684166E+02  0.00000000000E+00 0. -1.
         11    1    4    4    0    0 -0.17390181646E+02 -0.14789525672E+02 -0.15743833870E+02  0.27731152022E+02  0.51100000000E-03 0. -1.
        -11    1    4    4    0    0 -0.59138635962E+01 -0.67374279694E+01 -0.14905761545E+02  0.17393919793E+02  0.51100000000E-03 0.  1.
         12    1    4    4    0    0 -0.14537196129E+00 -0.58112158040E+00 -0.82216184113E+00  0.10172440176E+01  0.00000000000E+00 0. -1.
</event>
<event>
 8    1  0.2882335E-009  0.9118800E+02  0.7816164E-02  0.1184000E+00
        -11   -1    0    0    0    0  0.00000000000E+00  0.00000000000E+00  0.45593999997E+02  0.45594000000E+02  0.51100000000E-03 0. -1.
         11   -1    0    0    0    0 -0.00000000000E+00 -0.00000000000E+00 -0.45593999997E+02  0.45594000000E+02  0.51100000000E-03 0.  1.
         23    2    1    2    0    0  0.00000000000E+00  0.00000000000E+00 -0.71054273576E-14  0.91188000000E+02  0.91188000000E+02 0.  0.
    9900012    2    3    3    0    0 -0.27900123353E+01 -0.17061554322E+02  0.41596065695E+02  0.46142317787E+02  0.10000000238E+02 0.  0.
        -12    1    3    3    0    0  0.27900123353E+01  0.17061554322E+02 -0.41596065695E+02  0.45045682213E+02  0.00000000000E+00 0.  1.
         11    1    4    4    0    0 -0.15757669268E+01 -0.22215384129E+01  0.13071190544E+02  0.13351939815E+02  0.51100000000E-03 0. -1.
        -11    1    4    4    0    0  0.11087380592E+01 -0.12902435982E+02  0.24924214266E+02  0.28087695018E+02  0.51100000000E-03 0.  1.
         12    1    4    4    0    0 -0.23229834677E+01 -0.19375799262E+01  0.36006608855E+01  0.47026829549E+01  0.00000000000E+00 0. -1.
</event>
<event>
 8    1  0.2882335E-009  0.9118800E+02  0.7816164E-02  0.1184000E+00
        -11   -1    0    0    0    0  0.00000000000E+00  0.00000000000E+00  0.45593999997E+02  0.45594000000E+02  0.51100000000E-03 0. -1.
         11   -1    0    0    0    0 -0.00000000000E+00 -0.00000000000E+00 -0.45593999997E+02  0.45594000000E+02  0.51100000000E-03 0.  1.
         23    2    1    2    0    0  0.00000000000E+00  0.00000000000E+00  0.00000000000E+00  0.91188000000E+02  0.91188000000E+02 0.  0.
    9900012    2    3    3    0    0  0.69774451082E+01 -0.25017855807E+02  0.36804016934E+02  0.46142317500E+02  0.99999976184E+01 0.  0.
        -12    1    3    3    0    0 -0.69774451082E+01  0.25017855807E+02 -0.36804016934E+02  0.45045682500E+02  0.00000000000E+00 0.  1.
         11    1    4    4    0    0  0.32448938313E+01 -0.93184050213E+01  0.16472169662E+02  0.19201416139E+02  0.51100000000E-03 0. -1.
        -11    1    4    4    0    0 -0.16025022326E+01 -0.44862261637E+01  0.30361478016E+01  0.56491089856E+01  0.51100000000E-03 0.  1.
        -12    1    4    4    0    0  0.53350535094E+01 -0.11213224622E+02  0.17295699471E+02  0.21291792375E+02  0.00000000000E+00 0.  1.
</event>
<event>
 8    1  0.2882335E-009  0.9118800E+02  0.7816164E-02  0.1184000E+00
        -11   -1    0    0    0    0  0.00000000000E+00  0.00000000000E+00  0.45593999997E+02  0.45594000000E+02  0.51100000000E-03 0. -1.
         11   -1    0    0    0    0 -0.00000000000E+00 -0.00000000000E+00 -0.45593999997E+02  0.45594000000E+02  0.51100000000E-03 0.  1.
         23    2    1    2    0    0  0.00000000000E+00  0.00000000000E+00  0.00000000000E+00  0.91188000000E+02  0.91188000000E+02 0.  0.
    9900012    2    3    3    0    0  0.37655653843E+02  0.30543952871E+01  0.24532349212E+02  0.46142314804E+02  0.99999730305E+01 0.  0.
        -12    1    3    3    0    0 -0.37655653843E+02 -0.30543952871E+01 -0.24532349212E+02  0.45045685196E+02  0.00000000000E+00 0.  1.
         11    1    4    4    0    0  0.15813804068E+01  0.83485749043E+00  0.30160592702E+01  0.35063321011E+01  0.51100000000E-03 0. -1.
        -11    1    4    4    0    0  0.11227746594E+02 -0.43475949083E+00  0.32925087740E+01  0.11708626037E+02  0.51100000000E-03 0.  1.
         12    1    4    4    0    0  0.24846526842E+02  0.26542972875E+01  0.18223781168E+02  0.30927356665E+02  0.00000000000E+00 0. -1.
</event>
<event>
 8    1  0.2882335E-009  0.9118800E+02  0.7816164E-02  0.1184000E+00
        -11   -1    0    0    0    0  0.00000000000E+00  0.00000000000E+00  0.45593999997E+02  0.45594000000E+02  0.51100000000E-03 0. -1.
         11   -1    0    0    0    0 -0.00000000000E+00 -0.00000000000E+00 -0.45593999997E+02  0.45594000000E+02  0.51100000000E-03 0.  1.
         23    2    1    2    0    0  0.00000000000E+00  0.00000000000E+00  0.00000000000E+00  0.91188000000E+02  0.91188000000E+02 0.  0.
    9900012    2    3    3    0    0  0.59190237300E+01  0.13969519142E+01  0.44633253055E+02  0.46142316580E+02  0.99999892257E+01 0.  0.
        -12    1    3    3    0    0 -0.59190237300E+01 -0.13969519142E+01 -0.44633253055E+02  0.45045683420E+02  0.00000000000E+00 0.  1.
         11    1    4    4    0    0  0.52616749170E+01 -0.10030896452E+01  0.27684626460E+02  0.28198048767E+02  0.51100000000E-03 0. -1.
        -11    1    4    4    0    0  0.75369888205E+00  0.68786999448E+00  0.11880015727E+00  0.10272978500E+01  0.51100000000E-03 0.  1.
         12    1    4    4    0    0 -0.96350069115E-01  0.17121715649E+01  0.16829826437E+02  0.16916969962E+02  0.00000000000E+00 0. -1.
</event>
<event>
 8    1  0.2882335E-009  0.9118800E+02  0.7816164E-02  0.1184000E+00
        -11   -1    0    0    0    0  0.00000000000E+00  0.00000000000E+00  0.45593999997E+02  0.45594000000E+02  0.51100000000E-03 0. -1.
         11   -1    0    0    0    0 -0.00000000000E+00 -0.00000000000E+00 -0.45593999997E+02  0.45594000000E+02  0.51100000000E-03 0.  1.
         23    2    1    2    0    0  0.88817841970E-15  0.00000000000E+00  0.00000000000E+00  0.91188000000E+02  0.91188000000E+02 0.  0.
    9900012    2    3    3    0    0  0.52621066505E+01 -0.39584383561E+02 -0.20844670525E+02  0.46142317880E+02  0.10000001086E+02 0.  0.
         12    1    3    3    0    0 -0.52621066505E+01  0.39584383561E+02  0.20844670525E+02  0.45045682120E+02  0.00000000000E+00 0. -1.
         11    1    4    4    0    0 -0.46943644601E+00 -0.69971455411E+01 -0.40674693775E+01  0.81070786167E+01  0.51100000000E-03 0. -1.
        -11    1    4    4    0    0  0.74608938290E+01 -0.22332796929E+02 -0.13449441102E+02  0.27116530412E+02  0.51100000000E-03 0.  1.
        -12    1    4    4    0    0 -0.17293507325E+01 -0.10254441092E+02 -0.33277600459E+01  0.10918708851E+02  0.00000000000E+00 0.  1.
</event>
<event>
 8    1  0.2882335E-009  0.9118800E+02  0.7816164E-02  0.1184000E+00
        -11   -1    0    0    0    0  0.00000000000E+00  0.00000000000E+00  0.45593999997E+02  0.45594000000E+02  0.51100000000E-03 0. -1.
         11   -1    0    0    0    0 -0.00000000000E+00 -0.00000000000E+00 -0.45593999997E+02  0.45594000000E+02  0.51100000000E-03 0.  1.
         23    2    1    2    0    0  0.11102230246E-15 -0.22204460493E-15  0.00000000000E+00  0.91188000000E+02  0.91188000000E+02 0.  0.
    9900012    2    3    3    0    0 -0.26876758339E+00 -0.69664132622E+00  0.45039492551E+02  0.46142318360E+02  0.10000005459E+02 0.  0.
        -12    1    3    3    0    0  0.26876758339E+00  0.69664132622E+00 -0.45039492551E+02  0.45045681640E+02  0.00000000000E+00 0.  1.
         11    1    4    4    0    0  0.10269377955E+01 -0.17747378826E+01  0.73512874934E+01  0.76318886168E+01  0.51100000000E-03 0.  1.
        -11    1    4    4    0    0 -0.41379550710E+01 -0.34873385034E+00  0.13794071903E+02  0.14405579037E+02  0.51100000000E-03 0. -1.
        -12    1    4    4    0    0  0.28422496921E+01  0.14268304067E+01  0.23894133155E+02  0.24104850706E+02  0.00000000000E+00 0.  1.
</event>
<event>
 8    1  0.2882335E-009  0.9118800E+02  0.7816164E-02  0.1184000E+00
        -11   -1    0    0    0    0  0.00000000000E+00  0.00000000000E+00  0.45593999997E+02  0.45594000000E+02  0.51100000000E-03 0.  1.
         11   -1    0    0    0    0 -0.00000000000E+00 -0.00000000000E+00 -0.45593999997E+02  0.45594000000E+02  0.51100000000E-03 0. -1.
         23    2    1    2    0    0  0.00000000000E+00  0.00000000000E+00  0.00000000000E+00  0.91188000000E+02  0.91188000000E+02 0.  0.
    9900012    2    3    3    0    0 -0.58447490565E+01 -0.44592316545E+02  0.25451368782E+01  0.46142317542E+02  0.99999980036E+01 0.  0.
        -12    1    3    3    0    0  0.58447490565E+01  0.44592316545E+02 -0.25451368782E+01  0.45045682458E+02  0.00000000000E+00 0.  1.
         11    1    4    4    0    0 -0.46763394036E+00 -0.60324394421E+01  0.29194815334E-01  0.60506082110E+01  0.51100000000E-03 0. -1.
        -11    1    4    4    0    0 -0.31086339853E+01 -0.23717148504E+02 -0.29746085776E+01  0.24104253460E+02  0.51100000000E-03 0.  1.
        -12    1    4    4    0    0 -0.22684811309E+01 -0.14842728598E+02  0.54905506405E+01  0.15987455871E+02  0.00000000000E+00 0.  1.
</event>
<event>
 8    1  0.2882335E-009  0.9118800E+02  0.7816164E-02  0.1184000E+00
        -11   -1    0    0    0    0  0.00000000000E+00  0.00000000000E+00  0.45593999997E+02  0.45594000000E+02  0.51100000000E-03 0. -1.
         11   -1    0    0    0    0 -0.00000000000E+00 -0.00000000000E+00 -0.45593999997E+02  0.45594000000E+02  0.51100000000E-03 0.  1.
         23    2    1    2    0    0 -0.35527136788E-14  0.00000000000E+00 -0.35527136788E-14  0.91188000000E+02  0.91188000000E+02 0.  0.
    9900012    2    3    3    0    0  0.22661460076E+02  0.23747215727E+02  0.30848686182E+02  0.46142318001E+02  0.10000002189E+02 0.  0.
        -12    1    3    3    0    0 -0.22661460076E+02 -0.23747215727E+02 -0.30848686182E+02  0.45045681999E+02  0.00000000000E+00 0.  1.
         11    1    4    4    0    0  0.74450096083E+01  0.12085008311E+02  0.18342559223E+02  0.23193211788E+02  0.51100000000E-03 0. -1.
        -11    1    4    4    0    0  0.13132916328E+02  0.96585399609E+01  0.11188737549E+02  0.19772423565E+02  0.51100000000E-03 0.  1.
        -12    1    4    4    0    0  0.20835341404E+01  0.20036674556E+01  0.13173894098E+01  0.31766826476E+01  0.00000000000E+00 0.  1.
</event>
<event>
 8    1  0.2882335E-009  0.9118800E+02  0.7816164E-02  0.1184000E+00
        -11   -1    0    0    0    0  0.00000000000E+00  0.00000000000E+00  0.45593999997E+02  0.45594000000E+02  0.51100000000E-03 0.  1.
         11   -1    0    0    0    0 -0.00000000000E+00 -0.00000000000E+00 -0.45593999997E+02  0.45594000000E+02  0.51100000000E-03 0. -1.
         23    2    1    2    0    0  0.00000000000E+00  0.00000000000E+00  0.00000000000E+00  0.91188000000E+02  0.91188000000E+02 0.  0.
    9900012    2    3    3    0    0 -0.36551354450E+02  0.25743250703E+02  0.55133467240E+01  0.46142318065E+02  0.10000002772E+02 0.  0.
         12    1    3    3    0    0  0.36551354450E+02 -0.25743250703E+02 -0.55133467240E+01  0.45045681935E+02  0.00000000000E+00 0. -1.
         11    1    4    4    0    0 -0.18561230059E+02  0.12980967758E+02 -0.16014053859E+01  0.22706591217E+02  0.51100000000E-03 0. -1.
        -11    1    4    4    0    0 -0.13754065449E+02  0.10229384792E+02  0.69529399445E+01  0.18497513447E+02  0.51100000000E-03 0.  1.
        -12    1    4    4    0    0 -0.42360589422E+01  0.25328981533E+01  0.16181216542E+00  0.49382134010E+01  0.00000000000E+00 0.  1.
</event>
<event>
 8    1  0.2882335E-009  0.9118800E+02  0.7816164E-02  0.1184000E+00
        -11   -1    0    0    0    0  0.00000000000E+00  0.00000000000E+00  0.45593999997E+02  0.45594000000E+02  0.51100000000E-03 0. -1.
         11   -1    0    0    0    0 -0.00000000000E+00 -0.00000000000E+00 -0.45593999997E+02  0.45594000000E+02  0.51100000000E-03 0.  1.
         23    2    1    2    0    0  0.00000000000E+00  0.00000000000E+00  0.35527136788E-14  0.91188000000E+02  0.91188000000E+02 0.  0.
    9900012    2    3    3    0    0 -0.36620106078E+02  0.33936284506E+01 -0.26010877835E+02  0.46142304878E+02  0.99998825253E+01 0.  0.
         12    1    3    3    0    0  0.36620106078E+02 -0.33936284506E+01  0.26010877835E+02  0.45045695122E+02  0.00000000000E+00 0. -1.
         11    1    4    4    0    0 -0.20884411100E+02  0.44686973132E+01 -0.10844311975E+02  0.23952598714E+02  0.51100000000E-03 0. -1.
        -11    1    4    4    0    0 -0.12194888520E+02 -0.17132121627E+01 -0.98460400217E+01  0.15766892728E+02  0.51100000000E-03 0.  1.
         12    1    4    4    0    0 -0.35408064585E+01  0.63814330010E+00 -0.53205258386E+01  0.64228134371E+01  0.00000000000E+00 0. -1.
</event>
<event>
 8    1  0.2882335E-009  0.9118800E+02  0.7816164E-02  0.1184000E+00
        -11   -1    0    0    0    0  0.00000000000E+00  0.00000000000E+00  0.45593999997E+02  0.45594000000E+02  0.51100000000E-03 0.  1.
         11   -1    0    0    0    0 -0.00000000000E+00 -0.00000000000E+00 -0.45593999997E+02  0.45594000000E+02  0.51100000000E-03 0. -1.
         23    2    1    2    0    0  0.17763568394E-14  0.00000000000E+00  0.00000000000E+00  0.91188000000E+02  0.91188000000E+02 0.  0.
    9900012    2    3    3    0    0 -0.13346458844E+02  0.42667991152E+02 -0.55161639691E+01  0.46142317659E+02  0.99999990693E+01 0.  0.
        -12    1    3    3    0    0  0.13346458844E+02 -0.42667991152E+02  0.55161639691E+01  0.45045682341E+02  0.00000000000E+00 0.  1.
         11    1    4    4    0    0 -0.63804313798E+01  0.21499099155E+02 -0.44234765195E+01  0.22858003278E+02  0.51100000000E-03 0. -1.
        -11    1    4    4    0    0 -0.17773256474E+01  0.55341381279E+01  0.26549044149E+01  0.63901556310E+01  0.51100000000E-03 0.  1.
        -12    1    4    4    0    0 -0.51887018168E+01  0.15634753869E+02 -0.37475918645E+01  0.16894158750E+02  0.00000000000E+00 0.  1.
</event>
<event>
 8    1  0.2882335E-009  0.9118800E+02  0.7816164E-02  0.1184000E+00
        -11   -1    0    0    0    0  0.00000000000E+00  0.00000000000E+00  0.45593999997E+02  0.45594000000E+02  0.51100000000E-03 0. -1.
         11   -1    0    0    0    0 -0.00000000000E+00 -0.00000000000E+00 -0.45593999997E+02  0.45594000000E+02  0.51100000000E-03 0.  1.
         23    2    1    2    0    0  0.00000000000E+00  0.00000000000E+00  0.00000000000E+00  0.91188000000E+02  0.91188000000E+02 0.  0.
    9900012    2    3    3    0    0 -0.17828310511E+02  0.40773654320E+02  0.69838578717E+01  0.46142314157E+02  0.99999671327E+01 0.  0.
        -12    1    3    3    0    0  0.17828310511E+02 -0.40773654320E+02 -0.69838578717E+01  0.45045685843E+02  0.00000000000E+00 0.  1.
         11    1    4    4    0    0 -0.89218138381E+01  0.11506691258E+02  0.10117952915E+00  0.14560664251E+02  0.51100000000E-03 0.  1.
        -11    1    4    4    0    0 -0.50785845704E+01  0.20268999720E+02  0.32319738424E+01  0.21144030507E+02  0.51100000000E-03 0. -1.
        -12    1    4    4    0    0 -0.38279121026E+01  0.89979633416E+01  0.36507045002E+01  0.10437619399E+02  0.00000000000E+00 0.  1.
</event>
<event>
 8    1  0.2882335E-009  0.9118800E+02  0.7816164E-02  0.1184000E+00
        -11   -1    0    0    0    0  0.00000000000E+00  0.00000000000E+00  0.45593999997E+02  0.45594000000E+02  0.51100000000E-03 0. -1.
         11   -1    0    0    0    0 -0.00000000000E+00 -0.00000000000E+00 -0.45593999997E+02  0.45594000000E+02  0.51100000000E-03 0.  1.
         23    2    1    2    0    0  0.00000000000E+00 -0.22204460493E-15  0.00000000000E+00  0.91188000000E+02  0.91188000000E+02 0.  0.
    9900012    2    3    3    0    0 -0.39634658924E+02 -0.14308862902E+01  0.21357899243E+02  0.46142317813E+02  0.10000000474E+02 0.  0.
        -12    1    3    3    0    0  0.39634658924E+02  0.14308862902E+01 -0.21357899243E+02  0.45045682187E+02  0.00000000000E+00 0.  1.
         11    1    4    4    0    0 -0.18987509980E+02 -0.86943605279E+00  0.11049344474E+02  0.21985665054E+02  0.51100000000E-03 0. -1.
        -11    1    4    4    0    0 -0.10424284333E+02  0.15500286970E+01  0.18040580925E+01  0.10692189611E+02  0.51100000000E-03 0.  1.
        -12    1    4    4    0    0 -0.10222864611E+02 -0.21114789344E+01  0.85044966762E+01  0.13464463148E+02  0.00000000000E+00 0.  1.
</event>
<event>
 8    1  0.2882335E-009  0.9118800E+02  0.7816164E-02  0.1184000E+00
        -11   -1    0    0    0    0  0.00000000000E+00  0.00000000000E+00  0.45593999997E+02  0.45594000000E+02  0.51100000000E-03 0. -1.
         11   -1    0    0    0    0 -0.00000000000E+00 -0.00000000000E+00 -0.45593999997E+02  0.45594000000E+02  0.51100000000E-03 0.  1.
         23    2    1    2    0    0  0.22204460493E-15  0.00000000000E+00 -0.71054273576E-14  0.91188000000E+02  0.91188000000E+02 0.  0.
    9900012    2    3    3    0    0  0.13900285809E+01  0.15914888442E+02 -0.42117664897E+02  0.46142317077E+02  0.99999937648E+01 0.  0.
         12    1    3    3    0    0 -0.13900285809E+01 -0.15914888442E+02  0.42117664897E+02  0.45045682923E+02  0.00000000000E+00 0. -1.
         11    1    4    4    0    0  0.23267819437E+01  0.10198263625E+02 -0.17867924153E+02  0.20704618059E+02  0.51100000000E-03 0. -1.
        -11    1    4    4    0    0 -0.13627257717E+01  0.47543677335E+01 -0.10070353940E+02  0.11219316504E+02  0.51100000000E-03 0.  1.
         12    1    4    4    0    0  0.42597240899E+00  0.96225708375E+00 -0.14179386803E+02  0.14218382514E+02  0.00000000000E+00 0. -1.
</event>
<event>
 8    1  0.2882335E-009  0.9118800E+02  0.7816164E-02  0.1184000E+00
        -11   -1    0    0    0    0  0.00000000000E+00  0.00000000000E+00  0.45593999997E+02  0.45594000000E+02  0.51100000000E-03 0. -1.
         11   -1    0    0    0    0 -0.00000000000E+00 -0.00000000000E+00 -0.45593999997E+02  0.45594000000E+02  0.51100000000E-03 0.  1.
         23    2    1    2    0    0  0.00000000000E+00 -0.17763568394E-14  0.00000000000E+00  0.91188000000E+02  0.91188000000E+02 0.  0.
    9900012    2    3    3    0    0  0.28663444628E+02  0.12961872957E+02  0.32241437058E+02  0.46142317942E+02  0.10000001651E+02 0.  0.
        -12    1    3    3    0    0 -0.28663444628E+02 -0.12961872957E+02 -0.32241437058E+02  0.45045682058E+02  0.00000000000E+00 0.  1.
         11    1    4    4    0    0  0.14925748514E+02  0.30460797706E+01  0.13542526334E+02  0.20382752278E+02  0.51100000000E-03 0.  1.
        -11    1    4    4    0    0 -0.15864618529E+00  0.16314075698E+00 -0.23625789939E+00  0.32802678982E+00  0.51100000000E-03 0. -1.
         12    1    4    4    0    0  0.13896342299E+02  0.97526524297E+01  0.18935168623E+02  0.25431538874E+02  0.00000000000E+00 0. -1.
</event>
<event>
 8    1  0.2882335E-009  0.9118800E+02  0.7816164E-02  0.1184000E+00
        -11   -1    0    0    0    0  0.00000000000E+00  0.00000000000E+00  0.45593999997E+02  0.45594000000E+02  0.51100000000E-03 0. -1.
         11   -1    0    0    0    0 -0.00000000000E+00 -0.00000000000E+00 -0.45593999997E+02  0.45594000000E+02  0.51100000000E-03 0.  1.
         23    2    1    2    0    0  0.00000000000E+00  0.00000000000E+00  0.00000000000E+00  0.91188000000E+02  0.91188000000E+02 0.  0.
    9900012    2    3    3    0    0  0.95072142324E+01  0.39677408279E+02 -0.19090040744E+02  0.46142317567E+02  0.99999982311E+01 0.  0.
         12    1    3    3    0    0 -0.95072142324E+01 -0.39677408279E+02  0.19090040744E+02  0.45045682433E+02  0.00000000000E+00 0. -1.
         11    1    4    4    0    0  0.24117349351E+01  0.15046106124E+02 -0.83382112182E+01  0.17370306315E+02  0.51100000000E-03 0. -1.
        -11    1    4    4    0    0  0.68251628824E+01  0.12467150707E+02 -0.36128430456E+01  0.14665105872E+02  0.51100000000E-03 0.  1.
        -12    1    4    4    0    0  0.27031641486E+00  0.12164151449E+02 -0.71389864802E+01  0.14106905380E+02  0.00000000000E+00 0.  1.
</event>
<event>
 8    1  0.2882335E-009  0.9118800E+02  0.7816164E-02  0.1184000E+00
        -11   -1    0    0    0    0  0.00000000000E+00  0.00000000000E+00  0.45593999997E+02  0.45594000000E+02  0.51100000000E-03 0. -1.
         11   -1    0    0    0    0 -0.00000000000E+00 -0.00000000000E+00 -0.45593999997E+02  0.45594000000E+02  0.51100000000E-03 0.  1.
         23    2    1    2    0    0 -0.44408920985E-15  0.71054273576E-14 -0.35527136788E-14  0.91188000000E+02  0.91188000000E+02 0.  0.
    9900012    2    3    3    0    0 -0.23418662239E+01  0.40348877808E+02 -0.19889626940E+02  0.46142317214E+02  0.99999950145E+01 0.  0.
         12    1    3    3    0    0  0.23418662239E+01 -0.40348877808E+02  0.19889626940E+02  0.45045682786E+02  0.00000000000E+00 0. -1.
         11    1    4    4    0    0 -0.47189403353E+01  0.14622333526E+02 -0.10294975999E+02  0.18495068714E+02  0.51100000000E-03 0. -1.
        -11    1    4    4    0    0  0.22632809864E+01  0.14292909518E+02 -0.47705524970E+01  0.15237055972E+02  0.51100000000E-03 0.  1.
         12    1    4    4    0    0  0.11379312502E+00  0.11433634764E+02 -0.48240984439E+01  0.12410192529E+02  0.00000000000E+00 0. -1.
</event>
<event>
 8    1  0.2882335E-009  0.9118800E+02  0.7816164E-02  0.1184000E+00
        -11   -1    0    0    0    0  0.00000000000E+00  0.00000000000E+00  0.45593999997E+02  0.45594000000E+02  0.51100000000E-03 0. -1.
         11   -1    0    0    0    0 -0.00000000000E+00 -0.00000000000E+00 -0.45593999997E+02  0.45594000000E+02  0.51100000000E-03 0.  1.
         23    2    1    2    0    0 -0.17763568394E-14  0.35527136788E-14  0.00000000000E+00  0.91188000000E+02  0.91188000000E+02 0.  0.
    9900012    2    3    3    0    0  0.89626053581E+01 -0.22750732609E+02 -0.37831064768E+02  0.46142316627E+02  0.99999896580E+01 0.  0.
         12    1    3    3    0    0 -0.89626053581E+01  0.22750732609E+02  0.37831064768E+02  0.45045683373E+02  0.00000000000E+00 0. -1.
         11    1    4    4    0    0  0.38034005715E+01 -0.14088669867E+02 -0.14717421827E+02  0.20725804689E+02  0.51100000000E-03 0. -1.
        -11    1    4    4    0    0  0.48486426529E+01 -0.72394242006E+01 -0.16663097724E+02  0.18803654547E+02  0.51100000000E-03 0.  1.
         12    1    4    4    0    0  0.31056213370E+00 -0.14226385413E+01 -0.64505452178E+01  0.66128573904E+01  0.00000000000E+00 0. -1.
</event>
<event>
 8    1  0.2882335E-009  0.9118800E+02  0.7816164E-02  0.1184000E+00
        -11   -1    0    0    0    0  0.00000000000E+00  0.00000000000E+00  0.45593999997E+02  0.45594000000E+02  0.51100000000E-03 0. -1.
         11   -1    0    0    0    0 -0.00000000000E+00 -0.00000000000E+00 -0.45593999997E+02  0.45594000000E+02  0.51100000000E-03 0.  1.
         23    2    1    2    0    0  0.00000000000E+00  0.00000000000E+00  0.00000000000E+00  0.91188000000E+02  0.91188000000E+02 0.  0.
    9900012    2    3    3    0    0 -0.26773988178E+02 -0.23811821126E+02  0.27299554802E+02  0.46142301418E+02  0.99998509728E+01 0.  0.
        -12    1    3    3    0    0  0.26773988178E+02  0.23811821126E+02 -0.27299554802E+02  0.45045698582E+02  0.00000000000E+00 0.  1.
         11    1    4    4    0    0 -0.74590706396E+01 -0.82539324015E+01  0.11460910137E+02  0.15972401082E+02  0.51100000000E-03 0. -1.
        -11    1    4    4    0    0 -0.26713456058E+00 -0.81569280850E+00 -0.56568332048E+00  0.10279657151E+01  0.51100000000E-03 0.  1.
         12    1    4    4    0    0 -0.19047782977E+02 -0.14742195916E+02  0.16404327986E+02  0.29141934621E+02  0.00000000000E+00 0. -1.
</event>
<event>
 8    1  0.2882335E-009  0.9118800E+02  0.7816164E-02  0.1184000E+00
        -11   -1    0    0    0    0  0.00000000000E+00  0.00000000000E+00  0.45593999997E+02  0.45594000000E+02  0.51100000000E-03 0. -1.
         11   -1    0    0    0    0 -0.00000000000E+00 -0.00000000000E+00 -0.45593999997E+02  0.45594000000E+02  0.51100000000E-03 0.  1.
         23    2    1    2    0    0  0.00000000000E+00 -0.22204460493E-15  0.00000000000E+00  0.91188000000E+02  0.91188000000E+02 0.  0.
    9900012    2    3    3    0    0  0.20344304025E+02  0.18860700313E+01  0.40145556961E+02  0.46142315300E+02  0.99999775549E+01 0.  0.
        -12    1    3    3    0    0 -0.20344304025E+02 -0.18860700313E+01 -0.40145556961E+02  0.45045684700E+02  0.00000000000E+00 0.  1.
         11    1    4    4    0    0  0.73528766649E+01 -0.28278541425E+01  0.14895606559E+02  0.16850538547E+02  0.51100000000E-03 0. -1.
        -11    1    4    4    0    0  0.22636711667E+01  0.32434728174E+01  0.80116734892E+01  0.89348327028E+01  0.51100000000E-03 0.  1.
         12    1    4    4    0    0  0.10727756194E+02  0.14704513564E+01  0.17238276913E+02  0.20356944050E+02  0.00000000000E+00 0. -1.
</event>
<event>
 8    1  0.2882335E-009  0.9118800E+02  0.7816164E-02  0.1184000E+00
        -11   -1    0    0    0    0  0.00000000000E+00  0.00000000000E+00  0.45593999997E+02  0.45594000000E+02  0.51100000000E-03 0. -1.
         11   -1    0    0    0    0 -0.00000000000E+00 -0.00000000000E+00 -0.45593999997E+02  0.45594000000E+02  0.51100000000E-03 0.  1.
         23    2    1    2    0    0  0.17763568394E-14  0.00000000000E+00  0.00000000000E+00  0.91188000000E+02  0.91188000000E+02 0.  0.
    9900012    2    3    3    0    0  0.14970328422E+02 -0.45291936163E+01 -0.42243214245E+02  0.46142317880E+02  0.10000001088E+02 0.  0.
         12    1    3    3    0    0 -0.14970328422E+02  0.45291936163E+01  0.42243214245E+02  0.45045682120E+02  0.00000000000E+00 0. -1.
         11    1    4    4    0    0  0.56883707842E+01  0.11424548923E+01 -0.14312604055E+02  0.15443879061E+02  0.51100000000E-03 0. -1.
        -11    1    4    4    0    0  0.38851487982E+01  0.37657319331E+00 -0.14454624219E+02  0.14972386253E+02  0.51100000000E-03 0.  1.
         12    1    4    4    0    0  0.53968088400E+01 -0.60482217019E+01 -0.13475985971E+02  0.15726052566E+02  0.00000000000E+00 0. -1.
</event>
<event>
 8    1  0.2882335E-009  0.9118800E+02  0.7816164E-02  0.1184000E+00
        -11   -1    0    0    0    0  0.00000000000E+00  0.00000000000E+00  0.45593999997E+02  0.45594000000E+02  0.51100000000E-03 0. -1.
         11   -1    0    0    0    0 -0.00000000000E+00 -0.00000000000E+00 -0.45593999997E+02  0.45594000000E+02  0.51100000000E-03 0.  1.
         23    2    1    2    0    0  0.00000000000E+00  0.00000000000E+00  0.00000000000E+00  0.91188000000E+02  0.91188000000E+02 0.  0.
    9900012    2    3    3    0    0  0.31815780224E+02  0.17970262120E+02 -0.26342723560E+02  0.46142320112E+02  0.10000021441E+02 0.  0.
         12    1    3    3    0    0 -0.31815780224E+02 -0.17970262120E+02  0.26342723560E+02  0.45045679888E+02  0.00000000000E+00 0. -1.
         11    1    4    4    0    0  0.41297899737E+01  0.68099332625E+01 -0.65403758813E+01  0.10305671894E+02  0.51100000000E-03 0. -1.
        -11    1    4    4    0    0  0.12181639348E+02  0.54637617264E+01 -0.88491621330E+01  0.16017262567E+02  0.51100000000E-03 0.  1.
         12    1    4    4    0    0  0.15504350903E+02  0.56965671312E+01 -0.10953185546E+02  0.19819385651E+02  0.00000000000E+00 0. -1.
</event>
<event>
 8    1  0.2882335E-009  0.9118800E+02  0.7816164E-02  0.1184000E+00
        -11   -1    0    0    0    0  0.00000000000E+00  0.00000000000E+00  0.45593999997E+02  0.45594000000E+02  0.51100000000E-03 0. -1.
         11   -1    0    0    0    0 -0.00000000000E+00 -0.00000000000E+00 -0.45593999997E+02  0.45594000000E+02  0.51100000000E-03 0.  1.
         23    2    1    2    0    0  0.00000000000E+00  0.00000000000E+00  0.00000000000E+00  0.91188000000E+02  0.91188000000E+02 0.  0.
    9900012    2    3    3    0    0 -0.33909273047E+01 -0.29276678624E+02 -0.34065982798E+02  0.46142317818E+02  0.10000000518E+02 0.  0.
         12    1    3    3    0    0  0.33909273047E+01  0.29276678624E+02  0.34065982798E+02  0.45045682182E+02  0.00000000000E+00 0. -1.
         11    1    4    4    0    0  0.15057844903E+01 -0.80384776760E+01 -0.12613128108E+02  0.15032481871E+02  0.51100000000E-03 0. -1.
        -11    1    4    4    0    0 -0.12680850292E+01 -0.14681121350E+02 -0.11732617413E+02  0.18836073778E+02  0.51100000000E-03 0.  1.
        -12    1    4    4    0    0 -0.36286267658E+01 -0.65570795982E+01 -0.97202372766E+01  0.12273762169E+02  0.00000000000E+00 0.  1.
</event>
<event>
 8    1  0.3043077E-009  0.9118800E+02  0.7816164E-02  0.1184000E+00
        -11   -1    0    0    0    0  0.00000000000E+00  0.00000000000E+00  0.45593999997E+02  0.45594000000E+02  0.51100000000E-03 0. -1.
         11   -1    0    0    0    0 -0.00000000000E+00 -0.00000000000E+00 -0.45593999997E+02  0.45594000000E+02  0.51100000000E-03 0.  1.
         23    2    1    2    0    0 -0.35527136788E-14  0.35527136788E-14  0.00000000000E+00  0.91188000000E+02  0.91188000000E+02 0.  0.
    9900012    2    3    3    0    0  0.28017548198E+02 -0.17739283007E+02 -0.30486859596E+02  0.46142314561E+02  0.99999708210E+01 0.  0.
         12    1    3    3    0    0 -0.28017548198E+02  0.17739283007E+02  0.30486859596E+02  0.45045685439E+02  0.00000000000E+00 0. -1.
         11    1    4    4    0    0  0.29631319810E+01 -0.13293649775E+01 -0.61412086329E+01  0.69470717654E+01  0.51100000000E-03 0. -1.
        -11    1    4    4    0    0  0.16037799340E+02 -0.70320755567E+01 -0.11757700720E+02  0.21092762284E+02  0.51100000000E-03 0.  1.
        -12    1    4    4    0    0  0.90166168778E+01 -0.93778424726E+01 -0.12587950243E+02  0.18102480512E+02  0.00000000000E+00 0.  1.
</event>
<event>
 8    1  0.2882335E-009  0.9118800E+02  0.7816164E-02  0.1184000E+00
        -11   -1    0    0    0    0  0.00000000000E+00  0.00000000000E+00  0.45593999997E+02  0.45594000000E+02  0.51100000000E-03 0. -1.
         11   -1    0    0    0    0 -0.00000000000E+00 -0.00000000000E+00 -0.45593999997E+02  0.45594000000E+02  0.51100000000E-03 0.  1.
         23    2    1    2    0    0  0.00000000000E+00 -0.22204460493E-15  0.00000000000E+00  0.91188000000E+02  0.91188000000E+02 0.  0.
    9900012    2    3    3    0    0 -0.17909003395E+02  0.11627780615E+01  0.41316207952E+02  0.46142317688E+02  0.99999993306E+01 0.  0.
        -12    1    3    3    0    0  0.17909003395E+02 -0.11627780615E+01 -0.41316207952E+02  0.45045682312E+02  0.00000000000E+00 0.  1.
         11    1    4    4    0    0 -0.78931747470E+01 -0.77858972189E+00  0.17000024608E+02  0.18759244293E+02  0.51100000000E-03 0. -1.
        -11    1    4    4    0    0 -0.91540735735E+01 -0.10088958902E+01  0.15305556840E+02  0.17862670695E+02  0.51100000000E-03 0.  1.
         12    1    4    4    0    0 -0.86175507438E+00  0.29502636736E+01  0.90106265046E+01  0.95204026993E+01  0.00000000000E+00 0. -1.
</event>
<event>
 8    1  0.2882335E-009  0.9118800E+02  0.7816164E-02  0.1184000E+00
        -11   -1    0    0    0    0  0.00000000000E+00  0.00000000000E+00  0.45593999997E+02  0.45594000000E+02  0.51100000000E-03 0.  1.
         11   -1    0    0    0    0 -0.00000000000E+00 -0.00000000000E+00 -0.45593999997E+02  0.45594000000E+02  0.51100000000E-03 0. -1.
         23    2    1    2    0    0  0.71054273576E-14 -0.35527136788E-14 -0.88817841970E-15  0.91188000000E+02  0.91188000000E+02 0.  0.
    9900012    2    3    3    0    0  0.38891712608E+02  0.21534445706E+02  0.72674451039E+01  0.46142318523E+02  0.10000006945E+02 0.  0.
         12    1    3    3    0    0 -0.38891712608E+02 -0.21534445706E+02 -0.72674451039E+01  0.45045681477E+02  0.00000000000E+00 0. -1.
         11    1    4    4    0    0  0.32129342716E+02  0.15377230676E+02  0.63938920190E+01  0.36188889759E+02  0.51100000000E-03 0. -1.
        -11    1    4    4    0    0  0.62376483560E+01  0.34174965856E+01  0.85637178085E+00  0.71638615854E+01  0.51100000000E-03 0.  1.
         12    1    4    4    0    0  0.52472153626E+00  0.27397184443E+01  0.17181304035E-01  0.27895671783E+01  0.00000000000E+00 0. -1.
</event>
<event>
 8    1  0.2882335E-009  0.9118800E+02  0.7816164E-02  0.1184000E+00
        -11   -1    0    0    0    0  0.00000000000E+00  0.00000000000E+00  0.45593999997E+02  0.45594000000E+02  0.51100000000E-03 0. -1.
         11   -1    0    0    0    0 -0.00000000000E+00 -0.00000000000E+00 -0.45593999997E+02  0.45594000000E+02  0.51100000000E-03 0.  1.
         23    2    1    2    0    0  0.00000000000E+00  0.00000000000E+00  0.00000000000E+00  0.91188000000E+02  0.91188000000E+02 0.  0.
    9900012    2    3    3    0    0  0.16937951508E+02 -0.86832838305E+01  0.40826706308E+02  0.46142316884E+02  0.99999920063E+01 0.  0.
        -12    1    3    3    0    0 -0.16937951508E+02  0.86832838305E+01 -0.40826706308E+02  0.45045683116E+02  0.00000000000E+00 0.  1.
         11    1    4    4    0    0  0.75819586663E+01 -0.15849708384E+00  0.17182158527E+02  0.18781314929E+02  0.51100000000E-03 0. -1.
        -11    1    4    4    0    0  0.33982303676E+01 -0.12859383457E+00  0.47219187625E+01  0.58190225181E+01  0.51100000000E-03 0.  1.
         12    1    4    4    0    0  0.59577624743E+01 -0.83961929121E+01  0.18922629018E+02  0.21541979437E+02  0.00000000000E+00 0. -1.
</event>
<event>
 8    1  0.2882335E-009  0.9118800E+02  0.7816164E-02  0.1184000E+00
        -11   -1    0    0    0    0  0.00000000000E+00  0.00000000000E+00  0.45593999997E+02  0.45594000000E+02  0.51100000000E-03 0. -1.
         11   -1    0    0    0    0 -0.00000000000E+00 -0.00000000000E+00 -0.45593999997E+02  0.45594000000E+02  0.51100000000E-03 0.  1.
         23    2    1    2    0    0  0.00000000000E+00 -0.35527136788E-14  0.00000000000E+00  0.91188000000E+02  0.91188000000E+02 0.  0.
    9900012    2    3    3    0    0 -0.18285095137E+02 -0.24909722680E+02  0.32776127335E+02  0.46142317507E+02  0.99999976826E+01 0.  0.
        -12    1    3    3    0    0  0.18285095137E+02  0.24909722680E+02 -0.32776127335E+02  0.45045682493E+02  0.00000000000E+00 0.  1.
         11    1    4    4    0    0 -0.39357630414E+01 -0.99881788163E+01  0.88589472369E+01  0.13918868244E+02  0.51100000000E-03 0. -1.
        -11    1    4    4    0    0 -0.81136419325E+01 -0.92922830693E+01  0.18471637088E+02  0.22212138281E+02  0.51100000000E-03 0.  1.
        -12    1    4    4    0    0 -0.62356901629E+01 -0.56292607945E+01  0.54455430107E+01  0.10011310982E+02  0.00000000000E+00 0.  1.
</event>
<event>
 8    1  0.2882335E-009  0.9118800E+02  0.7816164E-02  0.1184000E+00
        -11   -1    0    0    0    0  0.00000000000E+00  0.00000000000E+00  0.45593999997E+02  0.45594000000E+02  0.51100000000E-03 0.  1.
         11   -1    0    0    0    0 -0.00000000000E+00 -0.00000000000E+00 -0.45593999997E+02  0.45594000000E+02  0.51100000000E-03 0. -1.
         23    2    1    2    0    0  0.00000000000E+00  0.00000000000E+00  0.00000000000E+00  0.91188000000E+02  0.91188000000E+02 0.  0.
    9900012    2    3    3    0    0 -0.82450630871E+01 -0.40698007807E+02 -0.17458653143E+02  0.46142317916E+02  0.10000001417E+02 0.  0.
         12    1    3    3    0    0  0.82450630871E+01  0.40698007807E+02  0.17458653143E+02  0.45045682084E+02  0.00000000000E+00 0. -1.
         11    1    4    4    0    0 -0.12240764018E+01 -0.12810738289E+02 -0.19678600630E+01  0.13018673206E+02  0.51100000000E-03 0. -1.
        -11    1    4    4    0    0 -0.49210250407E+01 -0.18118443298E+02 -0.12968142551E+02  0.22818133063E+02  0.51100000000E-03 0.  1.
        -12    1    4    4    0    0 -0.20999616446E+01 -0.97688262195E+01 -0.25226505289E+01  0.10305511647E+02  0.00000000000E+00 0.  1.
</event>
<event>
 8    1  0.2882335E-009  0.9118800E+02  0.7816164E-02  0.1184000E+00
        -11   -1    0    0    0    0  0.00000000000E+00  0.00000000000E+00  0.45593999997E+02  0.45594000000E+02  0.51100000000E-03 0. -1.
         11   -1    0    0    0    0 -0.00000000000E+00 -0.00000000000E+00 -0.45593999997E+02  0.45594000000E+02  0.51100000000E-03 0.  1.
         23    2    1    2    0    0  0.00000000000E+00 -0.88817841970E-15  0.35527136788E-14  0.91188000000E+02  0.91188000000E+02 0.  0.
    9900012    2    3    3    0    0 -0.32113048969E+02  0.79810692289E+01 -0.30564164267E+02  0.46142317439E+02  0.99999970592E+01 0.  0.
         12    1    3    3    0    0  0.32113048969E+02 -0.79810692289E+01  0.30564164267E+02  0.45045682561E+02  0.00000000000E+00 0. -1.
         11    1    4    4    0    0 -0.49282966874E+01 -0.12918905455E+01 -0.29112796835E+01  0.58679331180E+01  0.51100000000E-03 0. -1.
        -11    1    4    4    0    0 -0.25743722323E+02  0.98234336209E+01 -0.27065999647E+02  0.38623922953E+02  0.51100000000E-03 0.  1.
        -12    1    4    4    0    0 -0.14410299588E+01 -0.55047384640E+00 -0.58688493597E+00  0.16504613676E+01  0.00000000000E+00 0.  1.
</event>
<event>
 8    1  0.2882335E-009  0.9118800E+02  0.7816164E-02  0.1184000E+00
        -11   -1    0    0    0    0  0.00000000000E+00  0.00000000000E+00  0.45593999997E+02  0.45594000000E+02  0.51100000000E-03 0. -1.
         11   -1    0    0    0    0 -0.00000000000E+00 -0.00000000000E+00 -0.45593999997E+02  0.45594000000E+02  0.51100000000E-03 0.  1.
         23    2    1    2    0    0  0.00000000000E+00  0.00000000000E+00  0.71054273576E-14  0.91188000000E+02  0.91188000000E+02 0.  0.
    9900012    2    3    3    0    0  0.42491038084E+01 -0.12546047641E+02  0.43054096491E+02  0.46142318529E+02  0.10000006999E+02 0.  0.
        -12    1    3    3    0    0 -0.42491038084E+01  0.12546047641E+02 -0.43054096491E+02  0.45045681471E+02  0.00000000000E+00 0.  1.
         11    1    4    4    0    0 -0.13075218989E+01 -0.86978029172E+01  0.17803404474E+02  0.19857557761E+02  0.51100000000E-03 0. -1.
        -11    1    4    4    0    0  0.53099642491E+01 -0.30506238395E+01  0.18607474826E+02  0.19589286505E+02  0.51100000000E-03 0.  1.
         12    1    4    4    0    0  0.24666145817E+00 -0.79762088440E+00  0.66432171915E+01  0.66954742628E+01  0.00000000000E+00 0. -1.
</event>
<event>
 8    1  0.2882335E-009  0.9118800E+02  0.7816164E-02  0.1184000E+00
        -11   -1    0    0    0    0  0.00000000000E+00  0.00000000000E+00  0.45593999997E+02  0.45594000000E+02  0.51100000000E-03 0. -1.
         11   -1    0    0    0    0 -0.00000000000E+00 -0.00000000000E+00 -0.45593999997E+02  0.45594000000E+02  0.51100000000E-03 0.  1.
         23    2    1    2    0    0 -0.35527136788E-14  0.10658141036E-13  0.71054273576E-14  0.91188000000E+02  0.91188000000E+02 0.  0.
    9900012    2    3    3    0    0  0.17559026422E+02 -0.30985983036E+02 -0.27580116891E+02  0.46142318727E+02  0.10000008810E+02 0.  0.
         12    1    3    3    0    0 -0.17559026422E+02  0.30985983036E+02  0.27580116891E+02  0.45045681273E+02  0.00000000000E+00 0. -1.
         11    1    4    4    0    0  0.63386788293E+01 -0.15448393879E+02 -0.17620417560E+02  0.24275725283E+02  0.51100000000E-03 0. -1.
        -11    1    4    4    0    0  0.83097719440E+01 -0.86933326960E+01 -0.63462146738E+01  0.13597822770E+02  0.51100000000E-03 0.  1.
        -12    1    4    4    0    0  0.29105756488E+01 -0.68442564604E+01 -0.36134846575E+01  0.82687706748E+01  0.00000000000E+00 0.  1.
</event>
<event>
 8    1  0.2882335E-009  0.9118800E+02  0.7816164E-02  0.1184000E+00
        -11   -1    0    0    0    0  0.00000000000E+00  0.00000000000E+00  0.45593999997E+02  0.45594000000E+02  0.51100000000E-03 0. -1.
         11   -1    0    0    0    0 -0.00000000000E+00 -0.00000000000E+00 -0.45593999997E+02  0.45594000000E+02  0.51100000000E-03 0.  1.
         23    2    1    2    0    0  0.00000000000E+00 -0.35527136788E-14  0.88817841970E-15  0.91188000000E+02  0.91188000000E+02 0.  0.
    9900012    2    3    3    0    0  0.33121785054E+02  0.29874069963E+02 -0.62929174685E+01  0.46142317503E+02  0.99999976509E+01 0.  0.
         12    1    3    3    0    0 -0.33121785054E+02 -0.29874069963E+02  0.62929174685E+01  0.45045682497E+02  0.00000000000E+00 0. -1.
         11    1    4    4    0    0  0.17909120026E+02  0.19439750427E+02 -0.11114843499E+01  0.26455167255E+02  0.51100000000E-03 0. -1.
        -11    1    4    4    0    0  0.51233087468E+01  0.45902312404E+01 -0.40258799869E+01  0.79703340761E+01  0.51100000000E-03 0.  1.
         12    1    4    4    0    0  0.10089356281E+02  0.58440882951E+01 -0.11555531317E+01  0.11716816172E+02  0.00000000000E+00 0. -1.
</event>
<event>
 8    1  0.2882335E-009  0.9118800E+02  0.7816164E-02  0.1184000E+00
        -11   -1    0    0    0    0  0.00000000000E+00  0.00000000000E+00  0.45593999997E+02  0.45594000000E+02  0.51100000000E-03 0. -1.
         11   -1    0    0    0    0 -0.00000000000E+00 -0.00000000000E+00 -0.45593999997E+02  0.45594000000E+02  0.51100000000E-03 0.  1.
         23    2    1    2    0    0  0.88817841970E-15  0.00000000000E+00  0.00000000000E+00  0.91188000000E+02  0.91188000000E+02 0.  0.
    9900012    2    3    3    0    0 -0.78151210335E+01 -0.20261889449E+02 -0.39465088293E+02  0.46142317912E+02  0.10000001377E+02 0.  0.
         12    1    3    3    0    0  0.78151210335E+01  0.20261889449E+02  0.39465088293E+02  0.45045682088E+02  0.00000000000E+00 0. -1.
         11    1    4    4    0    0  0.37257875079E+00 -0.39025140073E+01 -0.11618281404E+02  0.12261847069E+02  0.51100000000E-03 0. -1.
        -11    1    4    4    0    0  0.48532248224E+00 -0.35836673152E+01 -0.76069759334E+01  0.84228434896E+01  0.51100000000E-03 0.  1.
         12    1    4    4    0    0 -0.86730222665E+01 -0.12775708126E+02 -0.20239830955E+02  0.25457627353E+02  0.00000000000E+00 0. -1.
</event>
<event>
 8    1  0.2882335E-009  0.9118800E+02  0.7816164E-02  0.1184000E+00
        -11   -1    0    0    0    0  0.00000000000E+00  0.00000000000E+00  0.45593999997E+02  0.45594000000E+02  0.51100000000E-03 0.  1.
         11   -1    0    0    0    0 -0.00000000000E+00 -0.00000000000E+00 -0.45593999997E+02  0.45594000000E+02  0.51100000000E-03 0. -1.
         23    2    1    2    0    0  0.00000000000E+00  0.00000000000E+00  0.88817841970E-15  0.91188000000E+02  0.91188000000E+02 0.  0.
    9900012    2    3    3    0    0 -0.43471961361E+02 -0.91152067143E+01 -0.74976634607E+01  0.46142319015E+02  0.10000011438E+02 0.  0.
        -12    1    3    3    0    0  0.43471961361E+02  0.91152067143E+01  0.74976634607E+01  0.45045680985E+02  0.00000000000E+00 0.  1.
         11    1    4    4    0    0 -0.15499994867E+02 -0.23652026119E+01  0.97810069188E+00  0.15709891964E+02  0.51100000000E-03 0. -1.
        -11    1    4    4    0    0 -0.11278465323E+01 -0.45962841991E+00 -0.16106993020E+01  0.20193188424E+01  0.51100000000E-03 0.  1.
         12    1    4    4    0    0 -0.26844119961E+02 -0.62903756825E+01 -0.68650648505E+01  0.28413108209E+02  0.00000000000E+00 0. -1.
</event>
<event>
 8    1  0.2882335E-009  0.9118800E+02  0.7816164E-02  0.1184000E+00
        -11   -1    0    0    0    0  0.00000000000E+00  0.00000000000E+00  0.45593999997E+02  0.45594000000E+02  0.51100000000E-03 0. -1.
         11   -1    0    0    0    0 -0.00000000000E+00 -0.00000000000E+00 -0.45593999997E+02  0.45594000000E+02  0.51100000000E-03 0.  1.
         23    2    1    2    0    0  0.71054273576E-14 -0.35527136788E-14  0.00000000000E+00  0.91188000000E+02  0.91188000000E+02 0.  0.
    9900012    2    3    3    0    0 -0.28284753355E+02  0.20303645704E+02 -0.28580555378E+02  0.46142318221E+02  0.10000004192E+02 0.  0.
         12    1    3    3    0    0  0.28284753355E+02 -0.20303645704E+02  0.28580555378E+02  0.45045681779E+02  0.00000000000E+00 0. -1.
         11    1    4    4    0    0 -0.16175190592E+02  0.10964402057E+02 -0.21604397983E+02  0.29130824149E+02  0.51100000000E-03 0. -1.
        -11    1    4    4    0    0 -0.20420500326E+01  0.10898310418E+01 -0.20591336972E+01  0.30980206389E+01  0.51100000000E-03 0.  1.
         12    1    4    4    0    0 -0.10067512731E+02  0.82494126055E+01 -0.49170236984E+01  0.13913473433E+02  0.00000000000E+00 0. -1.
</event>
<event>
 8    1  0.2882335E-009  0.9118800E+02  0.7816164E-02  0.1184000E+00
        -11   -1    0    0    0    0  0.00000000000E+00  0.00000000000E+00  0.45593999997E+02  0.45594000000E+02  0.51100000000E-03 0. -1.
         11   -1    0    0    0    0 -0.00000000000E+00 -0.00000000000E+00 -0.45593999997E+02  0.45594000000E+02  0.51100000000E-03 0.  1.
         23    2    1    2    0    0 -0.17763568394E-14  0.35527136788E-14  0.00000000000E+00  0.91188000000E+02  0.91188000000E+02 0.  0.
    9900012    2    3    3    0    0 -0.92327787172E+01  0.15330883676E+02  0.41338035754E+02  0.46142318774E+02  0.10000009238E+02 0.  0.
        -12    1    3    3    0    0  0.92327787172E+01 -0.15330883676E+02 -0.41338035754E+02  0.45045681226E+02  0.00000000000E+00 0.  1.
         11    1    4    4    0    0 -0.56546702763E+01  0.18906267126E+01  0.10298354620E+02  0.11899826614E+02  0.51100000000E-03 0. -1.
        -11    1    4    4    0    0 -0.41061627408E+01  0.13237182168E+02  0.30219862933E+02  0.33246408530E+02  0.51100000000E-03 0.  1.
        -12    1    4    4    0    0  0.52805429989E+00  0.20307479500E+00  0.81981820091E+00  0.99608363029E+00  0.00000000000E+00 0.  1.
</event>
<event>
 8    1  0.2882335E-009  0.9118800E+02  0.7816164E-02  0.1184000E+00
        -11   -1    0    0    0    0  0.00000000000E+00  0.00000000000E+00  0.45593999997E+02  0.45594000000E+02  0.51100000000E-03 0. -1.
         11   -1    0    0    0    0 -0.00000000000E+00 -0.00000000000E+00 -0.45593999997E+02  0.45594000000E+02  0.51100000000E-03 0.  1.
         23    2    1    2    0    0  0.00000000000E+00  0.00000000000E+00  0.00000000000E+00  0.91188000000E+02  0.91188000000E+02 0.  0.
    9900012    2    3    3    0    0  0.34299676999E+02  0.15516929704E+02 -0.24736017794E+02  0.46142317344E+02  0.99999961952E+01 0.  0.
         12    1    3    3    0    0 -0.34299676999E+02 -0.15516929704E+02  0.24736017794E+02  0.45045682656E+02  0.00000000000E+00 0. -1.
         11    1    4    4    0    0  0.21550593344E+02  0.13723595616E+02 -0.14803123694E+02  0.29527912582E+02  0.51100000000E-03 0.  1.
        -11    1    4    4    0    0  0.75020475361E+01  0.15296186515E+01 -0.38275283993E+01  0.85598145051E+01  0.51100000000E-03 0. -1.
         12    1    4    4    0    0  0.52470361185E+01  0.26371543646E+00 -0.61053657004E+01  0.80545902563E+01  0.00000000000E+00 0. -1.
</event>
<event>
 8    1  0.2882335E-009  0.9118800E+02  0.7816164E-02  0.1184000E+00
        -11   -1    0    0    0    0  0.00000000000E+00  0.00000000000E+00  0.45593999997E+02  0.45594000000E+02  0.51100000000E-03 0. -1.
         11   -1    0    0    0    0 -0.00000000000E+00 -0.00000000000E+00 -0.45593999997E+02  0.45594000000E+02  0.51100000000E-03 0.  1.
         23    2    1    2    0    0 -0.35527136788E-14 -0.17763568394E-14 -0.35527136788E-14  0.91188000000E+02  0.91188000000E+02 0.  0.
    9900012    2    3    3    0    0  0.27605817224E+02  0.15943917307E+02  0.31824892131E+02  0.46142318710E+02  0.10000008657E+02 0.  0.
        -12    1    3    3    0    0 -0.27605817224E+02 -0.15943917307E+02 -0.31824892131E+02  0.45045681290E+02  0.00000000000E+00 0.  1.
         11    1    4    4    0    0  0.10084491841E+01 -0.64532675378E+00  0.20033477510E+01  0.23338420788E+01  0.51100000000E-03 0. -1.
        -11    1    4    4    0    0  0.23781708988E+02  0.12722334148E+02  0.22823616093E+02  0.35331924946E+02  0.51100000000E-03 0.  1.
        -12    1    4    4    0    0  0.28156590514E+01  0.38669099133E+01  0.69979282866E+01  0.84765516854E+01  0.00000000000E+00 0.  1.
</event>
<event>
 8    1  0.2882335E-009  0.9118800E+02  0.7816164E-02  0.1184000E+00
        -11   -1    0    0    0    0  0.00000000000E+00  0.00000000000E+00  0.45593999997E+02  0.45594000000E+02  0.51100000000E-03 0. -1.
         11   -1    0    0    0    0 -0.00000000000E+00 -0.00000000000E+00 -0.45593999997E+02  0.45594000000E+02  0.51100000000E-03 0.  1.
         23    2    1    2    0    0  0.00000000000E+00  0.35527136788E-14 -0.14210854715E-13  0.91188000000E+02  0.91188000000E+02 0.  0.
    9900012    2    3    3    0    0  0.11970746922E+02 -0.14969629473E+02  0.40764259477E+02  0.46142318308E+02  0.10000004983E+02 0.  0.
        -12    1    3    3    0    0 -0.11970746922E+02  0.14969629473E+02 -0.40764259477E+02  0.45045681692E+02  0.00000000000E+00 0.  1.
         11    1    4    4    0    0  0.98063920077E-01 -0.64560850205E+01  0.81050806303E+01  0.10362576060E+02  0.51100000000E-03 0. -1.
        -11    1    4    4    0    0  0.94730049901E+01 -0.68520837364E+01  0.25801281835E+02  0.28326577973E+02  0.51100000000E-03 0.  1.
         12    1    4    4    0    0  0.23996780117E+01 -0.16614607161E+01  0.68578970115E+01  0.74531642737E+01  0.00000000000E+00 0. -1.
</event>
<event>
 8    1  0.2882335E-009  0.9118800E+02  0.7816164E-02  0.1184000E+00
        -11   -1    0    0    0    0  0.00000000000E+00  0.00000000000E+00  0.45593999997E+02  0.45594000000E+02  0.51100000000E-03 0. -1.
         11   -1    0    0    0    0 -0.00000000000E+00 -0.00000000000E+00 -0.45593999997E+02  0.45594000000E+02  0.51100000000E-03 0.  1.
         23    2    1    2    0    0  0.00000000000E+00  0.35527136788E-14 -0.17763568394E-14  0.91188000000E+02  0.91188000000E+02 0.  0.
    9900012    2    3    3    0    0  0.28365379239E+02  0.31496079979E+02  0.15248462575E+02  0.46142318694E+02  0.10000008506E+02 0.  0.
        -12    1    3    3    0    0 -0.28365379239E+02 -0.31496079979E+02 -0.15248462575E+02  0.45045681306E+02  0.00000000000E+00 0.  1.
         11    1    4    4    0    0  0.11160277132E+00  0.15707295170E+01  0.13036036625E+01  0.20442673905E+01  0.51100000000E-03 0.  1.
        -11    1    4    4    0    0  0.20241571809E+01  0.59673543522E+01  0.17670019752E+01  0.65443736521E+01  0.51100000000E-03 0. -1.
         12    1    4    4    0    0  0.26229619287E+02  0.23957996110E+02  0.12177856938E+02  0.37553677651E+02  0.00000000000E+00 0. -1.
</event>
<event>
 8    1  0.2882335E-009  0.9118800E+02  0.7816164E-02  0.1184000E+00
        -11   -1    0    0    0    0  0.00000000000E+00  0.00000000000E+00  0.45593999997E+02  0.45594000000E+02  0.51100000000E-03 0. -1.
         11   -1    0    0    0    0 -0.00000000000E+00 -0.00000000000E+00 -0.45593999997E+02  0.45594000000E+02  0.51100000000E-03 0.  1.
         23    2    1    2    0    0  0.00000000000E+00  0.00000000000E+00  0.88817841970E-15  0.91188000000E+02  0.91188000000E+02 0.  0.
    9900012    2    3    3    0    0  0.39609132099E+02  0.19938772542E+02  0.79167868293E+01  0.46142317523E+02  0.99999978292E+01 0.  0.
        -12    1    3    3    0    0 -0.39609132099E+02 -0.19938772542E+02 -0.79167868293E+01  0.45045682477E+02  0.00000000000E+00 0.  1.
         11    1    4    4    0    0  0.71670238990E+01  0.43246603222E+01  0.35146793498E+01  0.90786502116E+01  0.51100000000E-03 0. -1.
        -11    1    4    4    0    0  0.18472880562E+02  0.87517808806E+01  0.62870661669E+01  0.21386168102E+02  0.51100000000E-03 0.  1.
        -12    1    4    4    0    0  0.13969227638E+02  0.68623313391E+01 -0.18849586874E+01  0.15677499209E+02  0.00000000000E+00 0.  1.
</event>
<event>
 8    1  0.2882335E-009  0.9118800E+02  0.7816164E-02  0.1184000E+00
        -11   -1    0    0    0    0  0.00000000000E+00  0.00000000000E+00  0.45593999997E+02  0.45594000000E+02  0.51100000000E-03 0.  1.
         11   -1    0    0    0    0 -0.00000000000E+00 -0.00000000000E+00 -0.45593999997E+02  0.45594000000E+02  0.51100000000E-03 0. -1.
         23    2    1    2    0    0  0.00000000000E+00  0.35527136788E-14  0.00000000000E+00  0.91188000000E+02  0.91188000000E+02 0.  0.
    9900012    2    3    3    0    0 -0.40778042846E+02  0.17083938513E+02  0.86257592805E+01  0.46142318114E+02  0.10000003214E+02 0.  0.
         12    1    3    3    0    0  0.40778042846E+02 -0.17083938513E+02 -0.86257592805E+01  0.45045681886E+02  0.00000000000E+00 0. -1.
         11    1    4    4    0    0 -0.12373383273E+02  0.10019711969E+02  0.16460864790E+01  0.16006400049E+02  0.51100000000E-03 0. -1.
        -11    1    4    4    0    0 -0.26185720061E+02  0.68835975870E+01  0.67008778101E+01  0.27892250080E+02  0.51100000000E-03 0.  1.
         12    1    4    4    0    0 -0.22189395119E+01  0.18062895633E+00  0.27879499139E+00  0.22436679844E+01  0.00000000000E+00 0. -1.
</event>
<event>
 8    1  0.2882335E-009  0.9118800E+02  0.7816164E-02  0.1184000E+00
        -11   -1    0    0    0    0  0.00000000000E+00  0.00000000000E+00  0.45593999997E+02  0.45594000000E+02  0.51100000000E-03 0. -1.
         11   -1    0    0    0    0 -0.00000000000E+00 -0.00000000000E+00 -0.45593999997E+02  0.45594000000E+02  0.51100000000E-03 0.  1.
         23    2    1    2    0    0  0.00000000000E+00  0.33306690739E-15  0.71054273576E-14  0.91188000000E+02  0.91188000000E+02 0.  0.
    9900012    2    3    3    0    0 -0.29290430125E+02  0.52234604921E+00  0.34218578358E+02  0.46142320439E+02  0.10000024416E+02 0.  0.
        -12    1    3    3    0    0  0.29290430125E+02 -0.52234604921E+00 -0.34218578358E+02  0.45045679561E+02  0.00000000000E+00 0.  1.
         11    1    4    4    0    0 -0.19415653485E+02 -0.25133215535E+01  0.21910721960E+02  0.29383058427E+02  0.51100000000E-03 0. -1.
        -11    1    4    4    0    0 -0.74818977653E+01  0.30114710290E+01  0.61185675556E+01  0.10123468829E+02  0.51100000000E-03 0.  1.
        -12    1    4    4    0    0 -0.23928788740E+01  0.24196573693E-01  0.61892888430E+01  0.66357931826E+01  0.00000000000E+00 0.  1.
</event>
<event>
 8    1  0.2882335E-009  0.9118800E+02  0.7816164E-02  0.1184000E+00
        -11   -1    0    0    0    0  0.00000000000E+00  0.00000000000E+00  0.45593999997E+02  0.45594000000E+02  0.51100000000E-03 0. -1.
         11   -1    0    0    0    0 -0.00000000000E+00 -0.00000000000E+00 -0.45593999997E+02  0.45594000000E+02  0.51100000000E-03 0.  1.
         23    2    1    2    0    0  0.00000000000E+00  0.00000000000E+00  0.00000000000E+00  0.91188000000E+02  0.91188000000E+02 0.  0.
    9900012    2    3    3    0    0 -0.39894316415E+02  0.14609740499E+02  0.14970386494E+02  0.46142317949E+02  0.10000001715E+02 0.  0.
        -12    1    3    3    0    0  0.39894316415E+02 -0.14609740499E+02 -0.14970386494E+02  0.45045682051E+02  0.00000000000E+00 0.  1.
         11    1    4    4    0    0 -0.10856313330E+02  0.36002810102E+01  0.36871833592E+01  0.12017357607E+02  0.51100000000E-03 0. -1.
        -11    1    4    4    0    0 -0.74662642737E+01  0.24570135769E+01  0.70049803739E+01  0.10528616634E+02  0.51100000000E-03 0.  1.
        -12    1    4    4    0    0 -0.21571738811E+02  0.85524459124E+01  0.42782227610E+01  0.23596343709E+02  0.00000000000E+00 0.  1.
</event>
<event>
 8    1  0.2882335E-009  0.9118800E+02  0.7816164E-02  0.1184000E+00
        -11   -1    0    0    0    0  0.00000000000E+00  0.00000000000E+00  0.45593999997E+02  0.45594000000E+02  0.51100000000E-03 0.  1.
         11   -1    0    0    0    0 -0.00000000000E+00 -0.00000000000E+00 -0.45593999997E+02  0.45594000000E+02  0.51100000000E-03 0. -1.
         23    2    1    2    0    0  0.00000000000E+00  0.44408920985E-15  0.00000000000E+00  0.91188000000E+02  0.91188000000E+02 0.  0.
    9900012    2    3    3    0    0  0.43605482285E+02  0.22909969015E+01  0.11064661331E+02  0.46142317827E+02  0.10000000598E+02 0.  0.
         12    1    3    3    0    0 -0.43605482285E+02 -0.22909969015E+01 -0.11064661331E+02  0.45045682173E+02  0.00000000000E+00 0. -1.
         11    1    4    4    0    0  0.12895244724E+02 -0.17875726742E+01  0.68838681129E+00  0.13036741511E+02  0.51100000000E-03 0. -1.
        -11    1    4    4    0    0  0.12720009493E+02  0.22113381236E+01  0.70672070002E+01  0.14718494245E+02  0.51100000000E-03 0.  1.
        -12    1    4    4    0    0  0.17990228067E+02  0.18672314520E+01  0.33090675198E+01  0.18387082070E+02  0.00000000000E+00 0.  1.
</event>
<event>
 8    1  0.2882335E-009  0.9118800E+02  0.7816164E-02  0.1184000E+00
        -11   -1    0    0    0    0  0.00000000000E+00  0.00000000000E+00  0.45593999997E+02  0.45594000000E+02  0.51100000000E-03 0. -1.
         11   -1    0    0    0    0 -0.00000000000E+00 -0.00000000000E+00 -0.45593999997E+02  0.45594000000E+02  0.51100000000E-03 0.  1.
         23    2    1    2    0    0  0.00000000000E+00  0.00000000000E+00  0.00000000000E+00  0.91188000000E+02  0.91188000000E+02 0.  0.
    9900012    2    3    3    0    0 -0.17468236175E+02 -0.66349838604E+00  0.41515467082E+02  0.46142317497E+02  0.99999975886E+01 0.  0.
        -12    1    3    3    0    0  0.17468236175E+02  0.66349838604E+00 -0.41515467082E+02  0.45045682503E+02  0.00000000000E+00 0.  1.
         11    1    4    4    0    0 -0.98814929022E+01  0.23355627368E+01  0.22061129103E+02  0.24285637172E+02  0.51100000000E-03 0.  1.
        -11    1    4    4    0    0 -0.75183434475E+01 -0.17031068885E+01  0.11812029467E+02  0.14104967269E+02  0.51100000000E-03 0. -1.
        -12    1    4    4    0    0 -0.68399825053E-01 -0.12959542344E+01  0.76423085112E+01  0.77517130554E+01  0.00000000000E+00 0.  1.
</event>
<event>
 8    1  0.2882335E-009  0.9118800E+02  0.7816164E-02  0.1184000E+00
        -11   -1    0    0    0    0  0.00000000000E+00  0.00000000000E+00  0.45593999997E+02  0.45594000000E+02  0.51100000000E-03 0. -1.
         11   -1    0    0    0    0 -0.00000000000E+00 -0.00000000000E+00 -0.45593999997E+02  0.45594000000E+02  0.51100000000E-03 0.  1.
         23    2    1    2    0    0  0.00000000000E+00  0.00000000000E+00 -0.71054273576E-14  0.91188000000E+02  0.91188000000E+02 0.  0.
    9900012    2    3    3    0    0 -0.11039671128E+02  0.23347640623E+02 -0.36907001278E+02  0.46142318690E+02  0.10000008475E+02 0.  0.
         12    1    3    3    0    0  0.11039671128E+02 -0.23347640623E+02  0.36907001278E+02  0.45045681310E+02  0.00000000000E+00 0. -1.
         11    1    4    4    0    0  0.29753748903E-01  0.19605209026E+01 -0.92172712640E+01  0.94235140638E+01  0.51100000000E-03 0. -1.
        -11    1    4    4    0    0 -0.78555252862E+01  0.15857671303E+02 -0.19619136622E+02  0.26421308422E+02  0.51100000000E-03 0.  1.
         12    1    4    4    0    0 -0.32138995911E+01  0.55294484171E+01 -0.80705933923E+01  0.10297496205E+02  0.00000000000E+00 0. -1.
</event>
<event>
 8    1  0.2882335E-009  0.9118800E+02  0.7816164E-02  0.1184000E+00
        -11   -1    0    0    0    0  0.00000000000E+00  0.00000000000E+00  0.45593999997E+02  0.45594000000E+02  0.51100000000E-03 0. -1.
         11   -1    0    0    0    0 -0.00000000000E+00 -0.00000000000E+00 -0.45593999997E+02  0.45594000000E+02  0.51100000000E-03 0.  1.
         23    2    1    2    0    0  0.35527136788E-14  0.35527136788E-14  0.71054273576E-14  0.91188000000E+02  0.91188000000E+02 0.  0.
    9900012    2    3    3    0    0 -0.22009047642E+02  0.24953916310E+02  0.30364739125E+02  0.46142317638E+02  0.99999988813E+01 0.  0.
        -12    1    3    3    0    0  0.22009047642E+02 -0.24953916310E+02 -0.30364739125E+02  0.45045682362E+02  0.00000000000E+00 0.  1.
         11    1    4    4    0    0 -0.73292745143E+01  0.12911176451E+02  0.10151018016E+02  0.17984991222E+02  0.51100000000E-03 0. -1.
        -11    1    4    4    0    0 -0.13480485310E+02  0.12392329320E+02  0.18432582095E+02  0.25981789644E+02  0.51100000000E-03 0.  1.
        -12    1    4    4    0    0 -0.11992878178E+01 -0.34958946046E+00  0.17811390133E+01  0.21755367718E+01  0.00000000000E+00 0.  1.
</event>
<event>
 8    1  0.2882335E-009  0.9118800E+02  0.7816164E-02  0.1184000E+00
        -11   -1    0    0    0    0  0.00000000000E+00  0.00000000000E+00  0.45593999997E+02  0.45594000000E+02  0.51100000000E-03 0. -1.
         11   -1    0    0    0    0 -0.00000000000E+00 -0.00000000000E+00 -0.45593999997E+02  0.45594000000E+02  0.51100000000E-03 0.  1.
         23    2    1    2    0    0 -0.35527136788E-14  0.35527136788E-14 -0.35527136788E-14  0.91188000000E+02  0.91188000000E+02 0.  0.
    9900012    2    3    3    0    0  0.31368891733E+02 -0.22227466904E+02  0.23474366728E+02  0.46142317113E+02  0.99999940902E+01 0.  0.
        -12    1    3    3    0    0 -0.31368891733E+02  0.22227466904E+02 -0.23474366728E+02  0.45045682887E+02  0.00000000000E+00 0.  1.
         11    1    4    4    0    0  0.54618272313E+00 -0.27480051926E+01  0.36026661091E+01  0.45638855661E+01  0.51100000000E-03 0. -1.
        -11    1    4    4    0    0  0.94433955311E+01 -0.67499801901E+01  0.55100541576E+01  0.12849149731E+02  0.51100000000E-03 0.  1.
         12    1    4    4    0    0  0.21379313478E+02 -0.12729481521E+02  0.14361646461E+02  0.28729281816E+02  0.00000000000E+00 0. -1.
</event>
<event>
 8    1  0.2882335E-009  0.9118800E+02  0.7816164E-02  0.1184000E+00
        -11   -1    0    0    0    0  0.00000000000E+00  0.00000000000E+00  0.45593999997E+02  0.45594000000E+02  0.51100000000E-03 0. -1.
         11   -1    0    0    0    0 -0.00000000000E+00 -0.00000000000E+00 -0.45593999997E+02  0.45594000000E+02  0.51100000000E-03 0.  1.
         23    2    1    2    0    0  0.88817841970E-15  0.00000000000E+00  0.00000000000E+00  0.91188000000E+02  0.91188000000E+02 0.  0.
    9900012    2    3    3    0    0 -0.37158343755E+01  0.37948474588E+02  0.23983729295E+02  0.46142318525E+02  0.10000006964E+02 0.  0.
        -12    1    3    3    0    0  0.37158343755E+01 -0.37948474588E+02 -0.23983729295E+02  0.45045681475E+02  0.00000000000E+00 0.  1.
         11    1    4    4    0    0 -0.44780261656E+01  0.23955173435E+02  0.15566715665E+02  0.28917567143E+02  0.51100000000E-03 0. -1.
        -11    1    4    4    0    0  0.13475162086E+01  0.44677755242E+01  0.26595914777E+00  0.46741365616E+01  0.51100000000E-03 0.  1.
        -12    1    4    4    0    0 -0.58532441856E+00  0.95255256293E+01  0.81510544818E+01  0.12550614820E+02  0.00000000000E+00 0.  1.
</event>
<event>
 8    1  0.2882335E-009  0.9118800E+02  0.7816164E-02  0.1184000E+00
        -11   -1    0    0    0    0  0.00000000000E+00  0.00000000000E+00  0.45593999997E+02  0.45594000000E+02  0.51100000000E-03 0.  1.
         11   -1    0    0    0    0 -0.00000000000E+00 -0.00000000000E+00 -0.45593999997E+02  0.45594000000E+02  0.51100000000E-03 0. -1.
         23    2    1    2    0    0  0.00000000000E+00 -0.71054273576E-14 -0.71054273576E-14  0.91188000000E+02  0.91188000000E+02 0.  0.
    9900012    2    3    3    0    0  0.27481568196E+02 -0.26211884470E+02 -0.24224245090E+02  0.46142317319E+02  0.99999959667E+01 0.  0.
         12    1    3    3    0    0 -0.27481568196E+02  0.26211884470E+02  0.24224245090E+02  0.45045682681E+02  0.00000000000E+00 0. -1.
         11    1    4    4    0    0  0.18303119890E+02 -0.17151904752E+02 -0.12802275804E+02  0.28161858964E+02  0.51100000000E-03 0. -1.
        -11    1    4    4    0    0  0.82443555615E+01 -0.52008504367E+01 -0.93267869328E+01  0.13491004360E+02  0.51100000000E-03 0.  1.
         12    1    4    4    0    0  0.93409274467E+00 -0.38591292820E+01 -0.20951823539E+01  0.44894539944E+01  0.00000000000E+00 0. -1.
</event>
<event>
 8    1  0.2882335E-009  0.9118800E+02  0.7816164E-02  0.1184000E+00
        -11   -1    0    0    0    0  0.00000000000E+00  0.00000000000E+00  0.45593999997E+02  0.45594000000E+02  0.51100000000E-03 0. -1.
         11   -1    0    0    0    0 -0.00000000000E+00 -0.00000000000E+00 -0.45593999997E+02  0.45594000000E+02  0.51100000000E-03 0.  1.
         23    2    1    2    0    0 -0.44408920985E-15  0.00000000000E+00  0.00000000000E+00  0.91188000000E+02  0.91188000000E+02 0.  0.
    9900012    2    3    3    0    0 -0.35779265284E+01  0.42082456835E+01 -0.44705733692E+02  0.46142317466E+02  0.99999973131E+01 0.  0.
         12    1    3    3    0    0  0.35779265284E+01 -0.42082456835E+01  0.44705733692E+02  0.45045682534E+02  0.00000000000E+00 0. -1.
         11    1    4    4    0    0  0.37675237920E+00  0.36431224822E+01 -0.16976471535E+02  0.17367062786E+02  0.51100000000E-03 0. -1.
        -11    1    4    4    0    0 -0.81734683515E+00  0.14171996525E+01 -0.22872011813E+02  0.22930447779E+02  0.51100000000E-03 0.  1.
         12    1    4    4    0    0 -0.31373320725E+01 -0.85207645128E+00 -0.48572503440E+01  0.58448069015E+01  0.00000000000E+00 0. -1.
</event>
<event>
 8    1  0.2882335E-009  0.9118800E+02  0.7816164E-02  0.1184000E+00
        -11   -1    0    0    0    0  0.00000000000E+00  0.00000000000E+00  0.45593999997E+02  0.45594000000E+02  0.51100000000E-03 0. -1.
         11   -1    0    0    0    0 -0.00000000000E+00 -0.00000000000E+00 -0.45593999997E+02  0.45594000000E+02  0.51100000000E-03 0.  1.
         23    2    1    2    0    0  0.00000000000E+00  0.17763568394E-14  0.71054273576E-14  0.91188000000E+02  0.91188000000E+02 0.  0.
    9900012    2    3    3    0    0  0.17022657777E+02 -0.13547357984E+02 -0.39443779586E+02  0.46142317253E+02  0.99999953639E+01 0.  0.
         12    1    3    3    0    0 -0.17022657777E+02  0.13547357984E+02  0.39443779586E+02  0.45045682747E+02  0.00000000000E+00 0. -1.
         11    1    4    4    0    0  0.29613258100E+00  0.11215639141E+00  0.28632153548E+00  0.42691198679E+00  0.51100000000E-03 0. -1.
        -11    1    4    4    0    0  0.10723763104E+02 -0.46928657127E+01 -0.18330355227E+02  0.21749115079E+02  0.51100000000E-03 0.  1.
         12    1    4    4    0    0  0.60027620916E+01 -0.89666486626E+01 -0.21399745895E+02  0.23966290187E+02  0.00000000000E+00 0. -1.
</event>
<event>
 8    1  0.2882335E-009  0.9118800E+02  0.7816164E-02  0.1184000E+00
        -11   -1    0    0    0    0  0.00000000000E+00  0.00000000000E+00  0.45593999997E+02  0.45594000000E+02  0.51100000000E-03 0. -1.
         11   -1    0    0    0    0 -0.00000000000E+00 -0.00000000000E+00 -0.45593999997E+02  0.45594000000E+02  0.51100000000E-03 0.  1.
         23    2    1    2    0    0  0.17763568394E-14  0.00000000000E+00  0.71054273576E-14  0.91188000000E+02  0.91188000000E+02 0.  0.
    9900012    2    3    3    0    0  0.11811871441E+02  0.58024238064E+01  0.43080449426E+02  0.46142317058E+02  0.99999935890E+01 0.  0.
        -12    1    3    3    0    0 -0.11811871441E+02 -0.58024238064E+01 -0.43080449426E+02  0.45045682942E+02  0.00000000000E+00 0.  1.
         11    1    4    4    0    0  0.37308412775E+00  0.15511173910E+01  0.12292598877E+01  0.20140101935E+01  0.51100000000E-03 0. -1.
        -11    1    4    4    0    0  0.35658086763E+01  0.20250613209E+01  0.54583153916E+01  0.68270837145E+01  0.51100000000E-03 0.  1.
         12    1    4    4    0    0  0.78729786366E+01  0.22262450945E+01  0.36392874147E+02  0.37301223150E+02  0.00000000000E+00 0. -1.
</event>
<event>
 8    1  0.2882335E-009  0.9118800E+02  0.7816164E-02  0.1184000E+00
        -11   -1    0    0    0    0  0.00000000000E+00  0.00000000000E+00  0.45593999997E+02  0.45594000000E+02  0.51100000000E-03 0. -1.
         11   -1    0    0    0    0 -0.00000000000E+00 -0.00000000000E+00 -0.45593999997E+02  0.45594000000E+02  0.51100000000E-03 0.  1.
         23    2    1    2    0    0  0.00000000000E+00  0.00000000000E+00  0.00000000000E+00  0.91188000000E+02  0.91188000000E+02 0.  0.
    9900012    2    3    3    0    0  0.17276427844E+02 -0.36262164752E+02 -0.20388570887E+02  0.46142319026E+02  0.10000011535E+02 0.  0.
         12    1    3    3    0    0 -0.17276427844E+02  0.36262164752E+02  0.20388570887E+02  0.45045680974E+02  0.00000000000E+00 0. -1.
         11    1    4    4    0    0  0.68071826472E+01 -0.13352022675E+02 -0.10774073356E+02  0.18457922474E+02  0.51100000000E-03 0. -1.
        -11    1    4    4    0    0  0.51693713443E+01 -0.67939153357E+01 -0.82311655113E+00  0.85765498192E+01  0.51100000000E-03 0.  1.
         12    1    4    4    0    0  0.52998738526E+01 -0.16116226741E+02 -0.87913809799E+01  0.19107846733E+02  0.00000000000E+00 0. -1.
</event>
<event>
 8    1  0.2882335E-009  0.9118800E+02  0.7816164E-02  0.1184000E+00
        -11   -1    0    0    0    0  0.00000000000E+00  0.00000000000E+00  0.45593999997E+02  0.45594000000E+02  0.51100000000E-03 0. -1.
         11   -1    0    0    0    0 -0.00000000000E+00 -0.00000000000E+00 -0.45593999997E+02  0.45594000000E+02  0.51100000000E-03 0.  1.
         23    2    1    2    0    0  0.00000000000E+00  0.00000000000E+00  0.00000000000E+00  0.91188000000E+02  0.91188000000E+02 0.  0.
    9900012    2    3    3    0    0 -0.21925163280E+02 -0.66909777134E+01 -0.38776688466E+02  0.46142317233E+02  0.99999951818E+01 0.  0.
         12    1    3    3    0    0  0.21925163280E+02  0.66909777134E+01  0.38776688466E+02  0.45045682767E+02  0.00000000000E+00 0. -1.
         11    1    4    4    0    0 -0.75522393973E+01 -0.31101494621E+01 -0.19834675297E+02  0.21450494027E+02  0.51100000000E-03 0. -1.
        -11    1    4    4    0    0 -0.45321696913E+01  0.66362584622E+00 -0.29757924560E+01  0.54622616541E+01  0.51100000000E-03 0.  1.
        -12    1    4    4    0    0 -0.98407541914E+01 -0.42444540975E+01 -0.15966220713E+02  0.19229561552E+02  0.00000000000E+00 0.  1.
</event>
<event>
 8    1  0.2882335E-009  0.9118800E+02  0.7816164E-02  0.1184000E+00
        -11   -1    0    0    0    0  0.00000000000E+00  0.00000000000E+00  0.45593999997E+02  0.45594000000E+02  0.51100000000E-03 0. -1.
         11   -1    0    0    0    0 -0.00000000000E+00 -0.00000000000E+00 -0.45593999997E+02  0.45594000000E+02  0.51100000000E-03 0.  1.
         23    2    1    2    0    0  0.44408920985E-15  0.00000000000E+00 -0.71054273576E-14  0.91188000000E+02  0.91188000000E+02 0.  0.
    9900012    2    3    3    0    0 -0.29590938103E+01  0.14387461716E+02 -0.42583544523E+02  0.46142317022E+02  0.99999932588E+01 0.  0.
         12    1    3    3    0    0  0.29590938103E+01 -0.14387461716E+02  0.42583544523E+02  0.45045682978E+02  0.00000000000E+00 0. -1.
         11    1    4    4    0    0 -0.18058898830E+01  0.64797297099E-01 -0.36401613089E+01  0.40640142194E+01  0.51100000000E-03 0. -1.
        -11    1    4    4    0    0 -0.16517613925E+01  0.75760339604E+01 -0.29231899850E+02  0.30242826841E+02  0.51100000000E-03 0.  1.
         12    1    4    4    0    0  0.49855746524E+00  0.67466304581E+01 -0.97114833647E+01  0.11835475961E+02  0.00000000000E+00 0. -1.
</event>
<event>
 8    1  0.2882335E-009  0.9118800E+02  0.7816164E-02  0.1184000E+00
        -11   -1    0    0    0    0  0.00000000000E+00  0.00000000000E+00  0.45593999997E+02  0.45594000000E+02  0.51100000000E-03 0. -1.
         11   -1    0    0    0    0 -0.00000000000E+00 -0.00000000000E+00 -0.45593999997E+02  0.45594000000E+02  0.51100000000E-03 0.  1.
         23    2    1    2    0    0  0.00000000000E+00 -0.88817841970E-15  0.35527136788E-14  0.91188000000E+02  0.91188000000E+02 0.  0.
    9900012    2    3    3    0    0 -0.34877282708E+02 -0.68302119330E+01  0.27677370270E+02  0.46142317974E+02  0.10000001938E+02 0.  0.
        -12    1    3    3    0    0  0.34877282708E+02  0.68302119330E+01 -0.27677370270E+02  0.45045682026E+02  0.00000000000E+00 0.  1.
         11    1    4    4    0    0 -0.55423946602E+01 -0.43372136502E+01  0.32323425129E+01  0.77445205919E+01  0.51100000000E-03 0. -1.
        -11    1    4    4    0    0 -0.24462714549E+02 -0.27983180342E+01  0.19123661924E+02  0.31176424307E+02  0.51100000000E-03 0.  1.
        -12    1    4    4    0    0 -0.48721734989E+01  0.30531975133E+00  0.53213658334E+01  0.72213730749E+01  0.00000000000E+00 0.  1.
</event>
<event>
 8    1  0.2882335E-009  0.9118800E+02  0.7816164E-02  0.1184000E+00
        -11   -1    0    0    0    0  0.00000000000E+00  0.00000000000E+00  0.45593999997E+02  0.45594000000E+02  0.51100000000E-03 0. -1.
         11   -1    0    0    0    0 -0.00000000000E+00 -0.00000000000E+00 -0.45593999997E+02  0.45594000000E+02  0.51100000000E-03 0.  1.
         23    2    1    2    0    0 -0.13877787808E-15  0.00000000000E+00  0.00000000000E+00  0.91188000000E+02  0.91188000000E+02 0.  0.
    9900012    2    3    3    0    0 -0.88370028399E-01 -0.40925103316E+02  0.18821309121E+02  0.46142316880E+02  0.99999919668E+01 0.  0.
        -12    1    3    3    0    0  0.88370028399E-01  0.40925103316E+02 -0.18821309121E+02  0.45045683120E+02  0.00000000000E+00 0.  1.
         11    1    4    4    0    0 -0.27286604925E+01 -0.89495301888E+01  0.67325389558E+01  0.11526784449E+02  0.51100000000E-03 0. -1.
        -11    1    4    4    0    0  0.33231761293E+01 -0.23426503845E+02  0.71447665586E+01  0.24716234977E+02  0.51100000000E-03 0.  1.
        -12    1    4    4    0    0 -0.68288566516E+00 -0.85490692822E+01  0.49440036065E+01  0.98992974541E+01  0.00000000000E+00 0.  1.
</event>
<event>
 8    1  0.2882335E-009  0.9118800E+02  0.7816164E-02  0.1184000E+00
        -11   -1    0    0    0    0  0.00000000000E+00  0.00000000000E+00  0.45593999997E+02  0.45594000000E+02  0.51100000000E-03 0. -1.
         11   -1    0    0    0    0 -0.00000000000E+00 -0.00000000000E+00 -0.45593999997E+02  0.45594000000E+02  0.51100000000E-03 0.  1.
         23    2    1    2    0    0  0.88817841970E-15  0.17763568394E-14 -0.71054273576E-14  0.91188000000E+02  0.91188000000E+02 0.  0.
    9900012    2    3    3    0    0 -0.68377979250E+01 -0.52604918245E+01  0.44211822562E+02  0.46142317532E+02  0.99999979120E+01 0.  0.
        -12    1    3    3    0    0  0.68377979250E+01  0.52604918245E+01 -0.44211822562E+02  0.45045682468E+02  0.00000000000E+00 0.  1.
         11    1    4    4    0    0 -0.49262807517E+01  0.97788931574E+00  0.16314245806E+02  0.17069830873E+02  0.51100000000E-03 0. -1.
        -11    1    4    4    0    0 -0.30186243719E+01 -0.63616475098E+01  0.23226030661E+02  0.24269964002E+02  0.51100000000E-03 0.  1.
        -12    1    4    4    0    0  0.11071071986E+01  0.12326636962E+00  0.46715460948E+01  0.48025226562E+01  0.00000000000E+00 0.  1.
</event>
<event>
 8    1  0.2882335E-009  0.9118800E+02  0.7816164E-02  0.1184000E+00
        -11   -1    0    0    0    0  0.00000000000E+00  0.00000000000E+00  0.45593999997E+02  0.45594000000E+02  0.51100000000E-03 0. -1.
         11   -1    0    0    0    0 -0.00000000000E+00 -0.00000000000E+00 -0.45593999997E+02  0.45594000000E+02  0.51100000000E-03 0.  1.
         23    2    1    2    0    0  0.00000000000E+00 -0.71054273576E-14  0.00000000000E+00  0.91188000000E+02  0.91188000000E+02 0.  0.
    9900012    2    3    3    0    0  0.32131732953E+02  0.29813715227E+02 -0.10383034390E+02  0.46142320059E+02  0.10000020958E+02 0.  0.
         12    1    3    3    0    0 -0.32131732953E+02 -0.29813715227E+02  0.10383034390E+02  0.45045679941E+02  0.00000000000E+00 0. -1.
         11    1    4    4    0    0  0.25214200325E+02  0.21657646813E+02 -0.44621219513E+01  0.33536846842E+02  0.51100000000E-03 0. -1.
        -11    1    4    4    0    0  0.14129707014E+01  0.99343226715E+00 -0.22929278484E+01  0.28706989134E+01  0.51100000000E-03 0.  1.
         12    1    4    4    0    0  0.55045619258E+01  0.71626361464E+01 -0.36279845904E+01  0.97347743039E+01  0.00000000000E+00 0. -1.
</event>
<event>
 8    1  0.2882335E-009  0.9118800E+02  0.7816164E-02  0.1184000E+00
        -11   -1    0    0    0    0  0.00000000000E+00  0.00000000000E+00  0.45593999997E+02  0.45594000000E+02  0.51100000000E-03 0.  1.
         11   -1    0    0    0    0 -0.00000000000E+00 -0.00000000000E+00 -0.45593999997E+02  0.45594000000E+02  0.51100000000E-03 0. -1.
         23    2    1    2    0    0  0.71054273576E-14  0.00000000000E+00  0.00000000000E+00  0.91188000000E+02  0.91188000000E+02 0.  0.
    9900012    2    3    3    0    0  0.33569345111E+02  0.29995223008E+02  0.15808682040E+01  0.46142317868E+02  0.10000000973E+02 0.  0.
         12    1    3    3    0    0 -0.33569345111E+02 -0.29995223008E+02 -0.15808682040E+01  0.45045682132E+02  0.00000000000E+00 0. -1.
         11    1    4    4    0    0  0.11398630429E+01  0.17528952596E+01  0.16463138150E+01  0.26612551525E+01  0.51100000000E-03 0. -1.
        -11    1    4    4    0    0  0.20241517486E+02  0.13433753815E+02 -0.45406073383E+00  0.24297961707E+02  0.51100000000E-03 0.  1.
         12    1    4    4    0    0  0.12187964582E+02  0.14808573933E+02  0.38861512282E+00  0.19183101008E+02  0.00000000000E+00 0. -1.
</event>
<event>
 8    1  0.2882335E-009  0.9118800E+02  0.7816164E-02  0.1184000E+00
        -11   -1    0    0    0    0  0.00000000000E+00  0.00000000000E+00  0.45593999997E+02  0.45594000000E+02  0.51100000000E-03 0. -1.
         11   -1    0    0    0    0 -0.00000000000E+00 -0.00000000000E+00 -0.45593999997E+02  0.45594000000E+02  0.51100000000E-03 0.  1.
         23    2    1    2    0    0  0.00000000000E+00 -0.30531133177E-15  0.00000000000E+00  0.91188000000E+02  0.91188000000E+02 0.  0.
    9900012    2    3    3    0    0 -0.50429847953E+01 -0.22823015197E+00 -0.44761921034E+02  0.46142319194E+02  0.10000013066E+02 0.  0.
         12    1    3    3    0    0  0.50429847953E+01  0.22823015197E+00  0.44761921034E+02  0.45045680806E+02  0.00000000000E+00 0. -1.
         11    1    4    4    0    0 -0.38985714846E+01 -0.53445288909E+00 -0.61210108323E+01  0.72767625619E+01  0.51100000000E-03 0. -1.
        -11    1    4    4    0    0 -0.65339507564E+00 -0.18131113074E+01 -0.21728502985E+02  0.21813806178E+02  0.51100000000E-03 0.  1.
         12    1    4    4    0    0 -0.49101823507E+00  0.21193340445E+01 -0.16912407217E+02  0.17051750455E+02  0.00000000000E+00 0. -1.
</event>
<event>
 8    1  0.2882335E-009  0.9118800E+02  0.7816164E-02  0.1184000E+00
        -11   -1    0    0    0    0  0.00000000000E+00  0.00000000000E+00  0.45593999997E+02  0.45594000000E+02  0.51100000000E-03 0. -1.
         11   -1    0    0    0    0 -0.00000000000E+00 -0.00000000000E+00 -0.45593999997E+02  0.45594000000E+02  0.51100000000E-03 0.  1.
         23    2    1    2    0    0  0.35527136788E-14  0.17763568394E-14  0.00000000000E+00  0.91188000000E+02  0.91188000000E+02 0.  0.
    9900012    2    3    3    0    0 -0.26510134938E+02  0.12939365292E+02  0.34042606696E+02  0.46142317640E+02  0.99999988989E+01 0.  0.
        -12    1    3    3    0    0  0.26510134938E+02 -0.12939365292E+02 -0.34042606696E+02  0.45045682360E+02  0.00000000000E+00 0.  1.
         11    1    4    4    0    0 -0.26344468322E+02  0.11911846872E+02  0.33590848082E+02  0.44320065232E+02  0.51100000000E-03 0. -1.
        -11    1    4    4    0    0 -0.39231819446E-01  0.10296586181E-01  0.75281530596E+00  0.75390735595E+00  0.51100000000E-03 0.  1.
         12    1    4    4    0    0 -0.12643479714E+00  0.10172218341E+01 -0.30105669273E+00  0.10683450519E+01  0.00000000000E+00 0. -1.
</event>
<event>
 8    1  0.2882335E-009  0.9118800E+02  0.7816164E-02  0.1184000E+00
        -11   -1    0    0    0    0  0.00000000000E+00  0.00000000000E+00  0.45593999997E+02  0.45594000000E+02  0.51100000000E-03 0. -1.
         11   -1    0    0    0    0 -0.00000000000E+00 -0.00000000000E+00 -0.45593999997E+02  0.45594000000E+02  0.51100000000E-03 0.  1.
         23    2    1    2    0    0  0.00000000000E+00  0.00000000000E+00  0.00000000000E+00  0.91188000000E+02  0.91188000000E+02 0.  0.
    9900012    2    3    3    0    0  0.28363618946E+02 -0.83896643063E+01 -0.33973993021E+02  0.46142317091E+02  0.99999938926E+01 0.  0.
         12    1    3    3    0    0 -0.28363618946E+02  0.83896643063E+01  0.33973993021E+02  0.45045682909E+02  0.00000000000E+00 0. -1.
         11    1    4    4    0    0  0.13906216383E+02  0.16651171163E+00 -0.14585533917E+02  0.20153123335E+02  0.51100000000E-03 0.  1.
        -11    1    4    4    0    0  0.50900026994E+01 -0.52292996659E+01 -0.70767698006E+01  0.10165351620E+02  0.51100000000E-03 0. -1.
        -12    1    4    4    0    0  0.93673998635E+01 -0.33268763520E+01 -0.12311689303E+02  0.15823842137E+02  0.00000000000E+00 0.  1.
</event>
<event>
 8    1  0.2882335E-009  0.9118800E+02  0.7816164E-02  0.1184000E+00
        -11   -1    0    0    0    0  0.00000000000E+00  0.00000000000E+00  0.45593999997E+02  0.45594000000E+02  0.51100000000E-03 0. -1.
         11   -1    0    0    0    0 -0.00000000000E+00 -0.00000000000E+00 -0.45593999997E+02  0.45594000000E+02  0.51100000000E-03 0.  1.
         23    2    1    2    0    0  0.44408920985E-15 -0.35527136788E-14  0.00000000000E+00  0.91188000000E+02  0.91188000000E+02 0.  0.
    9900012    2    3    3    0    0  0.39247259243E+01 -0.28591206649E+02  0.34586890033E+02  0.46142317262E+02  0.99999954463E+01 0.  0.
        -12    1    3    3    0    0 -0.39247259243E+01  0.28591206649E+02 -0.34586890033E+02  0.45045682738E+02  0.00000000000E+00 0.  1.
         11    1    4    4    0    0 -0.14520458821E+01 -0.10666715842E+02  0.13139845363E+02  0.16986547634E+02  0.51100000000E-03 0. -1.
        -11    1    4    4    0    0  0.56918147058E+01 -0.85934731956E+01  0.12759330280E+02  0.16402592651E+02  0.51100000000E-03 0.  1.
        -12    1    4    4    0    0 -0.31504289939E+00 -0.93310176114E+01  0.86877143896E+01  0.12753176977E+02  0.00000000000E+00 0.  1.
</event>
<event>
 8    1  0.2882335E-009  0.9118800E+02  0.7816164E-02  0.1184000E+00
        -11   -1    0    0    0    0  0.00000000000E+00  0.00000000000E+00  0.45593999997E+02  0.45594000000E+02  0.51100000000E-03 0. -1.
         11   -1    0    0    0    0 -0.00000000000E+00 -0.00000000000E+00 -0.45593999997E+02  0.45594000000E+02  0.51100000000E-03 0.  1.
         23    2    1    2    0    0  0.17763568394E-14  0.00000000000E+00  0.00000000000E+00  0.91188000000E+02  0.91188000000E+02 0.  0.
    9900012    2    3    3    0    0 -0.11163871037E+02  0.40850311553E+02 -0.15353615126E+02  0.46142317988E+02  0.10000002071E+02 0.  0.
         12    1    3    3    0    0  0.11163871037E+02 -0.40850311553E+02  0.15353615126E+02  0.45045682012E+02  0.00000000000E+00 0. -1.
         11    1    4    4    0    0 -0.32313245448E+01  0.11444302456E+02 -0.35896111950E+00  0.11897158079E+02  0.51100000000E-03 0. -1.
        -11    1    4    4    0    0 -0.84481395302E+01  0.26567368272E+02 -0.13179722417E+02  0.30836685971E+02  0.51100000000E-03 0.  1.
         12    1    4    4    0    0  0.51559303811E+00  0.28386408252E+01 -0.18149315890E+01  0.34084739384E+01  0.00000000000E+00 0. -1.
</event>
<event>
 8    1  0.2882335E-009  0.9118800E+02  0.7816164E-02  0.1184000E+00
        -11   -1    0    0    0    0  0.00000000000E+00  0.00000000000E+00  0.45593999997E+02  0.45594000000E+02  0.51100000000E-03 0.  1.
         11   -1    0    0    0    0 -0.00000000000E+00 -0.00000000000E+00 -0.45593999997E+02  0.45594000000E+02  0.51100000000E-03 0. -1.
         23    2    1    2    0    0 -0.14210854715E-13 -0.35527136788E-14  0.88817841970E-15  0.91188000000E+02  0.91188000000E+02 0.  0.
    9900012    2    3    3    0    0 -0.40209768255E+02 -0.19389606432E+02  0.60275315405E+01  0.46142318329E+02  0.10000005179E+02 0.  0.
        -12    1    3    3    0    0  0.40209768255E+02  0.19389606432E+02 -0.60275315405E+01  0.45045681671E+02  0.00000000000E+00 0.  1.
         11    1    4    4    0    0 -0.10335391633E+02 -0.32142515079E+01  0.28376912970E+01  0.11189469385E+02  0.51100000000E-03 0. -1.
        -11    1    4    4    0    0 -0.29188028066E+02 -0.15462275948E+02  0.15865981333E+01  0.33068720172E+02  0.51100000000E-03 0.  1.
        -12    1    4    4    0    0 -0.68634855599E+00 -0.71307897658E+00  0.16032421102E+01  0.18841287724E+01  0.00000000000E+00 0.  1.
</event>
<event>
 8    1  0.2882335E-009  0.9118800E+02  0.7816164E-02  0.1184000E+00
        -11   -1    0    0    0    0  0.00000000000E+00  0.00000000000E+00  0.45593999997E+02  0.45594000000E+02  0.51100000000E-03 0. -1.
         11   -1    0    0    0    0 -0.00000000000E+00 -0.00000000000E+00 -0.45593999997E+02  0.45594000000E+02  0.51100000000E-03 0.  1.
         23    2    1    2    0    0  0.00000000000E+00  0.00000000000E+00  0.71054273576E-14  0.91188000000E+02  0.91188000000E+02 0.  0.
    9900012    2    3    3    0    0  0.14864056859E+02 -0.12314346404E+02  0.40700489374E+02  0.46142321529E+02  0.10000034359E+02 0.  0.
        -12    1    3    3    0    0 -0.14864056859E+02  0.12314346404E+02 -0.40700489374E+02  0.45045678471E+02  0.00000000000E+00 0.  1.
         11    1    4    4    0    0  0.79337576093E+01 -0.10345689353E+02  0.19269681242E+02  0.23265820712E+02  0.51100000000E-03 0. -1.
        -11    1    4    4    0    0  0.23227793992E+01 -0.14821411788E+01  0.12668609609E+02  0.12964787553E+02  0.51100000000E-03 0.  1.
         12    1    4    4    0    0  0.46075198503E+01 -0.48651587153E+00  0.87621985233E+01  0.99117132639E+01  0.00000000000E+00 0. -1.
</event>
<event>
 8    1  0.2882335E-009  0.9118800E+02  0.7816164E-02  0.1184000E+00
        -11   -1    0    0    0    0  0.00000000000E+00  0.00000000000E+00  0.45593999997E+02  0.45594000000E+02  0.51100000000E-03 0. -1.
         11   -1    0    0    0    0 -0.00000000000E+00 -0.00000000000E+00 -0.45593999997E+02  0.45594000000E+02  0.51100000000E-03 0.  1.
         23    2    1    2    0    0  0.00000000000E+00  0.00000000000E+00  0.00000000000E+00  0.91188000000E+02  0.91188000000E+02 0.  0.
    9900012    2    3    3    0    0 -0.85518467894E+01 -0.16434520951E+02  0.41059542210E+02  0.46142316868E+02  0.99999918535E+01 0.  0.
        -12    1    3    3    0    0  0.85518467894E+01  0.16434520951E+02 -0.41059542210E+02  0.45045683132E+02  0.00000000000E+00 0.  1.
         11    1    4    4    0    0 -0.68532552640E+01 -0.79904513208E+01  0.28095800871E+02  0.30003140617E+02  0.51100000000E-03 0. -1.
        -11    1    4    4    0    0 -0.74747451649E+00 -0.85467630393E+01  0.10958430872E+02  0.13917366275E+02  0.51100000000E-03 0.  1.
        -12    1    4    4    0    0 -0.95111700895E+00  0.10269340922E+00  0.20053104660E+01  0.22218099753E+01  0.00000000000E+00 0.  1.
</event>
<event>
 8    1  0.2882335E-009  0.9118800E+02  0.7816164E-02  0.1184000E+00
        -11   -1    0    0    0    0  0.00000000000E+00  0.00000000000E+00  0.45593999997E+02  0.45594000000E+02  0.51100000000E-03 0. -1.
         11   -1    0    0    0    0 -0.00000000000E+00 -0.00000000000E+00 -0.45593999997E+02  0.45594000000E+02  0.51100000000E-03 0.  1.
         23    2    1    2    0    0  0.00000000000E+00 -0.17763568394E-14  0.00000000000E+00  0.91188000000E+02  0.91188000000E+02 0.  0.
    9900012    2    3    3    0    0 -0.18430813135E+01 -0.14147125808E+02  0.42726752427E+02  0.46142317740E+02  0.99999998052E+01 0.  0.
        -12    1    3    3    0    0  0.18430813135E+01  0.14147125808E+02 -0.42726752427E+02  0.45045682260E+02  0.00000000000E+00 0.  1.
         11    1    4    4    0    0 -0.30160954305E+00 -0.91580394337E+01  0.19075349807E+02  0.21161985377E+02  0.51100000000E-03 0. -1.
        -11    1    4    4    0    0  0.13085829769E+01 -0.33622888136E+01  0.58061171142E+01  0.68358153631E+01  0.51100000000E-03 0.  1.
        -12    1    4    4    0    0 -0.28500547473E+01 -0.16267975605E+01  0.17845285506E+02  0.18144517000E+02  0.00000000000E+00 0.  1.
</event>
<event>
 8    1  0.2882335E-009  0.9118800E+02  0.7816164E-02  0.1184000E+00
        -11   -1    0    0    0    0  0.00000000000E+00  0.00000000000E+00  0.45593999997E+02  0.45594000000E+02  0.51100000000E-03 0. -1.
         11   -1    0    0    0    0 -0.00000000000E+00 -0.00000000000E+00 -0.45593999997E+02  0.45594000000E+02  0.51100000000E-03 0.  1.
         23    2    1    2    0    0  0.00000000000E+00  0.00000000000E+00  0.00000000000E+00  0.91188000000E+02  0.91188000000E+02 0.  0.
    9900012    2    3    3    0    0 -0.67038595545E+01  0.36603853356E+02  0.25383649134E+02  0.46142318111E+02  0.10000003193E+02 0.  0.
        -12    1    3    3    0    0  0.67038595545E+01 -0.36603853356E+02 -0.25383649134E+02  0.45045681889E+02  0.00000000000E+00 0.  1.
         11    1    4    4    0    0 -0.15759372721E+01  0.15151491327E+02  0.14707830301E+02  0.21174785481E+02  0.51100000000E-03 0.  1.
        -11    1    4    4    0    0 -0.10344427557E+01  0.54026757280E+00  0.80564861851E-01  0.11698084557E+01  0.51100000000E-03 0. -1.
         12    1    4    4    0    0 -0.40934795268E+01  0.20912094457E+02  0.10595253971E+02  0.23797724175E+02  0.00000000000E+00 0. -1.
</event>
<event>
 8    1  0.2882335E-009  0.9118800E+02  0.7816164E-02  0.1184000E+00
        -11   -1    0    0    0    0  0.00000000000E+00  0.00000000000E+00  0.45593999997E+02  0.45594000000E+02  0.51100000000E-03 0. -1.
         11   -1    0    0    0    0 -0.00000000000E+00 -0.00000000000E+00 -0.45593999997E+02  0.45594000000E+02  0.51100000000E-03 0.  1.
         23    2    1    2    0    0  0.00000000000E+00  0.17763568394E-14  0.71054273576E-14  0.91188000000E+02  0.91188000000E+02 0.  0.
    9900012    2    3    3    0    0 -0.17933768942E+02  0.13380771948E+02  0.39095374986E+02  0.46142317947E+02  0.10000001693E+02 0.  0.
        -12    1    3    3    0    0  0.17933768942E+02 -0.13380771948E+02 -0.39095374986E+02  0.45045682053E+02  0.00000000000E+00 0.  1.
         11    1    4    4    0    0 -0.17852408855E+02  0.10965644173E+02  0.31775281142E+02  0.38060771747E+02  0.51100000000E-03 0. -1.
        -11    1    4    4    0    0 -0.73970411145E+00  0.97535480606E+00  0.56469997228E+01  0.57781558737E+01  0.51100000000E-03 0.  1.
         12    1    4    4    0    0  0.65834402499E+00  0.14397729689E+01  0.16730941213E+01  0.23033903264E+01  0.00000000000E+00 0. -1.
</event>
<event>
 8    1  0.2882335E-009  0.9118800E+02  0.7816164E-02  0.1184000E+00
        -11   -1    0    0    0    0  0.00000000000E+00  0.00000000000E+00  0.45593999997E+02  0.45594000000E+02  0.51100000000E-03 0. -1.
         11   -1    0    0    0    0 -0.00000000000E+00 -0.00000000000E+00 -0.45593999997E+02  0.45594000000E+02  0.51100000000E-03 0.  1.
         23    2    1    2    0    0  0.00000000000E+00 -0.17763568394E-14 -0.71054273576E-14  0.91188000000E+02  0.91188000000E+02 0.  0.
    9900012    2    3    3    0    0 -0.55412217164E+01 -0.13941414702E+02  0.42474051487E+02  0.46142320610E+02  0.10000025978E+02 0.  0.
        -12    1    3    3    0    0  0.55412217164E+01  0.13941414702E+02 -0.42474051487E+02  0.45045679390E+02  0.00000000000E+00 0.  1.
         11    1    4    4    0    0 -0.11928355650E+01 -0.43776237395E+01  0.25553380544E+02  0.25953067329E+02  0.51100000000E-03 0. -1.
        -11    1    4    4    0    0 -0.19914041187E+01 -0.27585760098E+01  0.30907917539E+01  0.45965667506E+01  0.51100000000E-03 0.  1.
         12    1    4    4    0    0 -0.23569820326E+01 -0.68052149531E+01  0.13829879189E+02  0.15592686530E+02  0.00000000000E+00 0. -1.
</event>
<event>
 8    1  0.2882335E-009  0.9118800E+02  0.7816164E-02  0.1184000E+00
        -11   -1    0    0    0    0  0.00000000000E+00  0.00000000000E+00  0.45593999997E+02  0.45594000000E+02  0.51100000000E-03 0.  1.
         11   -1    0    0    0    0 -0.00000000000E+00 -0.00000000000E+00 -0.45593999997E+02  0.45594000000E+02  0.51100000000E-03 0. -1.
         23    2    1    2    0    0  0.00000000000E+00 -0.22204460493E-15 -0.88817841970E-15  0.91188000000E+02  0.91188000000E+02 0.  0.
    9900012    2    3    3    0    0 -0.44664063591E+02 -0.61837468195E+00  0.58182951414E+01  0.46142317387E+02  0.99999965884E+01 0.  0.
        -12    1    3    3    0    0  0.44664063591E+02  0.61837468195E+00 -0.58182951414E+01  0.45045682613E+02  0.00000000000E+00 0.  1.
         11    1    4    4    0    0 -0.13350354673E+02  0.23079239746E+01  0.38289827333E+01  0.14079047979E+02  0.51100000000E-03 0. -1.
        -11    1    4    4    0    0 -0.14073530901E+02 -0.41820778900E+01  0.17868014885E+00  0.14682846263E+02  0.51100000000E-03 0.  1.
        -12    1    4    4    0    0 -0.17240178017E+02  0.12557792335E+01  0.18106322593E+01  0.17380423145E+02  0.00000000000E+00 0.  1.
</event>
<event>
 8    1  0.2882335E-009  0.9118800E+02  0.7816164E-02  0.1184000E+00
        -11   -1    0    0    0    0  0.00000000000E+00  0.00000000000E+00  0.45593999997E+02  0.45594000000E+02  0.51100000000E-03 0. -1.
         11   -1    0    0    0    0 -0.00000000000E+00 -0.00000000000E+00 -0.45593999997E+02  0.45594000000E+02  0.51100000000E-03 0.  1.
         23    2    1    2    0    0  0.88817841970E-15  0.35527136788E-14  0.00000000000E+00  0.91188000000E+02  0.91188000000E+02 0.  0.
    9900012    2    3    3    0    0  0.63293784302E+01 -0.24096226024E+02  0.37528980049E+02  0.46142317816E+02  0.10000000498E+02 0.  0.
        -12    1    3    3    0    0 -0.63293784302E+01  0.24096226024E+02 -0.37528980049E+02  0.45045682184E+02  0.00000000000E+00 0.  1.
         11    1    4    4    0    0  0.45339855214E+01 -0.10955361221E+02  0.10698094946E+02  0.15969539753E+02  0.51100000000E-03 0. -1.
        -11    1    4    4    0    0 -0.25700829989E+00 -0.94703720492E+01  0.20348006290E+02  0.22445386169E+02  0.51100000000E-03 0.  1.
         12    1    4    4    0    0  0.20524012087E+01 -0.36704927540E+01  0.64828788137E+01  0.77273918945E+01  0.00000000000E+00 0. -1.
</event>
<event>
 8    1  0.2882335E-009  0.9118800E+02  0.7816164E-02  0.1184000E+00
        -11   -1    0    0    0    0  0.00000000000E+00  0.00000000000E+00  0.45593999997E+02  0.45594000000E+02  0.51100000000E-03 0. -1.
         11   -1    0    0    0    0 -0.00000000000E+00 -0.00000000000E+00 -0.45593999997E+02  0.45594000000E+02  0.51100000000E-03 0.  1.
         23    2    1    2    0    0 -0.35527136788E-14  0.00000000000E+00 -0.17763568394E-14  0.91188000000E+02  0.91188000000E+02 0.  0.
    9900012    2    3    3    0    0 -0.19673409475E+02 -0.39062079524E+02  0.10780742151E+02  0.46142317650E+02  0.99999989825E+01 0.  0.
        -12    1    3    3    0    0  0.19673409475E+02  0.39062079524E+02 -0.10780742151E+02  0.45045682350E+02  0.00000000000E+00 0.  1.
         11    1    4    4    0    0 -0.18405736710E+02 -0.30764431702E+02  0.11449707919E+02  0.37633990135E+02  0.51100000000E-03 0. -1.
        -11    1    4    4    0    0 -0.56605960148E+00 -0.62100603201E+01 -0.11268662146E+00  0.62368238061E+01  0.51100000000E-03 0.  1.
         12    1    4    4    0    0 -0.70161316371E+00 -0.20875875012E+01 -0.55627914695E+00  0.22715037081E+01  0.00000000000E+00 0. -1.
</event>
<event>
 8    1  0.2882335E-009  0.9118800E+02  0.7816164E-02  0.1184000E+00
        -11   -1    0    0    0    0  0.00000000000E+00  0.00000000000E+00  0.45593999997E+02  0.45594000000E+02  0.51100000000E-03 0. -1.
         11   -1    0    0    0    0 -0.00000000000E+00 -0.00000000000E+00 -0.45593999997E+02  0.45594000000E+02  0.51100000000E-03 0.  1.
         23    2    1    2    0    0  0.35527136788E-14  0.00000000000E+00  0.00000000000E+00  0.91188000000E+02  0.91188000000E+02 0.  0.
    9900012    2    3    3    0    0  0.17783894972E+02  0.40450921760E+02  0.87504826022E+01  0.46142301677E+02  0.99998533337E+01 0.  0.
        -12    1    3    3    0    0 -0.17783894972E+02 -0.40450921760E+02 -0.87504826022E+01  0.45045698323E+02  0.00000000000E+00 0.  1.
         11    1    4    4    0    0  0.76690554327E+01  0.86315173779E+01  0.11747860254E+01  0.11605930637E+02  0.51100000000E-03 0. -1.
        -11    1    4    4    0    0  0.39918991024E+01  0.19872087657E+02  0.44116363149E+01  0.20743617368E+02  0.51100000000E-03 0.  1.
         12    1    4    4    0    0  0.61229404370E+01  0.11947316725E+02  0.31640602619E+01  0.13792753673E+02  0.00000000000E+00 0. -1.
</event>
<event>
 8    1  0.2882335E-009  0.9118800E+02  0.7816164E-02  0.1184000E+00
        -11   -1    0    0    0    0  0.00000000000E+00  0.00000000000E+00  0.45593999997E+02  0.45594000000E+02  0.51100000000E-03 0. -1.
         11   -1    0    0    0    0 -0.00000000000E+00 -0.00000000000E+00 -0.45593999997E+02  0.45594000000E+02  0.51100000000E-03 0.  1.
         23    2    1    2    0    0 -0.22204460493E-15  0.00000000000E+00 -0.35527136788E-14  0.91188000000E+02  0.91188000000E+02 0.  0.
    9900012    2    3    3    0    0  0.17765283923E+01 -0.36019048631E+02  0.26992324353E+02  0.46142317728E+02  0.99999996953E+01 0.  0.
        -12    1    3    3    0    0 -0.17765283923E+01  0.36019048631E+02 -0.26992324353E+02  0.45045682272E+02  0.00000000000E+00 0.  1.
         11    1    4    4    0    0 -0.12606449230E+01 -0.47817474399E+01  0.35420382666E+01  0.60827929065E+01  0.51100000000E-03 0. -1.
        -11    1    4    4    0    0 -0.84025275981E+00 -0.22021039793E+02  0.19072928723E+02  0.29144619205E+02  0.51100000000E-03 0.  1.
        -12    1    4    4    0    0  0.38774260751E+01 -0.92162613981E+01  0.43773573632E+01  0.10914905616E+02  0.00000000000E+00 0.  1.
</event>
<event>
 8    1  0.2882335E-009  0.9118800E+02  0.7816164E-02  0.1184000E+00
        -11   -1    0    0    0    0  0.00000000000E+00  0.00000000000E+00  0.45593999997E+02  0.45594000000E+02  0.51100000000E-03 0. -1.
         11   -1    0    0    0    0 -0.00000000000E+00 -0.00000000000E+00 -0.45593999997E+02  0.45594000000E+02  0.51100000000E-03 0.  1.
         23    2    1    2    0    0  0.00000000000E+00  0.00000000000E+00  0.00000000000E+00  0.91188000000E+02  0.91188000000E+02 0.  0.
    9900012    2    3    3    0    0  0.35453802877E+02 -0.89820130736E+01 -0.26295719286E+02  0.46142317076E+02  0.99999937547E+01 0.  0.
         12    1    3    3    0    0 -0.35453802877E+02  0.89820130736E+01  0.26295719286E+02  0.45045682924E+02  0.00000000000E+00 0. -1.
         11    1    4    4    0    0  0.84049896629E+01  0.38643037829E-01 -0.96888871530E+01  0.12826530281E+02  0.51100000000E-03 0. -1.
        -11    1    4    4    0    0  0.40290804116E+01 -0.24085863607E+01 -0.12251844159E+01  0.48513765401E+01  0.51100000000E-03 0.  1.
         12    1    4    4    0    0  0.23019732803E+02 -0.66120697507E+01 -0.15381647717E+02  0.28464410255E+02  0.00000000000E+00 0. -1.
</event>
<event>
 8    1  0.2882335E-009  0.9118800E+02  0.7816164E-02  0.1184000E+00
        -11   -1    0    0    0    0  0.00000000000E+00  0.00000000000E+00  0.45593999997E+02  0.45594000000E+02  0.51100000000E-03 0. -1.
         11   -1    0    0    0    0 -0.00000000000E+00 -0.00000000000E+00 -0.45593999997E+02  0.45594000000E+02  0.51100000000E-03 0.  1.
         23    2    1    2    0    0  0.35527136788E-14 -0.35527136788E-14  0.00000000000E+00  0.91188000000E+02  0.91188000000E+02 0.  0.
    9900012    2    3    3    0    0 -0.16875998506E+02 -0.20749569407E+02  0.36245959321E+02  0.46142317374E+02  0.99999964682E+01 0.  0.
        -12    1    3    3    0    0  0.16875998506E+02  0.20749569407E+02 -0.36245959321E+02  0.45045682626E+02  0.00000000000E+00 0.  1.
         11    1    4    4    0    0 -0.81962000239E+01 -0.12688253547E+02  0.15266107838E+02  0.21476115145E+02  0.51100000000E-03 0. -1.
        -11    1    4    4    0    0 -0.55200860662E+01 -0.30891481455E+01  0.14964449636E+02  0.16246505459E+02  0.51100000000E-03 0.  1.
        -12    1    4    4    0    0 -0.31597124162E+01 -0.49721677145E+01  0.60154018462E+01  0.84196967704E+01  0.00000000000E+00 0.  1.
</event>
<event>
 8    1  0.2882335E-009  0.9118800E+02  0.7816164E-02  0.1184000E+00
        -11   -1    0    0    0    0  0.00000000000E+00  0.00000000000E+00  0.45593999997E+02  0.45594000000E+02  0.51100000000E-03 0. -1.
         11   -1    0    0    0    0 -0.00000000000E+00 -0.00000000000E+00 -0.45593999997E+02  0.45594000000E+02  0.51100000000E-03 0.  1.
         23    2    1    2    0    0  0.00000000000E+00  0.88817841970E-15  0.00000000000E+00  0.91188000000E+02  0.91188000000E+02 0.  0.
    9900012    2    3    3    0    0 -0.31425381135E+02  0.68893953374E+01  0.31529273408E+02  0.46142318418E+02  0.10000005986E+02 0.  0.
        -12    1    3    3    0    0  0.31425381135E+02 -0.68893953374E+01 -0.31529273408E+02  0.45045681582E+02  0.00000000000E+00 0.  1.
         11    1    4    4    0    0 -0.11405604795E+02  0.16773683563E+01  0.11266407984E+02  0.16119346589E+02  0.51100000000E-03 0. -1.
        -11    1    4    4    0    0 -0.88004424019E+01  0.19800117548E+01  0.14314082399E+02  0.16919254954E+02  0.51100000000E-03 0.  1.
        -12    1    4    4    0    0 -0.11219333938E+02  0.32320152264E+01  0.59487830247E+01  0.13103716874E+02  0.00000000000E+00 0.  1.
</event>
<event>
 8    1  0.2882335E-009  0.9118800E+02  0.7816164E-02  0.1184000E+00
        -11   -1    0    0    0    0  0.00000000000E+00  0.00000000000E+00  0.45593999997E+02  0.45594000000E+02  0.51100000000E-03 0. -1.
         11   -1    0    0    0    0 -0.00000000000E+00 -0.00000000000E+00 -0.45593999997E+02  0.45594000000E+02  0.51100000000E-03 0.  1.
         23    2    1    2    0    0  0.00000000000E+00 -0.35527136788E-14  0.00000000000E+00  0.91188000000E+02  0.91188000000E+02 0.  0.
    9900012    2    3    3    0    0  0.24502101433E+02  0.24115458759E+02  0.29106789852E+02  0.46142317174E+02  0.99999946453E+01 0.  0.
        -12    1    3    3    0    0 -0.24502101433E+02 -0.24115458759E+02 -0.29106789852E+02  0.45045682826E+02  0.00000000000E+00 0.  1.
         11    1    4    4    0    0  0.90126082349E+01  0.94614082151E+01  0.10971449837E+02  0.17062182287E+02  0.51100000000E-03 0. -1.
        -11    1    4    4    0    0  0.61086327073E+01  0.81828852954E+01  0.13128944700E+02  0.16632624402E+02  0.51100000000E-03 0.  1.
        -12    1    4    4    0    0  0.93808604903E+01  0.64711652490E+01  0.50063953151E+01  0.12447510485E+02  0.00000000000E+00 0.  1.
</event>
<event>
 8    1  0.2882335E-009  0.9118800E+02  0.7816164E-02  0.1184000E+00
        -11   -1    0    0    0    0  0.00000000000E+00  0.00000000000E+00  0.45593999997E+02  0.45594000000E+02  0.51100000000E-03 0. -1.
         11   -1    0    0    0    0 -0.00000000000E+00 -0.00000000000E+00 -0.45593999997E+02  0.45594000000E+02  0.51100000000E-03 0.  1.
         23    2    1    2    0    0 -0.35527136788E-14  0.00000000000E+00 -0.71054273576E-14  0.91188000000E+02  0.91188000000E+02 0.  0.
    9900012    2    3    3    0    0  0.16875373166E+02  0.17577124720E+02 -0.37886408256E+02  0.46142318037E+02  0.10000002517E+02 0.  0.
         12    1    3    3    0    0 -0.16875373166E+02 -0.17577124720E+02  0.37886408256E+02  0.45045681963E+02  0.00000000000E+00 0. -1.
         11    1    4    4    0    0  0.61806010824E+01  0.36216081133E+01 -0.53705377505E+01  0.89531307964E+01  0.51100000000E-03 0. -1.
        -11    1    4    4    0    0  0.10192270806E+02  0.11153373911E+02 -0.25864268907E+02  0.29953973696E+02  0.51100000000E-03 0.  1.
         12    1    4    4    0    0  0.50250127831E+00  0.28021426957E+01 -0.66516015984E+01  0.72352135452E+01  0.00000000000E+00 0. -1.
</event>
<event>
 8    1  0.2882335E-009  0.9118800E+02  0.7816164E-02  0.1184000E+00
        -11   -1    0    0    0    0  0.00000000000E+00  0.00000000000E+00  0.45593999997E+02  0.45594000000E+02  0.51100000000E-03 0. -1.
         11   -1    0    0    0    0 -0.00000000000E+00 -0.00000000000E+00 -0.45593999997E+02  0.45594000000E+02  0.51100000000E-03 0.  1.
         23    2    1    2    0    0  0.17763568394E-14  0.00000000000E+00  0.71054273576E-14  0.91188000000E+02  0.91188000000E+02 0.  0.
    9900012    2    3    3    0    0  0.14853216756E+02 -0.94709276465E+01  0.41458378068E+02  0.46142316183E+02  0.99999856133E+01 0.  0.
        -12    1    3    3    0    0 -0.14853216756E+02  0.94709276465E+01 -0.41458378068E+02  0.45045683817E+02  0.00000000000E+00 0.  1.
         11    1    4    4    0    0  0.41245864670E+01 -0.24883912376E+01  0.14585788753E+02  0.15360649019E+02  0.51100000000E-03 0. -1.
        -11    1    4    4    0    0 -0.93493133772E+00 -0.45374346559E+00  0.37714023368E+00  0.11055382200E+01  0.51100000000E-03 0.  1.
        -12    1    4    4    0    0  0.11663561627E+02 -0.65287929433E+01  0.26495449081E+02  0.29676128944E+02  0.00000000000E+00 0.  1.
</event>
<event>
 8    1  0.2882335E-009  0.9118800E+02  0.7816164E-02  0.1184000E+00
        -11   -1    0    0    0    0  0.00000000000E+00  0.00000000000E+00  0.45593999997E+02  0.45594000000E+02  0.51100000000E-03 0. -1.
         11   -1    0    0    0    0 -0.00000000000E+00 -0.00000000000E+00 -0.45593999997E+02  0.45594000000E+02  0.51100000000E-03 0.  1.
         23    2    1    2    0    0  0.35527136788E-14  0.00000000000E+00  0.00000000000E+00  0.91188000000E+02  0.91188000000E+02 0.  0.
    9900012    2    3    3    0    0  0.28242258769E+02  0.14718728129E+02 -0.31856668905E+02  0.46142317723E+02  0.99999996488E+01 0.  0.
         12    1    3    3    0    0 -0.28242258769E+02 -0.14718728129E+02  0.31856668905E+02  0.45045682277E+02  0.00000000000E+00 0. -1.
         11    1    4    4    0    0  0.14636919785E+02  0.57040364540E+01 -0.94587267768E+01  0.18336929000E+02  0.51100000000E-03 0. -1.
        -11    1    4    4    0    0  0.97592143817E+01  0.71418292845E+01 -0.15096219167E+02  0.19342797737E+02  0.51100000000E-03 0.  1.
         12    1    4    4    0    0  0.38461246020E+01  0.18728623909E+01 -0.73017229610E+01  0.84625909855E+01  0.00000000000E+00 0. -1.
</event>
<event>
 8    1  0.2882335E-009  0.9118800E+02  0.7816164E-02  0.1184000E+00
        -11   -1    0    0    0    0  0.00000000000E+00  0.00000000000E+00  0.45593999997E+02  0.45594000000E+02  0.51100000000E-03 0. -1.
         11   -1    0    0    0    0 -0.00000000000E+00 -0.00000000000E+00 -0.45593999997E+02  0.45594000000E+02  0.51100000000E-03 0.  1.
         23    2    1    2    0    0  0.00000000000E+00 -0.35527136788E-14  0.00000000000E+00  0.91188000000E+02  0.91188000000E+02 0.  0.
    9900012    2    3    3    0    0 -0.37464732776E+02 -0.24011404392E+02 -0.69971289319E+01  0.46142317009E+02  0.99999931438E+01 0.  0.
         12    1    3    3    0    0  0.37464732776E+02  0.24011404392E+02  0.69971289319E+01  0.45045682991E+02  0.00000000000E+00 0. -1.
         11    1    4    4    0    0 -0.64768862122E+01 -0.42571523288E+01 -0.20217250251E+01  0.80100420282E+01  0.51100000000E-03 0.  1.
        -11    1    4    4    0    0 -0.25779105109E+02 -0.13412935633E+02 -0.65192104418E+01  0.29782028265E+02  0.51100000000E-03 0. -1.
        -12    1    4    4    0    0 -0.52087414545E+01 -0.63413164302E+01  0.15438065350E+01  0.83502467164E+01  0.00000000000E+00 0.  1.
</event>
<event>
 8    1  0.2882335E-009  0.9118800E+02  0.7816164E-02  0.1184000E+00
        -11   -1    0    0    0    0  0.00000000000E+00  0.00000000000E+00  0.45593999997E+02  0.45594000000E+02  0.51100000000E-03 0. -1.
         11   -1    0    0    0    0 -0.00000000000E+00 -0.00000000000E+00 -0.45593999997E+02  0.45594000000E+02  0.51100000000E-03 0.  1.
         23    2    1    2    0    0  0.35527136788E-14  0.00000000000E+00  0.00000000000E+00  0.91188000000E+02  0.91188000000E+02 0.  0.
    9900012    2    3    3    0    0 -0.24198830026E+02 -0.14610013408E+02 -0.35072464781E+02  0.46142315943E+02  0.99999834168E+01 0.  0.
         12    1    3    3    0    0  0.24198830026E+02  0.14610013408E+02  0.35072464781E+02  0.45045684057E+02  0.00000000000E+00 0. -1.
         11    1    4    4    0    0  0.44619179284E+00 -0.36570314006E+00 -0.10973976407E+01  0.12398014945E+01  0.51100000000E-03 0. -1.
        -11    1    4    4    0    0 -0.22362310073E+02 -0.15010563333E+02 -0.31598296758E+02  0.41519179685E+02  0.51100000000E-03 0.  1.
         12    1    4    4    0    0 -0.22827117455E+01  0.76625306559E+00 -0.23767703817E+01  0.33833347634E+01  0.00000000000E+00 0. -1.
</event>
<event>
 8    1  0.2882335E-009  0.9118800E+02  0.7816164E-02  0.1184000E+00
        -11   -1    0    0    0    0  0.00000000000E+00  0.00000000000E+00  0.45593999997E+02  0.45594000000E+02  0.51100000000E-03 0. -1.
         11   -1    0    0    0    0 -0.00000000000E+00 -0.00000000000E+00 -0.45593999997E+02  0.45594000000E+02  0.51100000000E-03 0.  1.
         23    2    1    2    0    0  0.35527136788E-14  0.00000000000E+00 -0.71054273576E-14  0.91188000000E+02  0.91188000000E+02 0.  0.
    9900012    2    3    3    0    0 -0.23136264930E+02 -0.62174647344E+01 -0.38146688380E+02  0.46142318110E+02  0.10000003179E+02 0.  0.
         12    1    3    3    0    0  0.23136264930E+02  0.62174647344E+01  0.38146688380E+02  0.45045681890E+02  0.00000000000E+00 0. -1.
         11    1    4    4    0    0  0.63241298080E+00  0.30356516714E+00 -0.30068078577E+01  0.30875543305E+01  0.51100000000E-03 0. -1.
        -11    1    4    4    0    0 -0.19482033412E+02 -0.40522442083E+01 -0.28988657137E+02  0.35161236495E+02  0.51100000000E-03 0.  1.
        -12    1    4    4    0    0 -0.42866444990E+01 -0.24687856932E+01 -0.61512233845E+01  0.78935272841E+01  0.00000000000E+00 0.  1.
</event>
<event>
 8    1  0.2882335E-009  0.9118800E+02  0.7816164E-02  0.1184000E+00
        -11   -1    0    0    0    0  0.00000000000E+00  0.00000000000E+00  0.45593999997E+02  0.45594000000E+02  0.51100000000E-03 0. -1.
         11   -1    0    0    0    0 -0.00000000000E+00 -0.00000000000E+00 -0.45593999997E+02  0.45594000000E+02  0.51100000000E-03 0.  1.
         23    2    1    2    0    0  0.00000000000E+00 -0.17763568394E-14  0.00000000000E+00  0.91188000000E+02  0.91188000000E+02 0.  0.
    9900012    2    3    3    0    0  0.89745194661E+01 -0.10630520427E+02 -0.42843477163E+02  0.46142317636E+02  0.99999988593E+01 0.  0.
         12    1    3    3    0    0 -0.89745194661E+01  0.10630520427E+02  0.42843477163E+02  0.45045682364E+02  0.00000000000E+00 0. -1.
         11    1    4    4    0    0  0.58273590211E+01 -0.64450042046E+01 -0.18038354896E+02  0.20021948955E+02  0.51100000000E-03 0. -1.
        -11    1    4    4    0    0  0.29290350027E+01  0.68355912085E+00 -0.13103664075E+02  0.13444423066E+02  0.51100000000E-03 0.  1.
        -12    1    4    4    0    0  0.21812544235E+00 -0.48690753430E+01 -0.11701458193E+02  0.12675945615E+02  0.00000000000E+00 0.  1.
</event>
<event>
 8    1  0.2882335E-009  0.9118800E+02  0.7816164E-02  0.1184000E+00
        -11   -1    0    0    0    0  0.00000000000E+00  0.00000000000E+00  0.45593999997E+02  0.45594000000E+02  0.51100000000E-03 0.  1.
         11   -1    0    0    0    0 -0.00000000000E+00 -0.00000000000E+00 -0.45593999997E+02  0.45594000000E+02  0.51100000000E-03 0. -1.
         23    2    1    2    0    0  0.35527136788E-14  0.00000000000E+00 -0.88817841970E-15  0.91188000000E+02  0.91188000000E+02 0.  0.
    9900012    2    3    3    0    0  0.27447715322E+02 -0.35244384580E+02 -0.57939417618E+01  0.46142317832E+02  0.10000000649E+02 0.  0.
         12    1    3    3    0    0 -0.27447715322E+02  0.35244384580E+02  0.57939417618E+01  0.45045682168E+02  0.00000000000E+00 0. -1.
         11    1    4    4    0    0 -0.52781584211E+00 -0.81792396339E+00 -0.90942918335E+00  0.13321602282E+01  0.51100000000E-03 0. -1.
        -11    1    4    4    0    0  0.69825385675E+01 -0.60479190848E+01 -0.13155196670E+01  0.93307964482E+01  0.51100000000E-03 0.  1.
         12    1    4    4    0    0  0.20992992597E+02 -0.28378541531E+02 -0.35689929114E+01  0.35479361156E+02  0.00000000000E+00 0. -1.
</event>
<event>
 8    1  0.2882335E-009  0.9118800E+02  0.7816164E-02  0.1184000E+00
        -11   -1    0    0    0    0  0.00000000000E+00  0.00000000000E+00  0.45593999997E+02  0.45594000000E+02  0.51100000000E-03 0. -1.
         11   -1    0    0    0    0 -0.00000000000E+00 -0.00000000000E+00 -0.45593999997E+02  0.45594000000E+02  0.51100000000E-03 0.  1.
         23    2    1    2    0    0 -0.35527136788E-14  0.00000000000E+00  0.35527136788E-14  0.91188000000E+02  0.91188000000E+02 0.  0.
    9900012    2    3    3    0    0  0.18628495904E+02  0.26484294450E+02 -0.31315726758E+02  0.46142318136E+02  0.10000003420E+02 0.  0.
         12    1    3    3    0    0 -0.18628495904E+02 -0.26484294450E+02  0.31315726758E+02  0.45045681864E+02  0.00000000000E+00 0. -1.
         11    1    4    4    0    0  0.11292927359E+02  0.10085517082E+02 -0.11831266170E+02  0.19215273160E+02  0.51100000000E-03 0. -1.
        -11    1    4    4    0    0  0.44703688366E+00  0.65415996641E+01 -0.66436600743E+01  0.93343766575E+01  0.51100000000E-03 0.  1.
        -12    1    4    4    0    0  0.68885316609E+01  0.98571777044E+01 -0.12840800514E+02  0.17592668319E+02  0.00000000000E+00 0.  1.
</event>
<event>
 8    1  0.2882335E-009  0.9118800E+02  0.7816164E-02  0.1184000E+00
        -11   -1    0    0    0    0  0.00000000000E+00  0.00000000000E+00  0.45593999997E+02  0.45594000000E+02  0.51100000000E-03 0. -1.
         11   -1    0    0    0    0 -0.00000000000E+00 -0.00000000000E+00 -0.45593999997E+02  0.45594000000E+02  0.51100000000E-03 0.  1.
         23    2    1    2    0    0  0.44408920985E-15  0.00000000000E+00  0.00000000000E+00  0.91188000000E+02  0.91188000000E+02 0.  0.
    9900012    2    3    3    0    0 -0.22296867153E+01  0.38505117507E+02 -0.23270126447E+02  0.46142308065E+02  0.99999115815E+01 0.  0.
         12    1    3    3    0    0  0.22296867153E+01 -0.38505117507E+02  0.23270126447E+02  0.45045691935E+02  0.00000000000E+00 0. -1.
         11    1    4    4    0    0  0.79782480657E+00  0.53049077331E+01 -0.45232733706E+01  0.70170202169E+01  0.51100000000E-03 0. -1.
        -11    1    4    4    0    0 -0.81596170604E+00  0.12433412789E+02 -0.11677879849E+02  0.17077131642E+02  0.51100000000E-03 0.  1.
        -12    1    4    4    0    0 -0.22115498158E+01  0.20766796985E+02 -0.70689732272E+01  0.22048156206E+02  0.00000000000E+00 0.  1.
</event>
<event>
 8    1  0.2882335E-009  0.9118800E+02  0.7816164E-02  0.1184000E+00
        -11   -1    0    0    0    0  0.00000000000E+00  0.00000000000E+00  0.45593999997E+02  0.45594000000E+02  0.51100000000E-03 0. -1.
         11   -1    0    0    0    0 -0.00000000000E+00 -0.00000000000E+00 -0.45593999997E+02  0.45594000000E+02  0.51100000000E-03 0.  1.
         23    2    1    2    0    0  0.00000000000E+00  0.00000000000E+00  0.00000000000E+00  0.91188000000E+02  0.91188000000E+02 0.  0.
    9900012    2    3    3    0    0  0.63676977349E+01 -0.17478112544E+02 -0.41025370625E+02  0.46142322877E+02  0.10000046649E+02 0.  0.
         12    1    3    3    0    0 -0.63676977349E+01  0.17478112544E+02  0.41025370625E+02  0.45045677123E+02  0.00000000000E+00 0. -1.
         11    1    4    4    0    0  0.65776794363E+00 -0.70034752364E+01 -0.14299508745E+02  0.15936036981E+02  0.51100000000E-03 0. -1.
        -11    1    4    4    0    0 -0.49371560270E+00  0.77808355223E+00 -0.39472465321E+01  0.40533843337E+01  0.51100000000E-03 0.  1.
        -12    1    4    4    0    0  0.62036453940E+01 -0.11252720860E+02 -0.22778615348E+02  0.26152901562E+02  0.00000000000E+00 0.  1.
</event>
<event>
 8    1  0.2882335E-009  0.9118800E+02  0.7816164E-02  0.1184000E+00
        -11   -1    0    0    0    0  0.00000000000E+00  0.00000000000E+00  0.45593999997E+02  0.45594000000E+02  0.51100000000E-03 0. -1.
         11   -1    0    0    0    0 -0.00000000000E+00 -0.00000000000E+00 -0.45593999997E+02  0.45594000000E+02  0.51100000000E-03 0.  1.
         23    2    1    2    0    0 -0.35527136788E-14  0.00000000000E+00  0.71054273576E-14  0.91188000000E+02  0.91188000000E+02 0.  0.
    9900012    2    3    3    0    0  0.95322656568E+01  0.35690713085E+02 -0.25776391822E+02  0.46142318027E+02  0.10000002423E+02 0.  0.
         12    1    3    3    0    0 -0.95322656568E+01 -0.35690713085E+02  0.25776391822E+02  0.45045681973E+02  0.00000000000E+00 0. -1.
         11    1    4    4    0    0 -0.52044394641E+00  0.24255044403E+00 -0.10208546659E+00  0.58319321229E+00  0.51100000000E-03 0. -1.
        -11    1    4    4    0    0  0.11237871759E+02  0.29679362469E+02 -0.21250902905E+02  0.38193653829E+02  0.51100000000E-03 0.  1.
        -12    1    4    4    0    0 -0.11851621557E+01  0.57688001715E+01 -0.44234034507E+01  0.73654709857E+01  0.00000000000E+00 0.  1.
</event>
<event>
 8    1  0.2882335E-009  0.9118800E+02  0.7816164E-02  0.1184000E+00
        -11   -1    0    0    0    0  0.00000000000E+00  0.00000000000E+00  0.45593999997E+02  0.45594000000E+02  0.51100000000E-03 0. -1.
         11   -1    0    0    0    0 -0.00000000000E+00 -0.00000000000E+00 -0.45593999997E+02  0.45594000000E+02  0.51100000000E-03 0.  1.
         23    2    1    2    0    0 -0.35527136788E-14  0.00000000000E+00  0.71054273576E-14  0.91188000000E+02  0.91188000000E+02 0.  0.
    9900012    2    3    3    0    0 -0.21444369149E+02  0.60221839168E+01  0.39153363732E+02  0.46142316979E+02  0.99999928662E+01 0.  0.
        -12    1    3    3    0    0  0.21444369149E+02 -0.60221839168E+01 -0.39153363732E+02  0.45045683021E+02  0.00000000000E+00 0.  1.
         11    1    4    4    0    0 -0.14914083715E+02  0.38454784822E+01  0.18838499216E+02  0.24333241682E+02  0.51100000000E-03 0. -1.
        -11    1    4    4    0    0 -0.28837885081E+01  0.19825528002E+00  0.13694444990E+02  0.13996191095E+02  0.51100000000E-03 0.  1.
        -12    1    4    4    0    0 -0.36464969256E+01  0.19784501546E+01  0.66204195265E+01  0.78128842017E+01  0.00000000000E+00 0.  1.
</event>
<event>
 8    1  0.2882335E-009  0.9118800E+02  0.7816164E-02  0.1184000E+00
        -11   -1    0    0    0    0  0.00000000000E+00  0.00000000000E+00  0.45593999997E+02  0.45594000000E+02  0.51100000000E-03 0. -1.
         11   -1    0    0    0    0 -0.00000000000E+00 -0.00000000000E+00 -0.45593999997E+02  0.45594000000E+02  0.51100000000E-03 0.  1.
         23    2    1    2    0    0  0.14210854715E-13  0.00000000000E+00  0.88817841970E-15  0.91188000000E+02  0.91188000000E+02 0.  0.
    9900012    2    3    3    0    0  0.42561616421E+02  0.14213099575E+02  0.39509601107E+01  0.46142317880E+02  0.10000001085E+02 0.  0.
         12    1    3    3    0    0 -0.42561616421E+02 -0.14213099575E+02 -0.39509601107E+01  0.45045682120E+02  0.00000000000E+00 0. -1.
         11    1    4    4    0    0  0.14780407608E+00 -0.41823272767E+00 -0.17767765351E+00  0.47784335203E+00  0.51100000000E-03 0. -1.
        -11    1    4    4    0    0  0.37260160837E+02  0.15244709135E+02  0.31337994934E+01  0.40379963369E+02  0.51100000000E-03 0.  1.
        -12    1    4    4    0    0  0.51536515079E+01 -0.61337683229E+00  0.99483827081E+00  0.52845111589E+01  0.00000000000E+00 0.  1.
</event>
<event>
 8    1  0.2882335E-009  0.9118800E+02  0.7816164E-02  0.1184000E+00
        -11   -1    0    0    0    0  0.00000000000E+00  0.00000000000E+00  0.45593999997E+02  0.45594000000E+02  0.51100000000E-03 0. -1.
         11   -1    0    0    0    0 -0.00000000000E+00 -0.00000000000E+00 -0.45593999997E+02  0.45594000000E+02  0.51100000000E-03 0.  1.
         23    2    1    2    0    0  0.00000000000E+00 -0.22204460493E-15  0.00000000000E+00  0.91188000000E+02  0.91188000000E+02 0.  0.
    9900012    2    3    3    0    0 -0.40861361015E+01  0.17316491613E+01  0.44826535934E+02  0.46142318288E+02  0.10000004802E+02 0.  0.
        -12    1    3    3    0    0  0.40861361015E+01 -0.17316491613E+01 -0.44826535934E+02  0.45045681712E+02  0.00000000000E+00 0.  1.
         11    1    4    4    0    0 -0.24166881530E+01  0.19717984743E+01  0.12600342188E+02  0.12980639212E+02  0.51100000000E-03 0. -1.
        -11    1    4    4    0    0 -0.42000471646E+00  0.19515770107E+01  0.28988321463E+02  0.29056975725E+02  0.51100000000E-03 0.  1.
        -12    1    4    4    0    0 -0.12494432320E+01 -0.21917263237E+01  0.32378722835E+01  0.41047033501E+01  0.00000000000E+00 0.  1.
</event>
<event>
 8    1  0.2882335E-009  0.9118800E+02  0.7816164E-02  0.1184000E+00
        -11   -1    0    0    0    0  0.00000000000E+00  0.00000000000E+00  0.45593999997E+02  0.45594000000E+02  0.51100000000E-03 0. -1.
         11   -1    0    0    0    0 -0.00000000000E+00 -0.00000000000E+00 -0.45593999997E+02  0.45594000000E+02  0.51100000000E-03 0.  1.
         23    2    1    2    0    0  0.00000000000E+00  0.71054273576E-14 -0.17763568394E-14  0.91188000000E+02  0.91188000000E+02 0.  0.
    9900012    2    3    3    0    0  0.10737527863E+02  0.42329768284E+02 -0.11045798579E+02  0.46142318144E+02  0.10000003493E+02 0.  0.
         12    1    3    3    0    0 -0.10737527863E+02 -0.42329768284E+02  0.11045798579E+02  0.45045681856E+02  0.00000000000E+00 0. -1.
         11    1    4    4    0    0  0.39012997874E+01  0.55596550490E+01 -0.38254724401E+01  0.77951359158E+01  0.51100000000E-03 0. -1.
        -11    1    4    4    0    0  0.16016161432E-01  0.11073422218E+02 -0.22785918673E+01  0.11305437510E+02  0.51100000000E-03 0.  1.
         12    1    4    4    0    0  0.68202119146E+01  0.25696691017E+02 -0.49417342716E+01  0.27041744718E+02  0.00000000000E+00 0. -1.
</event>
<event>
 8    1  0.2882335E-009  0.9118800E+02  0.7816164E-02  0.1184000E+00
        -11   -1    0    0    0    0  0.00000000000E+00  0.00000000000E+00  0.45593999997E+02  0.45594000000E+02  0.51100000000E-03 0.  1.
         11   -1    0    0    0    0 -0.00000000000E+00 -0.00000000000E+00 -0.45593999997E+02  0.45594000000E+02  0.51100000000E-03 0. -1.
         23    2    1    2    0    0  0.88817841970E-15  0.00000000000E+00  0.17763568394E-14  0.91188000000E+02  0.91188000000E+02 0.  0.
    9900012    2    3    3    0    0 -0.69028777732E+01 -0.42175208157E+02 -0.14237830304E+02  0.46142315230E+02  0.99999769198E+01 0.  0.
         12    1    3    3    0    0  0.69028777732E+01  0.42175208157E+02  0.14237830304E+02  0.45045684770E+02  0.00000000000E+00 0. -1.
         11    1    4    4    0    0  0.20820388887E+01 -0.16367897120E+02 -0.55583300885E+01  0.17410857983E+02  0.51100000000E-03 0. -1.
        -11    1    4    4    0    0 -0.30718087488E+01 -0.10638653126E+02 -0.42325740273E+01  0.11854603852E+02  0.51100000000E-03 0.  1.
         12    1    4    4    0    0 -0.59131079131E+01 -0.15168657911E+02 -0.44469261884E+01  0.16876853395E+02  0.00000000000E+00 0. -1.
</event>
<event>
 8    1  0.2882335E-009  0.9118800E+02  0.7816164E-02  0.1184000E+00
        -11   -1    0    0    0    0  0.00000000000E+00  0.00000000000E+00  0.45593999997E+02  0.45594000000E+02  0.51100000000E-03 0. -1.
         11   -1    0    0    0    0 -0.00000000000E+00 -0.00000000000E+00 -0.45593999997E+02  0.45594000000E+02  0.51100000000E-03 0.  1.
         23    2    1    2    0    0  0.00000000000E+00  0.44408920985E-15  0.71054273576E-14  0.91188000000E+02  0.91188000000E+02 0.  0.
    9900012    2    3    3    0    0  0.16154004795E+02 -0.23592217273E+01  0.41983278843E+02  0.46142317627E+02  0.99999987760E+01 0.  0.
        -12    1    3    3    0    0 -0.16154004795E+02  0.23592217273E+01 -0.41983278843E+02  0.45045682373E+02  0.00000000000E+00 0.  1.
         11    1    4    4    0    0  0.78337085155E+01 -0.11607026265E+01  0.24188897131E+02  0.25452248710E+02  0.51100000000E-03 0. -1.
        -11    1    4    4    0    0  0.26494353289E+01 -0.16462272053E+01  0.12621613339E+02  0.13001334359E+02  0.51100000000E-03 0.  1.
         12    1    4    4    0    0  0.56708609510E+01  0.44770810441E+00  0.51727683722E+01  0.76887345581E+01  0.00000000000E+00 0. -1.
</event>
<event>
 8    1  0.3402808E-009  0.9118800E+02  0.7816164E-02  0.1184000E+00
        -11   -1    0    0    0    0  0.00000000000E+00  0.00000000000E+00  0.45593999997E+02  0.45594000000E+02  0.51100000000E-03 0. -1.
         11   -1    0    0    0    0 -0.00000000000E+00 -0.00000000000E+00 -0.45593999997E+02  0.45594000000E+02  0.51100000000E-03 0.  1.
         23    2    1    2    0    0 -0.88817841970E-15  0.00000000000E+00  0.00000000000E+00  0.91188000000E+02  0.91188000000E+02 0.  0.
    9900012    2    3    3    0    0 -0.43027003701E+01 -0.35196066124E+02  0.27781957971E+02  0.46142317745E+02  0.99999998576E+01 0.  0.
        -12    1    3    3    0    0  0.43027003701E+01  0.35196066124E+02 -0.27781957971E+02  0.45045682255E+02  0.00000000000E+00 0.  1.
         11    1    4    4    0    0  0.14675831515E+01 -0.89988053358E+01  0.36412039880E+01  0.98178747457E+01  0.51100000000E-03 0. -1.
        -11    1    4    4    0    0 -0.11482283078E+01 -0.19799142108E+01  0.34399429680E+01  0.41317909450E+01  0.51100000000E-03 0.  1.
         12    1    4    4    0    0 -0.46220552138E+01 -0.24217346577E+02  0.20700811015E+02  0.32192652055E+02  0.00000000000E+00 0. -1.
</event>
<event>
 8    1  0.2882335E-009  0.9118800E+02  0.7816164E-02  0.1184000E+00
        -11   -1    0    0    0    0  0.00000000000E+00  0.00000000000E+00  0.45593999997E+02  0.45594000000E+02  0.51100000000E-03 0.  1.
         11   -1    0    0    0    0 -0.00000000000E+00 -0.00000000000E+00 -0.45593999997E+02  0.45594000000E+02  0.51100000000E-03 0. -1.
         23    2    1    2    0    0  0.00000000000E+00  0.00000000000E+00  0.00000000000E+00  0.91188000000E+02  0.91188000000E+02 0.  0.
    9900012    2    3    3    0    0  0.10729175163E+02  0.37669023744E+02 -0.22249563805E+02  0.46142316090E+02  0.99999847578E+01 0.  0.
        -12    1    3    3    0    0 -0.10729175163E+02 -0.37669023744E+02  0.22249563805E+02  0.45045683910E+02  0.00000000000E+00 0.  1.
         11    1    4    4    0    0  0.76640519855E+01  0.20973847833E+02 -0.14106067123E+02  0.26412518163E+02  0.51100000000E-03 0. -1.
        -11    1    4    4    0    0  0.31709555581E+01  0.16248648174E+02 -0.61124227889E+01  0.17647527851E+02  0.51100000000E-03 0.  1.
        -12    1    4    4    0    0 -0.10583238081E+00  0.44652773624E+00 -0.20310738921E+01  0.20822700755E+01  0.00000000000E+00 0.  1.
</event>
<event>
 8    1  0.3246278E-009  0.9118800E+02  0.7816164E-02  0.1184000E+00
        -11   -1    0    0    0    0  0.00000000000E+00  0.00000000000E+00  0.45593999997E+02  0.45594000000E+02  0.51100000000E-03 0. -1.
         11   -1    0    0    0    0 -0.00000000000E+00 -0.00000000000E+00 -0.45593999997E+02  0.45594000000E+02  0.51100000000E-03 0.  1.
         23    2    1    2    0    0 -0.88817841970E-15  0.00000000000E+00 -0.71054273576E-14  0.91188000000E+02  0.91188000000E+02 0.  0.
    9900012    2    3    3    0    0 -0.59630262529E+01  0.11486318770E+02 -0.43146499928E+02  0.46142315889E+02  0.99999829294E+01 0.  0.
         12    1    3    3    0    0  0.59630262529E+01 -0.11486318770E+02  0.43146499928E+02  0.45045684111E+02  0.00000000000E+00 0. -1.
         11    1    4    4    0    0 -0.52652397365E+01  0.23077797961E+01 -0.12428305326E+02  0.13693479128E+02  0.51100000000E-03 0. -1.
        -11    1    4    4    0    0  0.13590864086E+01  0.77361624798E+01 -0.21327074530E+02  0.22727503911E+02  0.51100000000E-03 0.  1.
        -12    1    4    4    0    0 -0.20568729250E+01  0.14423764945E+01 -0.93911200718E+01  0.97213328503E+01  0.00000000000E+00 0.  1.
</event>
<event>
 8    1  0.2882335E-009  0.9118800E+02  0.7816164E-02  0.1184000E+00
        -11   -1    0    0    0    0  0.00000000000E+00  0.00000000000E+00  0.45593999997E+02  0.45594000000E+02  0.51100000000E-03 0. -1.
         11   -1    0    0    0    0 -0.00000000000E+00 -0.00000000000E+00 -0.45593999997E+02  0.45594000000E+02  0.51100000000E-03 0.  1.
         23    2    1    2    0    0  0.00000000000E+00  0.00000000000E+00  0.00000000000E+00  0.91188000000E+02  0.91188000000E+02 0.  0.
    9900012    2    3    3    0    0  0.18009828151E+02  0.20991583617E+02  0.35554351995E+02  0.46142329413E+02  0.10000106253E+02 0.  0.
        -12    1    3    3    0    0 -0.18009828151E+02 -0.20991583617E+02 -0.35554351995E+02  0.45045670587E+02  0.00000000000E+00 0.  1.
         11    1    4    4    0    0  0.90198052754E+01  0.12283353520E+02  0.15184304014E+02  0.21512804316E+02  0.51100000000E-03 0. -1.
        -11    1    4    4    0    0  0.21952431189E+01  0.59098123287E+01  0.11464574886E+02  0.13083632969E+02  0.51100000000E-03 0.  1.
        -12    1    4    4    0    0  0.67947797569E+01  0.27984177682E+01  0.89054730962E+01  0.11545892127E+02  0.00000000000E+00 0.  1.
</event>
<event>
 8    1  0.2882335E-009  0.9118800E+02  0.7816164E-02  0.1184000E+00
        -11   -1    0    0    0    0  0.00000000000E+00  0.00000000000E+00  0.45593999997E+02  0.45594000000E+02  0.51100000000E-03 0. -1.
         11   -1    0    0    0    0 -0.00000000000E+00 -0.00000000000E+00 -0.45593999997E+02  0.45594000000E+02  0.51100000000E-03 0.  1.
         23    2    1    2    0    0  0.00000000000E+00  0.00000000000E+00  0.00000000000E+00  0.91188000000E+02  0.91188000000E+02 0.  0.
    9900012    2    3    3    0    0  0.57023693348E+01 -0.13360987264E+02  0.42638958414E+02  0.46142314620E+02  0.99999713586E+01 0.  0.
        -12    1    3    3    0    0 -0.57023693348E+01  0.13360987264E+02 -0.42638958414E+02  0.45045685380E+02  0.00000000000E+00 0.  1.
         11    1    4    4    0    0 -0.17048979295E+01 -0.62512644024E+00  0.61546789097E+01  0.64169722423E+01  0.51100000000E-03 0. -1.
        -11    1    4    4    0    0 -0.47253145715E+00 -0.15244686074E+01  0.74581837208E+01  0.76270436729E+01  0.51100000000E-03 0.  1.
         12    1    4    4    0    0  0.78797987214E+01 -0.11211392216E+02  0.29026095784E+02  0.32098298705E+02  0.00000000000E+00 0. -1.
</event>
<event>
 8    1  0.2882335E-009  0.9118800E+02  0.7816164E-02  0.1184000E+00
        -11   -1    0    0    0    0  0.00000000000E+00  0.00000000000E+00  0.45593999997E+02  0.45594000000E+02  0.51100000000E-03 0. -1.
         11   -1    0    0    0    0 -0.00000000000E+00 -0.00000000000E+00 -0.45593999997E+02  0.45594000000E+02  0.51100000000E-03 0.  1.
         23    2    1    2    0    0  0.00000000000E+00  0.00000000000E+00  0.00000000000E+00  0.91188000000E+02  0.91188000000E+02 0.  0.
    9900012    2    3    3    0    0 -0.19309837552E+02  0.13466692920E+02  0.38404321072E+02  0.46142317394E+02  0.99999966516E+01 0.  0.
        -12    1    3    3    0    0  0.19309837552E+02 -0.13466692920E+02 -0.38404321072E+02  0.45045682606E+02  0.00000000000E+00 0.  1.
         11    1    4    4    0    0 -0.25183269576E+01  0.19376326719E+01  0.11120815037E+02  0.11565851391E+02  0.51100000000E-03 0. -1.
        -11    1    4    4    0    0 -0.10336594461E+02  0.40728333520E+01  0.11700459531E+02  0.16134866286E+02  0.51100000000E-03 0.  1.
        -12    1    4    4    0    0 -0.64549161333E+01  0.74562268958E+01  0.15583046504E+02  0.18441599718E+02  0.00000000000E+00 0.  1.
</event>
<event>
 8    1  0.2882335E-009  0.9118800E+02  0.7816164E-02  0.1184000E+00
        -11   -1    0    0    0    0  0.00000000000E+00  0.00000000000E+00  0.45593999997E+02  0.45594000000E+02  0.51100000000E-03 0. -1.
         11   -1    0    0    0    0 -0.00000000000E+00 -0.00000000000E+00 -0.45593999997E+02  0.45594000000E+02  0.51100000000E-03 0.  1.
         23    2    1    2    0    0  0.00000000000E+00  0.00000000000E+00  0.00000000000E+00  0.91188000000E+02  0.91188000000E+02 0.  0.
    9900012    2    3    3    0    0 -0.26549806978E+02  0.26713664090E+02  0.24710351402E+02  0.46142316898E+02  0.99999921312E+01 0.  0.
        -12    1    3    3    0    0  0.26549806978E+02 -0.26713664090E+02 -0.24710351402E+02  0.45045683102E+02  0.00000000000E+00 0.  1.
         11    1    4    4    0    0 -0.10143984820E+02  0.13324645649E+02  0.10132666948E+02  0.19573388808E+02  0.51100000000E-03 0. -1.
        -11    1    4    4    0    0 -0.15342654051E+02  0.11662594251E+02  0.10338946760E+02  0.21870229957E+02  0.51100000000E-03 0.  1.
        -12    1    4    4    0    0 -0.10631681067E+01  0.17264241900E+01  0.42387376936E+01  0.46986981327E+01  0.00000000000E+00 0.  1.
</event>
<event>
 8    1  0.2882335E-009  0.9118800E+02  0.7816164E-02  0.1184000E+00
        -11   -1    0    0    0    0  0.00000000000E+00  0.00000000000E+00  0.45593999997E+02  0.45594000000E+02  0.51100000000E-03 0. -1.
         11   -1    0    0    0    0 -0.00000000000E+00 -0.00000000000E+00 -0.45593999997E+02  0.45594000000E+02  0.51100000000E-03 0.  1.
         23    2    1    2    0    0  0.00000000000E+00  0.00000000000E+00  0.00000000000E+00  0.91188000000E+02  0.91188000000E+02 0.  0.
    9900012    2    3    3    0    0  0.16699359199E+02  0.19291806145E+02  0.37122380831E+02  0.46142317182E+02  0.99999947185E+01 0.  0.
        -12    1    3    3    0    0 -0.16699359199E+02 -0.19291806145E+02 -0.37122380831E+02  0.45045682818E+02  0.00000000000E+00 0.  1.
         11    1    4    4    0    0  0.40622557503E+01  0.20007027824E+01  0.91030610380E+01  0.10167126139E+02  0.51100000000E-03 0. -1.
        -11    1    4    4    0    0  0.46236759929E+00  0.57845338608E+01  0.67678215382E+01  0.89150448355E+01  0.51100000000E-03 0.  1.
        -12    1    4    4    0    0  0.12174735849E+02  0.11506569501E+02  0.21251498255E+02  0.27060146207E+02  0.00000000000E+00 0.  1.
</event>
<event>
 8    1  0.2882335E-009  0.9118800E+02  0.7816164E-02  0.1184000E+00
        -11   -1    0    0    0    0  0.00000000000E+00  0.00000000000E+00  0.45593999997E+02  0.45594000000E+02  0.51100000000E-03 0.  1.
         11   -1    0    0    0    0 -0.00000000000E+00 -0.00000000000E+00 -0.45593999997E+02  0.45594000000E+02  0.51100000000E-03 0. -1.
         23    2    1    2    0    0  0.00000000000E+00  0.00000000000E+00  0.00000000000E+00  0.91188000000E+02  0.91188000000E+02 0.  0.
    9900012    2    3    3    0    0 -0.19250516363E+02  0.33287899058E+02  0.23461602866E+02  0.46142318598E+02  0.10000007629E+02 0.  0.
        -12    1    3    3    0    0  0.19250516363E+02 -0.33287899058E+02 -0.23461602866E+02  0.45045681402E+02  0.00000000000E+00 0.  1.
         11    1    4    4    0    0 -0.41733213846E+01  0.14823235075E+02  0.97326108410E+01  0.18217261690E+02  0.51100000000E-03 0. -1.
        -11    1    4    4    0    0 -0.51904219705E+01  0.34850480256E+01  0.23788392012E+01  0.66891640867E+01  0.51100000000E-03 0.  1.
         12    1    4    4    0    0 -0.98867730083E+01  0.14979615958E+02  0.11350152824E+02  0.21235892821E+02  0.00000000000E+00 0. -1.
</event>
<event>
 8    1  0.2882335E-009  0.9118800E+02  0.7816164E-02  0.1184000E+00
        -11   -1    0    0    0    0  0.00000000000E+00  0.00000000000E+00  0.45593999997E+02  0.45594000000E+02  0.51100000000E-03 0. -1.
         11   -1    0    0    0    0 -0.00000000000E+00 -0.00000000000E+00 -0.45593999997E+02  0.45594000000E+02  0.51100000000E-03 0.  1.
         23    2    1    2    0    0  0.17763568394E-14  0.00000000000E+00  0.00000000000E+00  0.91188000000E+02  0.91188000000E+02 0.  0.
    9900012    2    3    3    0    0 -0.13995365888E+02 -0.36034679156E+02 -0.23124555895E+02  0.46142318148E+02  0.10000003525E+02 0.  0.
         12    1    3    3    0    0  0.13995365888E+02  0.36034679156E+02  0.23124555895E+02  0.45045681852E+02  0.00000000000E+00 0. -1.
         11    1    4    4    0    0 -0.40319076162E+01 -0.14186277714E+02 -0.49434048171E+01  0.15554549362E+02  0.51100000000E-03 0. -1.
        -11    1    4    4    0    0 -0.61877571202E+01 -0.88346485207E+01 -0.10289574917E+02  0.14906867709E+02  0.51100000000E-03 0.  1.
        -12    1    4    4    0    0 -0.37757011520E+01 -0.13013752920E+02 -0.78915761611E+01  0.15680901076E+02  0.00000000000E+00 0.  1.
</event>
<event>
 8    1  0.2882335E-009  0.9118800E+02  0.7816164E-02  0.1184000E+00
        -11   -1    0    0    0    0  0.00000000000E+00  0.00000000000E+00  0.45593999997E+02  0.45594000000E+02  0.51100000000E-03 0.  1.
         11   -1    0    0    0    0 -0.00000000000E+00 -0.00000000000E+00 -0.45593999997E+02  0.45594000000E+02  0.51100000000E-03 0. -1.
         23    2    1    2    0    0  0.00000000000E+00  0.00000000000E+00  0.00000000000E+00  0.91188000000E+02  0.91188000000E+02 0.  0.
    9900012    2    3    3    0    0  0.11150907463E+02  0.43219871589E+02  0.60674062483E+01  0.46142318120E+02  0.10000003277E+02 0.  0.
        -12    1    3    3    0    0 -0.11150907463E+02 -0.43219871589E+02 -0.60674062483E+01  0.45045681880E+02  0.00000000000E+00 0.  1.
         11    1    4    4    0    0  0.69170353526E+01  0.20497779552E+02  0.22967947974E+01  0.21754990490E+02  0.51100000000E-03 0. -1.
        -11    1    4    4    0    0 -0.38390000055E+00  0.27350818320E+01 -0.15874506552E+01  0.31856006783E+01  0.51100000000E-03 0.  1.
        -12    1    4    4    0    0  0.46177721111E+01  0.19987010205E+02  0.53580621062E+01  0.21201726952E+02  0.00000000000E+00 0.  1.
</event>
<event>
 8    1  0.2882335E-009  0.9118800E+02  0.7816164E-02  0.1184000E+00
        -11   -1    0    0    0    0  0.00000000000E+00  0.00000000000E+00  0.45593999997E+02  0.45594000000E+02  0.51100000000E-03 0. -1.
         11   -1    0    0    0    0 -0.00000000000E+00 -0.00000000000E+00 -0.45593999997E+02  0.45594000000E+02  0.51100000000E-03 0.  1.
         23    2    1    2    0    0 -0.35527136788E-14  0.00000000000E+00  0.00000000000E+00  0.91188000000E+02  0.91188000000E+02 0.  0.
    9900012    2    3    3    0    0 -0.31750500979E+02 -0.25315604833E+01 -0.31852947449E+02  0.46142319052E+02  0.10000011769E+02 0.  0.
         12    1    3    3    0    0  0.31750500979E+02  0.25315604833E+01  0.31852947449E+02  0.45045680948E+02  0.00000000000E+00 0. -1.
         11    1    4    4    0    0 -0.24610923355E+02 -0.17492702545E+01 -0.19621779829E+02  0.31524145329E+02  0.51100000000E-03 0. -1.
        -11    1    4    4    0    0 -0.61420681381E+01 -0.15419602928E+01 -0.79881993737E+01  0.10193820287E+02  0.51100000000E-03 0.  1.
         12    1    4    4    0    0 -0.99750948597E+00  0.75967006395E+00 -0.42429682462E+01  0.44243534352E+01  0.00000000000E+00 0. -1.
</event>
<event>
 8    1  0.2882335E-009  0.9118800E+02  0.7816164E-02  0.1184000E+00
        -11   -1    0    0    0    0  0.00000000000E+00  0.00000000000E+00  0.45593999997E+02  0.45594000000E+02  0.51100000000E-03 0. -1.
         11   -1    0    0    0    0 -0.00000000000E+00 -0.00000000000E+00 -0.45593999997E+02  0.45594000000E+02  0.51100000000E-03 0.  1.
         23    2    1    2    0    0  0.00000000000E+00  0.71054273576E-14  0.35527136788E-14  0.91188000000E+02  0.91188000000E+02 0.  0.
    9900012    2    3    3    0    0 -0.11172263561E+02 -0.33538998633E+02 -0.27918266476E+02  0.46142317572E+02  0.99999982765E+01 0.  0.
         12    1    3    3    0    0  0.11172263561E+02  0.33538998633E+02  0.27918266476E+02  0.45045682428E+02  0.00000000000E+00 0. -1.
         11    1    4    4    0    0 -0.51725087697E+01 -0.55839719021E+01 -0.33388792913E+01  0.83116607461E+01  0.51100000000E-03 0. -1.
        -11    1    4    4    0    0 -0.21522284143E+01 -0.16180071497E+02 -0.15046385137E+02  0.22199560958E+02  0.51100000000E-03 0.  1.
        -12    1    4    4    0    0 -0.38475263768E+01 -0.11774955234E+02 -0.95330020477E+01  0.15631095868E+02  0.00000000000E+00 0.  1.
</event>
<event>
 8    1  0.2882335E-009  0.9118800E+02  0.7816164E-02  0.1184000E+00
        -11   -1    0    0    0    0  0.00000000000E+00  0.00000000000E+00  0.45593999997E+02  0.45594000000E+02  0.51100000000E-03 0. -1.
         11   -1    0    0    0    0 -0.00000000000E+00 -0.00000000000E+00 -0.45593999997E+02  0.45594000000E+02  0.51100000000E-03 0.  1.
         23    2    1    2    0    0  0.00000000000E+00  0.00000000000E+00 -0.17763568394E-14  0.91188000000E+02  0.91188000000E+02 0.  0.
    9900012    2    3    3    0    0  0.37055517464E+02 -0.20781453758E+02  0.14971084020E+02  0.46142317060E+02  0.99999936050E+01 0.  0.
        -12    1    3    3    0    0 -0.37055517464E+02  0.20781453758E+02 -0.14971084020E+02  0.45045682940E+02  0.00000000000E+00 0.  1.
         11    1    4    4    0    0  0.21417401876E+02 -0.12231615137E+02  0.10706549951E+02  0.26887687221E+02  0.51100000000E-03 0. -1.
        -11    1    4    4    0    0  0.22306128740E+01 -0.37148215367E+01  0.21792506794E+01  0.48502233586E+01  0.51100000000E-03 0.  1.
        -12    1    4    4    0    0  0.13407502715E+02 -0.48350170835E+01  0.20852833896E+01  0.14404406480E+02  0.00000000000E+00 0.  1.
</event>
<event>
 8    1  0.5074121E-009  0.9118800E+02  0.7816164E-02  0.1184000E+00
        -11   -1    0    0    0    0  0.00000000000E+00  0.00000000000E+00  0.45593999997E+02  0.45594000000E+02  0.51100000000E-03 0. -1.
         11   -1    0    0    0    0 -0.00000000000E+00 -0.00000000000E+00 -0.45593999997E+02  0.45594000000E+02  0.51100000000E-03 0.  1.
         23    2    1    2    0    0  0.35527136788E-14 -0.17763568394E-14  0.00000000000E+00  0.91188000000E+02  0.91188000000E+02 0.  0.
    9900012    2    3    3    0    0  0.24586097315E+02 -0.88949408097E+01  0.36681294381E+02  0.46142317514E+02  0.99999977479E+01 0.  0.
        -12    1    3    3    0    0 -0.24586097315E+02  0.88949408097E+01 -0.36681294381E+02  0.45045682486E+02  0.00000000000E+00 0.  1.
         11    1    4    4    0    0  0.24171368235E+02 -0.96166757904E+01  0.33169520461E+02  0.42153915399E+02  0.51100000000E-03 0. -1.
        -11    1    4    4    0    0 -0.25120866579E+00  0.94984689840E+00  0.10948574402E+01  0.14710635607E+01  0.51100000000E-03 0.  1.
         12    1    4    4    0    0  0.66593774569E+00 -0.22811191760E+00  0.24169164798E+01  0.25173385545E+01  0.00000000000E+00 0. -1.
</event>
<event>
 8    1  0.2882335E-009  0.9118800E+02  0.7816164E-02  0.1184000E+00
        -11   -1    0    0    0    0  0.00000000000E+00  0.00000000000E+00  0.45593999997E+02  0.45594000000E+02  0.51100000000E-03 0. -1.
         11   -1    0    0    0    0 -0.00000000000E+00 -0.00000000000E+00 -0.45593999997E+02  0.45594000000E+02  0.51100000000E-03 0.  1.
         23    2    1    2    0    0  0.44408920985E-15  0.00000000000E+00 -0.71054273576E-14  0.91188000000E+02  0.91188000000E+02 0.  0.
    9900012    2    3    3    0    0  0.33912440008E+01 -0.20287111629E+02  0.40075506730E+02  0.46142315703E+02  0.99999812312E+01 0.  0.
        -12    1    3    3    0    0 -0.33912440008E+01  0.20287111629E+02 -0.40075506730E+02  0.45045684297E+02  0.00000000000E+00 0.  1.
         11    1    4    4    0    0  0.45819418025E+01 -0.43368694958E+01  0.14670922184E+02  0.15969927542E+02  0.51100000000E-03 0.  1.
        -11    1    4    4    0    0  0.38656260632E+00 -0.12074645772E+02  0.18329642948E+02  0.21952729034E+02  0.51100000000E-03 0. -1.
        -12    1    4    4    0    0 -0.15772604080E+01 -0.38755963613E+01  0.70749415980E+01  0.82196591271E+01  0.00000000000E+00 0.  1.
</event>
<event>
 8    1  0.2882335E-009  0.9118800E+02  0.7816164E-02  0.1184000E+00
        -11   -1    0    0    0    0  0.00000000000E+00  0.00000000000E+00  0.45593999997E+02  0.45594000000E+02  0.51100000000E-03 0. -1.
         11   -1    0    0    0    0 -0.00000000000E+00 -0.00000000000E+00 -0.45593999997E+02  0.45594000000E+02  0.51100000000E-03 0.  1.
         23    2    1    2    0    0  0.00000000000E+00  0.88817841970E-15  0.00000000000E+00  0.91188000000E+02  0.91188000000E+02 0.  0.
    9900012    2    3    3    0    0  0.21356485970E+02  0.25392946918E+01  0.39579868365E+02  0.46142317739E+02  0.99999997993E+01 0.  0.
        -12    1    3    3    0    0 -0.21356485970E+02 -0.25392946918E+01 -0.39579868365E+02  0.45045682261E+02  0.00000000000E+00 0.  1.
         11    1    4    4    0    0  0.30628384202E+01 -0.10263859487E+01  0.35648161778E+01  0.48106508860E+01  0.51100000000E-03 0. -1.
        -11    1    4    4    0    0  0.88215412713E+01  0.56415656455E+01  0.16538739993E+02  0.19574901638E+02  0.51100000000E-03 0.  1.
        -12    1    4    4    0    0  0.94721062786E+01 -0.20758850050E+01  0.19476312195E+02  0.21756765215E+02  0.00000000000E+00 0.  1.
</event>
<event>
 8    1  0.2882335E-009  0.9118800E+02  0.7816164E-02  0.1184000E+00
        -11   -1    0    0    0    0  0.00000000000E+00  0.00000000000E+00  0.45593999997E+02  0.45594000000E+02  0.51100000000E-03 0. -1.
         11   -1    0    0    0    0 -0.00000000000E+00 -0.00000000000E+00 -0.45593999997E+02  0.45594000000E+02  0.51100000000E-03 0.  1.
         23    2    1    2    0    0  0.00000000000E+00  0.00000000000E+00  0.35527136788E-14  0.91188000000E+02  0.91188000000E+02 0.  0.
    9900012    2    3    3    0    0  0.37180984569E+02  0.17866352247E+02  0.18096446874E+02  0.46142317126E+02  0.99999942080E+01 0.  0.
        -12    1    3    3    0    0 -0.37180984569E+02 -0.17866352247E+02 -0.18096446874E+02  0.45045682874E+02  0.00000000000E+00 0.  1.
         11    1    4    4    0    0  0.27975860968E+02  0.10521696203E+02  0.16698183596E+02  0.34237176045E+02  0.51100000000E-03 0. -1.
        -11    1    4    4    0    0  0.46195379569E+01  0.37511959106E+01  0.18121735566E+00  0.59535234681E+01  0.51100000000E-03 0.  1.
         12    1    4    4    0    0  0.45855856442E+01  0.35934601333E+01  0.12170459224E+01  0.59516176127E+01  0.00000000000E+00 0. -1.
</event>
<event>
 8    1  0.2882335E-009  0.9118800E+02  0.7816164E-02  0.1184000E+00
        -11   -1    0    0    0    0  0.00000000000E+00  0.00000000000E+00  0.45593999997E+02  0.45594000000E+02  0.51100000000E-03 0. -1.
         11   -1    0    0    0    0 -0.00000000000E+00 -0.00000000000E+00 -0.45593999997E+02  0.45594000000E+02  0.51100000000E-03 0.  1.
         23    2    1    2    0    0 -0.35527136788E-14  0.00000000000E+00  0.35527136788E-14  0.91188000000E+02  0.91188000000E+02 0.  0.
    9900012    2    3    3    0    0 -0.25286556134E+02 -0.34418098563E+02  0.14321244211E+02  0.46142318014E+02  0.10000002310E+02 0.  0.
        -12    1    3    3    0    0  0.25286556134E+02  0.34418098563E+02 -0.14321244211E+02  0.45045681986E+02  0.00000000000E+00 0.  1.
         11    1    4    4    0    0 -0.29776898684E+01 -0.10085497430E+02  0.40036815153E+01  0.11252260275E+02  0.51100000000E-03 0. -1.
        -11    1    4    4    0    0 -0.20833531926E+02 -0.23532054109E+02  0.10638945652E+02  0.33181030544E+02  0.51100000000E-03 0.  1.
        -12    1    4    4    0    0 -0.14753343388E+01 -0.80054702469E+00 -0.32138295710E+00  0.17090271956E+01  0.00000000000E+00 0.  1.
</event>
<event>
 8    1  0.2882335E-009  0.9118800E+02  0.7816164E-02  0.1184000E+00
        -11   -1    0    0    0    0  0.00000000000E+00  0.00000000000E+00  0.45593999997E+02  0.45594000000E+02  0.51100000000E-03 0. -1.
         11   -1    0    0    0    0 -0.00000000000E+00 -0.00000000000E+00 -0.45593999997E+02  0.45594000000E+02  0.51100000000E-03 0.  1.
         23    2    1    2    0    0 -0.17763568394E-14  0.22204460493E-15  0.00000000000E+00  0.91188000000E+02  0.91188000000E+02 0.  0.
    9900012    2    3    3    0    0  0.15751427612E+02 -0.12624123809E+01  0.42183080381E+02  0.46142318440E+02  0.10000006188E+02 0.  0.
        -12    1    3    3    0    0 -0.15751427612E+02  0.12624123809E+01 -0.42183080381E+02  0.45045681560E+02  0.00000000000E+00 0.  1.
         11    1    4    4    0    0  0.59177191318E+01  0.12528872349E+01  0.12879763682E+02  0.14229456732E+02  0.51100000000E-03 0. -1.
        -11    1    4    4    0    0  0.39329795544E+01 -0.32830985278E+01  0.21486703895E+02  0.22089035937E+02  0.51100000000E-03 0.  1.
        -12    1    4    4    0    0  0.59007289258E+01  0.76779891204E+00  0.78166128043E+01  0.98238257699E+01  0.00000000000E+00 0.  1.
</event>
<event>
 8    1  0.2882335E-009  0.9118800E+02  0.7816164E-02  0.1184000E+00
        -11   -1    0    0    0    0  0.00000000000E+00  0.00000000000E+00  0.45593999997E+02  0.45594000000E+02  0.51100000000E-03 0. -1.
         11   -1    0    0    0    0 -0.00000000000E+00 -0.00000000000E+00 -0.45593999997E+02  0.45594000000E+02  0.51100000000E-03 0.  1.
         23    2    1    2    0    0  0.00000000000E+00  0.35527136788E-14  0.00000000000E+00  0.91188000000E+02  0.91188000000E+02 0.  0.
    9900012    2    3    3    0    0  0.14091894366E+02 -0.30194853603E+02 -0.30311759767E+02  0.46142318175E+02  0.10000003775E+02 0.  0.
         12    1    3    3    0    0 -0.14091894366E+02  0.30194853603E+02  0.30311759767E+02  0.45045681825E+02  0.00000000000E+00 0. -1.
         11    1    4    4    0    0 -0.57518405439E+00 -0.30787144521E+00 -0.17893587097E+00  0.67649082051E+00  0.51100000000E-03 0. -1.
        -11    1    4    4    0    0  0.65512107161E+01 -0.20735388354E+02 -0.20654848745E+02  0.29991623314E+02  0.51100000000E-03 0.  1.
         12    1    4    4    0    0  0.81158677048E+01 -0.91515938034E+01 -0.94779751503E+01  0.15474204041E+02  0.00000000000E+00 0. -1.
</event>
<event>
 8    1  0.2882335E-009  0.9118800E+02  0.7816164E-02  0.1184000E+00
        -11   -1    0    0    0    0  0.00000000000E+00  0.00000000000E+00  0.45593999997E+02  0.45594000000E+02  0.51100000000E-03 0. -1.
         11   -1    0    0    0    0 -0.00000000000E+00 -0.00000000000E+00 -0.45593999997E+02  0.45594000000E+02  0.51100000000E-03 0.  1.
         23    2    1    2    0    0 -0.17763568394E-14  0.00000000000E+00  0.71054273576E-14  0.91188000000E+02  0.91188000000E+02 0.  0.
    9900012    2    3    3    0    0 -0.14886336087E+02  0.18753071040E+02  0.38155378645E+02  0.46142316577E+02  0.99999892039E+01 0.  0.
        -12    1    3    3    0    0  0.14886336087E+02 -0.18753071040E+02 -0.38155378645E+02  0.45045683423E+02  0.00000000000E+00 0.  1.
         11    1    4    4    0    0 -0.84410890928E+01  0.14264754781E+02  0.24392551706E+02  0.29491215523E+02  0.51100000000E-03 0. -1.
        -11    1    4    4    0    0 -0.10746176240E+01 -0.57961996328E+00  0.24123106243E+00  0.12445702175E+01  0.51100000000E-03 0.  1.
         12    1    4    4    0    0 -0.53706293700E+01  0.50679362221E+01  0.13521595876E+02  0.15406530837E+02  0.00000000000E+00 0. -1.
</event>
<event>
 8    1  0.2882335E-009  0.9118800E+02  0.7816164E-02  0.1184000E+00
        -11   -1    0    0    0    0  0.00000000000E+00  0.00000000000E+00  0.45593999997E+02  0.45594000000E+02  0.51100000000E-03 0. -1.
         11   -1    0    0    0    0 -0.00000000000E+00 -0.00000000000E+00 -0.45593999997E+02  0.45594000000E+02  0.51100000000E-03 0.  1.
         23    2    1    2    0    0  0.00000000000E+00  0.22204460493E-15  0.00000000000E+00  0.91188000000E+02  0.91188000000E+02 0.  0.
    9900012    2    3    3    0    0  0.24135007153E+02  0.19079858668E+01  0.37986504179E+02  0.46142317853E+02  0.10000000835E+02 0.  0.
        -12    1    3    3    0    0 -0.24135007153E+02 -0.19079858668E+01 -0.37986504179E+02  0.45045682147E+02  0.00000000000E+00 0.  1.
         11    1    4    4    0    0  0.17400900545E+02  0.34531042201E+00  0.24688581824E+02  0.30206566369E+02  0.51100000000E-03 0. -1.
        -11    1    4    4    0    0  0.12309141594E+00  0.35828091962E+00  0.60126849664E+01  0.60246076620E+01  0.51100000000E-03 0.  1.
        -12    1    4    4    0    0  0.66110151918E+01  0.12043945252E+01  0.72852373888E+01  0.99111438215E+01  0.00000000000E+00 0.  1.
</event>
<event>
 8    1  0.2882335E-009  0.9118800E+02  0.7816164E-02  0.1184000E+00
        -11   -1    0    0    0    0  0.00000000000E+00  0.00000000000E+00  0.45593999997E+02  0.45594000000E+02  0.51100000000E-03 0. -1.
         11   -1    0    0    0    0 -0.00000000000E+00 -0.00000000000E+00 -0.45593999997E+02  0.45594000000E+02  0.51100000000E-03 0.  1.
         23    2    1    2    0    0  0.00000000000E+00  0.00000000000E+00  0.00000000000E+00  0.91188000000E+02  0.91188000000E+02 0.  0.
    9900012    2    3    3    0    0  0.31658413077E+01  0.17900254454E+02 -0.41214946494E+02  0.46142317908E+02  0.10000001335E+02 0.  0.
         12    1    3    3    0    0 -0.31658413077E+01 -0.17900254454E+02  0.41214946494E+02  0.45045682092E+02  0.00000000000E+00 0. -1.
         11    1    4    4    0    0  0.96027127293E+00  0.10016267970E+01 -0.25753524020E+01  0.29253747475E+01  0.51100000000E-03 0. -1.
        -11    1    4    4    0    0 -0.17249249870E+01  0.10224701094E+02 -0.14224398604E+02  0.17602653055E+02  0.51100000000E-03 0.  1.
        -12    1    4    4    0    0  0.39304950218E+01  0.66739265633E+01 -0.24415195487E+02  0.25614290105E+02  0.00000000000E+00 0.  1.
</event>
<event>
 8    1  0.2882335E-009  0.9118800E+02  0.7816164E-02  0.1184000E+00
        -11   -1    0    0    0    0  0.00000000000E+00  0.00000000000E+00  0.45593999997E+02  0.45594000000E+02  0.51100000000E-03 0. -1.
         11   -1    0    0    0    0 -0.00000000000E+00 -0.00000000000E+00 -0.45593999997E+02  0.45594000000E+02  0.51100000000E-03 0.  1.
         23    2    1    2    0    0 -0.35527136788E-14  0.00000000000E+00  0.00000000000E+00  0.91188000000E+02  0.91188000000E+02 0.  0.
    9900012    2    3    3    0    0  0.18779560830E+02 -0.36849959681E+02 -0.17847186634E+02  0.46142317585E+02  0.99999983956E+01 0.  0.
         12    1    3    3    0    0 -0.18779560830E+02  0.36849959681E+02  0.17847186634E+02  0.45045682415E+02  0.00000000000E+00 0. -1.
         11    1    4    4    0    0  0.89690586558E+00 -0.69681693900E+01 -0.11868926196E+01  0.71252044975E+01  0.51100000000E-03 0. -1.
        -11    1    4    4    0    0  0.15834460420E+02 -0.26320930271E+02 -0.12477082695E+02  0.33154171683E+02  0.51100000000E-03 0.  1.
        -12    1    4    4    0    0  0.20481945445E+01 -0.35608600196E+01 -0.41832113193E+01  0.58629414046E+01  0.00000000000E+00 0.  1.
</event>
<event>
 8    1  0.2882335E-009  0.9118800E+02  0.7816164E-02  0.1184000E+00
        -11   -1    0    0    0    0  0.00000000000E+00  0.00000000000E+00  0.45593999997E+02  0.45594000000E+02  0.51100000000E-03 0. -1.
         11   -1    0    0    0    0 -0.00000000000E+00 -0.00000000000E+00 -0.45593999997E+02  0.45594000000E+02  0.51100000000E-03 0.  1.
         23    2    1    2    0    0  0.88817841970E-15  0.44408920985E-15  0.00000000000E+00  0.91188000000E+02  0.91188000000E+02 0.  0.
    9900012    2    3    3    0    0  0.58002748524E+01  0.30697449545E+01 -0.44565087566E+02  0.46142317052E+02  0.99999935374E+01 0.  0.
         12    1    3    3    0    0 -0.58002748524E+01 -0.30697449545E+01  0.44565087566E+02  0.45045682948E+02  0.00000000000E+00 0. -1.
         11    1    4    4    0    0  0.12163132678E+01 -0.94693291284E+00 -0.14871021069E+01  0.21418620040E+01  0.51100000000E-03 0. -1.
        -11    1    4    4    0    0  0.35838068558E+01  0.24892960896E+01 -0.41011575442E+02  0.41243055017E+02  0.51100000000E-03 0.  1.
        -12    1    4    4    0    0  0.10001547288E+01  0.15273817777E+01 -0.20664100170E+01  0.27574000317E+01  0.00000000000E+00 0.  1.
</event>
<event>
 8    1  0.2882335E-009  0.9118800E+02  0.7816164E-02  0.1184000E+00
        -11   -1    0    0    0    0  0.00000000000E+00  0.00000000000E+00  0.45593999997E+02  0.45594000000E+02  0.51100000000E-03 0. -1.
         11   -1    0    0    0    0 -0.00000000000E+00 -0.00000000000E+00 -0.45593999997E+02  0.45594000000E+02  0.51100000000E-03 0.  1.
         23    2    1    2    0    0  0.00000000000E+00  0.17763568394E-14  0.00000000000E+00  0.91188000000E+02  0.91188000000E+02 0.  0.
    9900012    2    3    3    0    0 -0.84348110709E+01  0.12600935988E+02  0.42416786949E+02  0.46142318291E+02  0.10000004831E+02 0.  0.
        -12    1    3    3    0    0  0.84348110709E+01 -0.12600935988E+02 -0.42416786949E+02  0.45045681709E+02  0.00000000000E+00 0.  1.
         11    1    4    4    0    0 -0.13872137283E+01  0.52721538500E+01  0.14587907774E+02  0.15573279091E+02  0.51100000000E-03 0. -1.
        -11    1    4    4    0    0  0.78145813490E+00  0.32039516066E+01  0.42172086360E+01  0.53535811990E+01  0.51100000000E-03 0.  1.
        -12    1    4    4    0    0 -0.78290554775E+01  0.41248305312E+01  0.23611670539E+02  0.25215458001E+02  0.00000000000E+00 0.  1.
</event>
<event>
 8    1  0.2882335E-009  0.9118800E+02  0.7816164E-02  0.1184000E+00
        -11   -1    0    0    0    0  0.00000000000E+00  0.00000000000E+00  0.45593999997E+02  0.45594000000E+02  0.51100000000E-03 0. -1.
         11   -1    0    0    0    0 -0.00000000000E+00 -0.00000000000E+00 -0.45593999997E+02  0.45594000000E+02  0.51100000000E-03 0.  1.
         23    2    1    2    0    0 -0.17763568394E-14  0.17763568394E-14  0.00000000000E+00  0.91188000000E+02  0.91188000000E+02 0.  0.
    9900012    2    3    3    0    0  0.94440934914E+01 -0.11827133030E+02 -0.42426895501E+02  0.46142318304E+02  0.10000004952E+02 0.  0.
         12    1    3    3    0    0 -0.94440934914E+01  0.11827133030E+02  0.42426895501E+02  0.45045681696E+02  0.00000000000E+00 0. -1.
         11    1    4    4    0    0  0.65360893899E+01 -0.49575346908E+01 -0.12894321809E+02  0.15282707545E+02  0.51100000000E-03 0. -1.
        -11    1    4    4    0    0  0.13904422423E+01 -0.44641268229E+01 -0.91087780179E+01  0.10238730154E+02  0.51100000000E-03 0.  1.
         12    1    4    4    0    0  0.15175618592E+01 -0.24054715160E+01 -0.20423795674E+02  0.20620880606E+02  0.00000000000E+00 0. -1.
</event>
<event>
 8    1  0.2882335E-009  0.9118800E+02  0.7816164E-02  0.1184000E+00
        -11   -1    0    0    0    0  0.00000000000E+00  0.00000000000E+00  0.45593999997E+02  0.45594000000E+02  0.51100000000E-03 0. -1.
         11   -1    0    0    0    0 -0.00000000000E+00 -0.00000000000E+00 -0.45593999997E+02  0.45594000000E+02  0.51100000000E-03 0.  1.
         23    2    1    2    0    0  0.00000000000E+00  0.00000000000E+00 -0.35527136788E-14  0.91188000000E+02  0.91188000000E+02 0.  0.
    9900012    2    3    3    0    0  0.87856093399E+01  0.32389993547E+02 -0.30046877374E+02  0.46142318149E+02  0.10000003537E+02 0.  0.
         12    1    3    3    0    0 -0.87856093399E+01 -0.32389993547E+02  0.30046877374E+02  0.45045681851E+02  0.00000000000E+00 0. -1.
         11    1    4    4    0    0  0.12466466297E+01  0.17696301164E+01  0.43454025847E+00  0.22078369653E+01  0.51100000000E-03 0. -1.
        -11    1    4    4    0    0  0.62725460156E+01  0.23104082494E+02 -0.21761969478E+02  0.32353157145E+02  0.51100000000E-03 0.  1.
        -12    1    4    4    0    0  0.12664166946E+01  0.75162809370E+01 -0.87194481551E+01  0.11581324039E+02  0.00000000000E+00 0.  1.
</event>
<event>
 8    1  0.2882335E-009  0.9118800E+02  0.7816164E-02  0.1184000E+00
        -11   -1    0    0    0    0  0.00000000000E+00  0.00000000000E+00  0.45593999997E+02  0.45594000000E+02  0.51100000000E-03 0. -1.
         11   -1    0    0    0    0 -0.00000000000E+00 -0.00000000000E+00 -0.45593999997E+02  0.45594000000E+02  0.51100000000E-03 0.  1.
         23    2    1    2    0    0  0.00000000000E+00  0.00000000000E+00 -0.71054273576E-14  0.91188000000E+02  0.91188000000E+02 0.  0.
    9900012    2    3    3    0    0 -0.23402745313E+02 -0.19412901121E+02  0.33234984899E+02  0.46142318305E+02  0.10000004959E+02 0.  0.
        -12    1    3    3    0    0  0.23402745313E+02  0.19412901121E+02 -0.33234984899E+02  0.45045681695E+02  0.00000000000E+00 0.  1.
         11    1    4    4    0    0 -0.53611118192E+01 -0.70506729744E+01  0.10266028615E+02  0.13558939970E+02  0.51100000000E-03 0. -1.
        -11    1    4    4    0    0 -0.14579907522E+01 -0.44945566786E+01  0.53929525150E+01  0.71701264885E+01  0.51100000000E-03 0.  1.
        -12    1    4    4    0    0 -0.16583642741E+02 -0.78676714681E+01  0.17576003769E+02  0.25413251846E+02  0.00000000000E+00 0.  1.
</event>
<event>
 8    1  0.2882335E-009  0.9118800E+02  0.7816164E-02  0.1184000E+00
        -11   -1    0    0    0    0  0.00000000000E+00  0.00000000000E+00  0.45593999997E+02  0.45594000000E+02  0.51100000000E-03 0. -1.
         11   -1    0    0    0    0 -0.00000000000E+00 -0.00000000000E+00 -0.45593999997E+02  0.45594000000E+02  0.51100000000E-03 0.  1.
         23    2    1    2    0    0  0.00000000000E+00  0.00000000000E+00  0.00000000000E+00  0.91188000000E+02  0.91188000000E+02 0.  0.
    9900012    2    3    3    0    0  0.98414198587E+01 -0.99684485417E+01 -0.42812274112E+02  0.46142308466E+02  0.99999152390E+01 0.  0.
         12    1    3    3    0    0 -0.98414198587E+01  0.99684485417E+01  0.42812274112E+02  0.45045691534E+02  0.00000000000E+00 0. -1.
         11    1    4    4    0    0 -0.27732470726E+00 -0.23309888646E+01 -0.38698543086E+01  0.45261673314E+01  0.51100000000E-03 0. -1.
        -11    1    4    4    0    0  0.64344420987E+01 -0.18726589529E+01 -0.11282281435E+02  0.13122452946E+02  0.51100000000E-03 0.  1.
        -12    1    4    4    0    0  0.36843024673E+01 -0.57648007242E+01 -0.27660138368E+02  0.28493688189E+02  0.00000000000E+00 0.  1.
</event>
<event>
 8    1  0.2882335E-009  0.9118800E+02  0.7816164E-02  0.1184000E+00
        -11   -1    0    0    0    0  0.00000000000E+00  0.00000000000E+00  0.45593999997E+02  0.45594000000E+02  0.51100000000E-03 0. -1.
         11   -1    0    0    0    0 -0.00000000000E+00 -0.00000000000E+00 -0.45593999997E+02  0.45594000000E+02  0.51100000000E-03 0.  1.
         23    2    1    2    0    0 -0.44408920985E-15  0.00000000000E+00  0.00000000000E+00  0.91188000000E+02  0.91188000000E+02 0.  0.
    9900012    2    3    3    0    0  0.11925059616E+01  0.33452616944E+02 -0.30143223491E+02  0.46142316818E+02  0.99999914043E+01 0.  0.
         12    1    3    3    0    0 -0.11925059616E+01 -0.33452616944E+02  0.30143223491E+02  0.45045683182E+02  0.00000000000E+00 0. -1.
         11    1    4    4    0    0 -0.17498981727E+00  0.12710052889E+02 -0.10632411886E+02  0.16571790750E+02  0.51100000000E-03 0.  1.
        -11    1    4    4    0    0 -0.29289498667E+01  0.13355025890E+02 -0.11819677961E+02  0.18073191506E+02  0.51100000000E-03 0. -1.
         12    1    4    4    0    0  0.42964456456E+01  0.73875381651E+01 -0.76911336439E+01  0.11497334563E+02  0.00000000000E+00 0. -1.
</event>
<event>
 8    1  0.2882335E-009  0.9118800E+02  0.7816164E-02  0.1184000E+00
        -11   -1    0    0    0    0  0.00000000000E+00  0.00000000000E+00  0.45593999997E+02  0.45594000000E+02  0.51100000000E-03 0. -1.
         11   -1    0    0    0    0 -0.00000000000E+00 -0.00000000000E+00 -0.45593999997E+02  0.45594000000E+02  0.51100000000E-03 0.  1.
         23    2    1    2    0    0  0.00000000000E+00 -0.17763568394E-14  0.00000000000E+00  0.91188000000E+02  0.91188000000E+02 0.  0.
    9900012    2    3    3    0    0 -0.63305925782E+01  0.14910685842E+02  0.42032232314E+02  0.46142317543E+02  0.99999980137E+01 0.  0.
        -12    1    3    3    0    0  0.63305925782E+01 -0.14910685842E+02 -0.42032232314E+02  0.45045682457E+02  0.00000000000E+00 0.  1.
         11    1    4    4    0    0 -0.64994535678E+00 -0.69895853883E+00  0.11706394413E+01  0.15104201298E+01  0.51100000000E-03 0. -1.
        -11    1    4    4    0    0  0.13959024695E+01  0.49921347669E+01  0.12504459794E+02  0.13536301867E+02  0.51100000000E-03 0.  1.
        -12    1    4    4    0    0 -0.70765496909E+01  0.10617509614E+02  0.28357133079E+02  0.31095595547E+02  0.00000000000E+00 0.  1.
</event>
<event>
 8    1  0.2882335E-009  0.9118800E+02  0.7816164E-02  0.1184000E+00
        -11   -1    0    0    0    0  0.00000000000E+00  0.00000000000E+00  0.45593999997E+02  0.45594000000E+02  0.51100000000E-03 0. -1.
         11   -1    0    0    0    0 -0.00000000000E+00 -0.00000000000E+00 -0.45593999997E+02  0.45594000000E+02  0.51100000000E-03 0.  1.
         23    2    1    2    0    0 -0.35527136788E-14  0.00000000000E+00  0.00000000000E+00  0.91188000000E+02  0.91188000000E+02 0.  0.
    9900012    2    3    3    0    0 -0.26269106234E+02 -0.17149093571E+02 -0.32325780774E+02  0.46142318129E+02  0.10000003351E+02 0.  0.
         12    1    3    3    0    0  0.26269106234E+02  0.17149093571E+02  0.32325780774E+02  0.45045681871E+02  0.00000000000E+00 0. -1.
         11    1    4    4    0    0 -0.95821239981E+01 -0.32727096033E+01 -0.11014848882E+02  0.14961772108E+02  0.51100000000E-03 0. -1.
        -11    1    4    4    0    0  0.36053475124E+00 -0.32708482860E+00 -0.20547601201E+01  0.21116366174E+01  0.51100000000E-03 0.  1.
        -12    1    4    4    0    0 -0.17047516987E+02 -0.13549299139E+02 -0.19256171772E+02  0.29068909403E+02  0.00000000000E+00 0.  1.
</event>
<event>
 8    1  0.2882335E-009  0.9118800E+02  0.7816164E-02  0.1184000E+00
        -11   -1    0    0    0    0  0.00000000000E+00  0.00000000000E+00  0.45593999997E+02  0.45594000000E+02  0.51100000000E-03 0. -1.
         11   -1    0    0    0    0 -0.00000000000E+00 -0.00000000000E+00 -0.45593999997E+02  0.45594000000E+02  0.51100000000E-03 0.  1.
         23    2    1    2    0    0  0.00000000000E+00  0.00000000000E+00  0.00000000000E+00  0.91188000000E+02  0.91188000000E+02 0.  0.
    9900012    2    3    3    0    0 -0.41806354565E+02  0.77224977469E+01 -0.14889769874E+02  0.46142317628E+02  0.99999987834E+01 0.  0.
         12    1    3    3    0    0  0.41806354565E+02 -0.77224977469E+01  0.14889769874E+02  0.45045682372E+02  0.00000000000E+00 0. -1.
         11    1    4    4    0    0 -0.26556589942E+02  0.26026955493E+01 -0.71721897143E+01  0.27630902971E+02  0.51100000000E-03 0.  1.
        -11    1    4    4    0    0 -0.61600387974E+01 -0.23887238092E+00 -0.38771849355E+01  0.72825614509E+01  0.51100000000E-03 0. -1.
         12    1    4    4    0    0 -0.90897258262E+01  0.53586745785E+01 -0.38403952239E+01  0.11228853205E+02  0.00000000000E+00 0. -1.
</event>
<event>
 8    1  0.2882335E-009  0.9118800E+02  0.7816164E-02  0.1184000E+00
        -11   -1    0    0    0    0  0.00000000000E+00  0.00000000000E+00  0.45593999997E+02  0.45594000000E+02  0.51100000000E-03 0. -1.
         11   -1    0    0    0    0 -0.00000000000E+00 -0.00000000000E+00 -0.45593999997E+02  0.45594000000E+02  0.51100000000E-03 0.  1.
         23    2    1    2    0    0 -0.35527136788E-14 -0.88817841970E-15 -0.71054273576E-14  0.91188000000E+02  0.91188000000E+02 0.  0.
    9900012    2    3    3    0    0  0.26673405181E+02  0.79530777367E+01  0.35417390440E+02  0.46142317244E+02  0.99999952814E+01 0.  0.
        -12    1    3    3    0    0 -0.26673405181E+02 -0.79530777367E+01 -0.35417390440E+02  0.45045682756E+02  0.00000000000E+00 0.  1.
         11    1    4    4    0    0  0.13020922593E+02 -0.11716559791E+01  0.14950445025E+02  0.19860337600E+02  0.51100000000E-03 0. -1.
        -11    1    4    4    0    0  0.11578580968E+02  0.71710185287E+01  0.17390262174E+02  0.22088645561E+02  0.51100000000E-03 0.  1.
         12    1    4    4    0    0  0.20739016199E+01  0.19537151871E+01  0.30766832415E+01  0.41933340828E+01  0.00000000000E+00 0. -1.
</event>
<event>
 8    1  0.2882335E-009  0.9118800E+02  0.7816164E-02  0.1184000E+00
        -11   -1    0    0    0    0  0.00000000000E+00  0.00000000000E+00  0.45593999997E+02  0.45594000000E+02  0.51100000000E-03 0. -1.
         11   -1    0    0    0    0 -0.00000000000E+00 -0.00000000000E+00 -0.45593999997E+02  0.45594000000E+02  0.51100000000E-03 0.  1.
         23    2    1    2    0    0  0.00000000000E+00 -0.17763568394E-14  0.00000000000E+00  0.91188000000E+02  0.91188000000E+02 0.  0.
    9900012    2    3    3    0    0 -0.23264015444E+02  0.88250144353E+01 -0.37550211153E+02  0.46142315945E+02  0.99999834407E+01 0.  0.
         12    1    3    3    0    0  0.23264015444E+02 -0.88250144353E+01  0.37550211153E+02  0.45045684055E+02  0.00000000000E+00 0. -1.
         11    1    4    4    0    0 -0.97223979176E+01  0.19314147910E+01 -0.17619712646E+02  0.20216568906E+02  0.51100000000E-03 0. -1.
        -11    1    4    4    0    0 -0.13105633835E+02  0.40752266100E+01 -0.16278348719E+02  0.21292011352E+02  0.51100000000E-03 0.  1.
         12    1    4    4    0    0 -0.43598369097E+00  0.28183730344E+01 -0.36521497881E+01  0.46337356867E+01  0.00000000000E+00 0. -1.
</event>
<event>
 8    1  0.2882335E-009  0.9118800E+02  0.7816164E-02  0.1184000E+00
        -11   -1    0    0    0    0  0.00000000000E+00  0.00000000000E+00  0.45593999997E+02  0.45594000000E+02  0.51100000000E-03 0. -1.
         11   -1    0    0    0    0 -0.00000000000E+00 -0.00000000000E+00 -0.45593999997E+02  0.45594000000E+02  0.51100000000E-03 0.  1.
         23    2    1    2    0    0 -0.71054273576E-14  0.53290705182E-14  0.00000000000E+00  0.91188000000E+02  0.91188000000E+02 0.  0.
    9900012    2    3    3    0    0 -0.29299323114E+02  0.15794178487E+02 -0.30351393326E+02  0.46142317789E+02  0.10000000255E+02 0.  0.
         12    1    3    3    0    0  0.29299323114E+02 -0.15794178487E+02  0.30351393326E+02  0.45045682211E+02  0.00000000000E+00 0. -1.
         11    1    4    4    0    0 -0.60562212827E+01 -0.44726909178E+00 -0.40607726813E+01  0.73053227783E+01  0.51100000000E-03 0. -1.
        -11    1    4    4    0    0 -0.23001124219E+02  0.16366438009E+02 -0.25655701213E+02  0.38146127110E+02  0.51100000000E-03 0.  1.
        -12    1    4    4    0    0 -0.24197761195E+00 -0.12499043018E+00 -0.63491943167E+00  0.69086790129E+00  0.00000000000E+00 0.  1.
</event>
<event>
 8    1  0.2882335E-009  0.9118800E+02  0.7816164E-02  0.1184000E+00
        -11   -1    0    0    0    0  0.00000000000E+00  0.00000000000E+00  0.45593999997E+02  0.45594000000E+02  0.51100000000E-03 0.  1.
         11   -1    0    0    0    0 -0.00000000000E+00 -0.00000000000E+00 -0.45593999997E+02  0.45594000000E+02  0.51100000000E-03 0. -1.
         23    2    1    2    0    0  0.00000000000E+00  0.00000000000E+00  0.00000000000E+00  0.91188000000E+02  0.91188000000E+02 0.  0.
    9900012    2    3    3    0    0 -0.11385243736E+02  0.43580220409E+02  0.50404359999E+00  0.46142318233E+02  0.10000004308E+02 0.  0.
         12    1    3    3    0    0  0.11385243736E+02 -0.43580220409E+02 -0.50404359999E+00  0.45045681767E+02  0.00000000000E+00 0. -1.
         11    1    4    4    0    0 -0.29333727274E+01  0.14240958813E+02  0.19483741383E+01  0.14669892485E+02  0.51100000000E-03 0. -1.
        -11    1    4    4    0    0 -0.49294835081E+01  0.15549948206E+02 -0.44875843515E+01  0.16918602497E+02  0.51100000000E-03 0.  1.
        -12    1    4    4    0    0 -0.35223875009E+01  0.13789313390E+02  0.30432538132E+01  0.14553823251E+02  0.00000000000E+00 0.  1.
</event>
<event>
 8    1  0.2882335E-009  0.9118800E+02  0.7816164E-02  0.1184000E+00
        -11   -1    0    0    0    0  0.00000000000E+00  0.00000000000E+00  0.45593999997E+02  0.45594000000E+02  0.51100000000E-03 0. -1.
         11   -1    0    0    0    0 -0.00000000000E+00 -0.00000000000E+00 -0.45593999997E+02  0.45594000000E+02  0.51100000000E-03 0.  1.
         23    2    1    2    0    0  0.00000000000E+00 -0.88817841970E-15 -0.71054273576E-14  0.91188000000E+02  0.91188000000E+02 0.  0.
    9900012    2    3    3    0    0  0.11770084146E+02 -0.58969385279E+01 -0.43079056866E+02  0.46142313133E+02  0.99999578011E+01 0.  0.
         12    1    3    3    0    0 -0.11770084146E+02  0.58969385279E+01  0.43079056866E+02  0.45045686867E+02  0.00000000000E+00 0. -1.
         11    1    4    4    0    0  0.45736508372E+01 -0.49300114505E+01 -0.17552180652E+02  0.18796338494E+02  0.51100000000E-03 0. -1.
        -11    1    4    4    0    0  0.97250390695E+00 -0.38777517618E+00 -0.15466025574E+02  0.15501421894E+02  0.51100000000E-03 0.  1.
         12    1    4    4    0    0  0.62239294015E+01 -0.57915190116E+00 -0.10060850640E+02  0.11844552745E+02  0.00000000000E+00 0. -1.
</event>
<event>
 8    1  0.2882335E-009  0.9118800E+02  0.7816164E-02  0.1184000E+00
        -11   -1    0    0    0    0  0.00000000000E+00  0.00000000000E+00  0.45593999997E+02  0.45594000000E+02  0.51100000000E-03 0. -1.
         11   -1    0    0    0    0 -0.00000000000E+00 -0.00000000000E+00 -0.45593999997E+02  0.45594000000E+02  0.51100000000E-03 0.  1.
         23    2    1    2    0    0  0.88817841970E-15  0.71054273576E-14  0.71054273576E-14  0.91188000000E+02  0.91188000000E+02 0.  0.
    9900012    2    3    3    0    0 -0.30469139799E+01 -0.24764974125E+02 -0.37503675236E+02  0.46142320025E+02  0.10000020646E+02 0.  0.
         12    1    3    3    0    0  0.30469139799E+01  0.24764974125E+02  0.37503675236E+02  0.45045679975E+02  0.00000000000E+00 0. -1.
         11    1    4    4    0    0  0.88976675865E+00 -0.95634274601E+01 -0.10403556304E+02  0.14159266002E+02  0.51100000000E-03 0. -1.
        -11    1    4    4    0    0 -0.37216450786E+01 -0.14654524288E+02 -0.27421140970E+02  0.31313330972E+02  0.51100000000E-03 0.  1.
        -12    1    4    4    0    0 -0.21503565992E+00 -0.54702237714E+00  0.32102203891E+00  0.66972305142E+00  0.00000000000E+00 0.  1.
</event>
<event>
 8    1  0.2882335E-009  0.9118800E+02  0.7816164E-02  0.1184000E+00
        -11   -1    0    0    0    0  0.00000000000E+00  0.00000000000E+00  0.45593999997E+02  0.45594000000E+02  0.51100000000E-03 0. -1.
         11   -1    0    0    0    0 -0.00000000000E+00 -0.00000000000E+00 -0.45593999997E+02  0.45594000000E+02  0.51100000000E-03 0.  1.
         23    2    1    2    0    0  0.00000000000E+00 -0.35527136788E-14 -0.71054273576E-14  0.91188000000E+02  0.91188000000E+02 0.  0.
    9900012    2    3    3    0    0  0.40126836181E+01  0.27137862484E+02  0.35728818087E+02  0.46142315946E+02  0.99999834466E+01 0.  0.
        -12    1    3    3    0    0 -0.40126836181E+01 -0.27137862484E+02 -0.35728818087E+02  0.45045684054E+02  0.00000000000E+00 0.  1.
         11    1    4    4    0    0  0.19650668792E+01  0.42018676866E+01  0.21393055237E+01  0.51082098900E+01  0.51100000000E-03 0. -1.
        -11    1    4    4    0    0 -0.58149616217E+00  0.11095022767E+00  0.93011629807E+00  0.11025263392E+01  0.51100000000E-03 0.  1.
         12    1    4    4    0    0  0.26291129011E+01  0.22825044570E+02  0.32659396265E+02  0.39931579717E+02  0.00000000000E+00 0. -1.
</event>
<event>
 8    1  0.2882335E-009  0.9118800E+02  0.7816164E-02  0.1184000E+00
        -11   -1    0    0    0    0  0.00000000000E+00  0.00000000000E+00  0.45593999997E+02  0.45594000000E+02  0.51100000000E-03 0. -1.
         11   -1    0    0    0    0 -0.00000000000E+00 -0.00000000000E+00 -0.45593999997E+02  0.45594000000E+02  0.51100000000E-03 0.  1.
         23    2    1    2    0    0  0.00000000000E+00  0.35527136788E-14  0.35527136788E-14  0.91188000000E+02  0.91188000000E+02 0.  0.
    9900012    2    3    3    0    0  0.23649981068E+02  0.25795530266E+02  0.28361638593E+02  0.46142317300E+02  0.99999957959E+01 0.  0.
        -12    1    3    3    0    0 -0.23649981068E+02 -0.25795530266E+02 -0.28361638593E+02  0.45045682700E+02  0.00000000000E+00 0.  1.
         11    1    4    4    0    0  0.70171466719E+01  0.99828650674E+01  0.86320140583E+01  0.14946892966E+02  0.51100000000E-03 0. -1.
        -11    1    4    4    0    0  0.44606578492E+01  0.82838024771E+01  0.10810857534E+02  0.14331555840E+02  0.51100000000E-03 0.  1.
        -12    1    4    4    0    0  0.12172176546E+02  0.75288627217E+01  0.89187670014E+01  0.16863868494E+02  0.00000000000E+00 0.  1.
</event>
<event>
 8    1  0.2882335E-009  0.9118800E+02  0.7816164E-02  0.1184000E+00
        -11   -1    0    0    0    0  0.00000000000E+00  0.00000000000E+00  0.45593999997E+02  0.45594000000E+02  0.51100000000E-03 0. -1.
         11   -1    0    0    0    0 -0.00000000000E+00 -0.00000000000E+00 -0.45593999997E+02  0.45594000000E+02  0.51100000000E-03 0.  1.
         23    2    1    2    0    0  0.88817841970E-15  0.44408920985E-15  0.00000000000E+00  0.91188000000E+02  0.91188000000E+02 0.  0.
    9900012    2    3    3    0    0  0.64708566840E+01 -0.30082400895E+01  0.44476869266E+02  0.46142318805E+02  0.10000009518E+02 0.  0.
        -12    1    3    3    0    0 -0.64708566840E+01  0.30082400895E+01 -0.44476869266E+02  0.45045681195E+02  0.00000000000E+00 0.  1.
         11    1    4    4    0    0  0.25421512896E+01  0.17262762117E+01  0.45218656194E+01  0.54671593793E+01  0.51100000000E-03 0. -1.
        -11    1    4    4    0    0  0.99972424249E+00  0.29544535406E+00  0.18109585124E+01  0.20895711314E+01  0.51100000000E-03 0.  1.
         12    1    4    4    0    0  0.29289811520E+01 -0.50299616552E+01  0.38144045134E+02  0.38585588294E+02  0.00000000000E+00 0. -1.
</event>
<event>
 8    1  0.2882335E-009  0.9118800E+02  0.7816164E-02  0.1184000E+00
        -11   -1    0    0    0    0  0.00000000000E+00  0.00000000000E+00  0.45593999997E+02  0.45594000000E+02  0.51100000000E-03 0. -1.
         11   -1    0    0    0    0 -0.00000000000E+00 -0.00000000000E+00 -0.45593999997E+02  0.45594000000E+02  0.51100000000E-03 0.  1.
         23    2    1    2    0    0  0.17763568394E-14  0.00000000000E+00 -0.71054273576E-14  0.91188000000E+02  0.91188000000E+02 0.  0.
    9900012    2    3    3    0    0  0.75086908265E+01  0.18722214381E+02  0.40276690671E+02  0.46142316959E+02  0.99999926826E+01 0.  0.
        -12    1    3    3    0    0 -0.75086908265E+01 -0.18722214381E+02 -0.40276690671E+02  0.45045683041E+02  0.00000000000E+00 0.  1.
         11    1    4    4    0    0  0.50332163399E+01  0.33309083727E+01  0.13153943009E+02  0.14472540698E+02  0.51100000000E-03 0. -1.
        -11    1    4    4    0    0  0.23427281450E+01  0.39632961669E+01  0.51883504319E+01  0.69365028748E+01  0.51100000000E-03 0.  1.
        -12    1    4    4    0    0  0.13274634158E+00  0.11428009842E+02  0.21934397230E+02  0.24733273386E+02  0.00000000000E+00 0.  1.
</event>
<event>
 8    1  0.2882335E-009  0.9118800E+02  0.7816164E-02  0.1184000E+00
        -11   -1    0    0    0    0  0.00000000000E+00  0.00000000000E+00  0.45593999997E+02  0.45594000000E+02  0.51100000000E-03 0. -1.
         11   -1    0    0    0    0 -0.00000000000E+00 -0.00000000000E+00 -0.45593999997E+02  0.45594000000E+02  0.51100000000E-03 0.  1.
         23    2    1    2    0    0 -0.17763568394E-14  0.00000000000E+00  0.00000000000E+00  0.91188000000E+02  0.91188000000E+02 0.  0.
    9900012    2    3    3    0    0 -0.15879131610E+02  0.96698776479E+01 -0.41029991142E+02  0.46142317327E+02  0.99999960372E+01 0.  0.
         12    1    3    3    0    0  0.15879131610E+02 -0.96698776479E+01  0.41029991142E+02  0.45045682673E+02  0.00000000000E+00 0. -1.
         11    1    4    4    0    0  0.76086587789E-01 -0.88651329513E-02 -0.80970627368E+01  0.80974250836E+01  0.51100000000E-03 0. -1.
        -11    1    4    4    0    0 -0.14586995085E+02  0.78682811958E+01 -0.30537560940E+02  0.34745257274E+02  0.51100000000E-03 0.  1.
        -12    1    4    4    0    0 -0.13682231133E+01  0.18104615850E+01 -0.23953674647E+01  0.32996349692E+01  0.00000000000E+00 0.  1.
</event>
<event>
 8    1  0.2882335E-009  0.9118800E+02  0.7816164E-02  0.1184000E+00
        -11   -1    0    0    0    0  0.00000000000E+00  0.00000000000E+00  0.45593999997E+02  0.45594000000E+02  0.51100000000E-03 0.  1.
         11   -1    0    0    0    0 -0.00000000000E+00 -0.00000000000E+00 -0.45593999997E+02  0.45594000000E+02  0.51100000000E-03 0. -1.
         23    2    1    2    0    0  0.00000000000E+00  0.00000000000E+00  0.17763568394E-14  0.91188000000E+02  0.91188000000E+02 0.  0.
    9900012    2    3    3    0    0 -0.16333766414E+02  0.40149178341E+02 -0.12262342001E+02  0.46142317876E+02  0.10000001043E+02 0.  0.
         12    1    3    3    0    0  0.16333766414E+02 -0.40149178341E+02  0.12262342001E+02  0.45045682124E+02  0.00000000000E+00 0. -1.
         11    1    4    4    0    0 -0.19479826576E+01  0.82788682312E+01  0.47087708417E+00  0.85179822207E+01  0.51100000000E-03 0. -1.
        -11    1    4    4    0    0 -0.89184752120E-01  0.11287725091E+01 -0.15594495186E+01  0.19271648501E+01  0.51100000000E-03 0.  1.
        -12    1    4    4    0    0 -0.14296599004E+02  0.30741537601E+02 -0.11173769567E+02  0.35697170805E+02  0.00000000000E+00 0.  1.
</event>
<event>
 8    1  0.2882335E-009  0.9118800E+02  0.7816164E-02  0.1184000E+00
        -11   -1    0    0    0    0  0.00000000000E+00  0.00000000000E+00  0.45593999997E+02  0.45594000000E+02  0.51100000000E-03 0. -1.
         11   -1    0    0    0    0 -0.00000000000E+00 -0.00000000000E+00 -0.45593999997E+02  0.45594000000E+02  0.51100000000E-03 0.  1.
         23    2    1    2    0    0  0.00000000000E+00  0.00000000000E+00 -0.71054273576E-14  0.91188000000E+02  0.91188000000E+02 0.  0.
    9900012    2    3    3    0    0 -0.11285331961E+02 -0.68879598290E+01  0.43061709555E+02  0.46142317211E+02  0.99999949871E+01 0.  0.
        -12    1    3    3    0    0  0.11285331961E+02  0.68879598290E+01 -0.43061709555E+02  0.45045682789E+02  0.00000000000E+00 0.  1.
         11    1    4    4    0    0 -0.45459382117E+01 -0.58636524024E+01  0.31008983700E+02  0.31884244449E+02  0.51100000000E-03 0. -1.
        -11    1    4    4    0    0 -0.34051779638E+01  0.24677146460E+00  0.30655618970E+01  0.45884423421E+01  0.51100000000E-03 0.  1.
         12    1    4    4    0    0 -0.33342157854E+01 -0.12710788912E+01  0.89871639581E+01  0.96696304201E+01  0.00000000000E+00 0. -1.
</event>
<event>
 8    1  0.2882335E-009  0.9118800E+02  0.7816164E-02  0.1184000E+00
        -11   -1    0    0    0    0  0.00000000000E+00  0.00000000000E+00  0.45593999997E+02  0.45594000000E+02  0.51100000000E-03 0.  1.
         11   -1    0    0    0    0 -0.00000000000E+00 -0.00000000000E+00 -0.45593999997E+02  0.45594000000E+02  0.51100000000E-03 0. -1.
         23    2    1    2    0    0  0.35527136788E-14 -0.71054273576E-14  0.00000000000E+00  0.91188000000E+02  0.91188000000E+02 0.  0.
    9900012    2    3    3    0    0 -0.23062896297E+02  0.36392859334E+02  0.13144431253E+02  0.46142317975E+02  0.10000001955E+02 0.  0.
        -12    1    3    3    0    0  0.23062896297E+02 -0.36392859334E+02 -0.13144431253E+02  0.45045682025E+02  0.00000000000E+00 0.  1.
         11    1    4    4    0    0 -0.55280116877E+01  0.10013664780E+02  0.30966460221E+01  0.11849962548E+02  0.51100000000E-03 0. -1.
        -11    1    4    4    0    0 -0.16959779660E+02  0.22665161940E+02  0.63325207100E+01  0.29007662965E+02  0.51100000000E-03 0.  1.
        -12    1    4    4    0    0 -0.57510494837E+00  0.37140326147E+01  0.37152645210E+01  0.52846924628E+01  0.00000000000E+00 0.  1.
</event>
<event>
 8    1  0.2882335E-009  0.9118800E+02  0.7816164E-02  0.1184000E+00
        -11   -1    0    0    0    0  0.00000000000E+00  0.00000000000E+00  0.45593999997E+02  0.45594000000E+02  0.51100000000E-03 0. -1.
         11   -1    0    0    0    0 -0.00000000000E+00 -0.00000000000E+00 -0.45593999997E+02  0.45594000000E+02  0.51100000000E-03 0.  1.
         23    2    1    2    0    0 -0.35527136788E-14 -0.35527136788E-14  0.00000000000E+00  0.91188000000E+02  0.91188000000E+02 0.  0.
    9900012    2    3    3    0    0 -0.18118300973E+02 -0.23861472070E+02 -0.33637343294E+02  0.46142317150E+02  0.99999944300E+01 0.  0.
         12    1    3    3    0    0  0.18118300973E+02  0.23861472070E+02  0.33637343294E+02  0.45045682850E+02  0.00000000000E+00 0. -1.
         11    1    4    4    0    0 -0.55510746996E+00 -0.67343225339E+01 -0.80952563398E+01  0.10544781637E+02  0.51100000000E-03 0. -1.
        -11    1    4    4    0    0 -0.14366392387E+02 -0.15193697178E+02 -0.22967135750E+02  0.31060118947E+02  0.51100000000E-03 0.  1.
        -12    1    4    4    0    0 -0.31968011166E+01 -0.19334523576E+01 -0.25749512044E+01  0.45374165671E+01  0.00000000000E+00 0.  1.
</event>
<event>
 8    1  0.2882335E-009  0.9118800E+02  0.7816164E-02  0.1184000E+00
        -11   -1    0    0    0    0  0.00000000000E+00  0.00000000000E+00  0.45593999997E+02  0.45594000000E+02  0.51100000000E-03 0. -1.
         11   -1    0    0    0    0 -0.00000000000E+00 -0.00000000000E+00 -0.45593999997E+02  0.45594000000E+02  0.51100000000E-03 0.  1.
         23    2    1    2    0    0  0.22204460493E-15  0.00000000000E+00  0.71054273576E-14  0.91188000000E+02  0.91188000000E+02 0.  0.
    9900012    2    3    3    0    0 -0.14728244762E+01 -0.62794511413E+01  0.44581529592E+02  0.46142317639E+02  0.99999988908E+01 0.  0.
        -12    1    3    3    0    0  0.14728244762E+01  0.62794511413E+01 -0.44581529592E+02  0.45045682361E+02  0.00000000000E+00 0.  1.
         11    1    4    4    0    0 -0.19701587618E+01 -0.38364600087E+01  0.30848695502E+02  0.31148707282E+02  0.51100000000E-03 0. -1.
        -11    1    4    4    0    0  0.25317958437E+01 -0.27144355849E+00  0.34438161732E+01  0.42829361302E+01  0.51100000000E-03 0.  1.
        -12    1    4    4    0    0 -0.20344615581E+01 -0.21715475741E+01  0.10289017917E+02  0.10710674227E+02  0.00000000000E+00 0.  1.
</event>
<event>
 8    1  0.2882335E-009  0.9118800E+02  0.7816164E-02  0.1184000E+00
        -11   -1    0    0    0    0  0.00000000000E+00  0.00000000000E+00  0.45593999997E+02  0.45594000000E+02  0.51100000000E-03 0. -1.
         11   -1    0    0    0    0 -0.00000000000E+00 -0.00000000000E+00 -0.45593999997E+02  0.45594000000E+02  0.51100000000E-03 0.  1.
         23    2    1    2    0    0  0.00000000000E+00 -0.71054273576E-14  0.00000000000E+00  0.91188000000E+02  0.91188000000E+02 0.  0.
    9900012    2    3    3    0    0 -0.19031057806E+02 -0.35379327696E+02 -0.20377328703E+02  0.46142317471E+02  0.99999973541E+01 0.  0.
         12    1    3    3    0    0  0.19031057806E+02  0.35379327696E+02  0.20377328703E+02  0.45045682529E+02  0.00000000000E+00 0. -1.
         11    1    4    4    0    0 -0.88915958055E+00 -0.70398700612E+00  0.96320170735E+00  0.14879382563E+01  0.51100000000E-03 0. -1.
        -11    1    4    4    0    0 -0.12401407541E+02 -0.25189957569E+02 -0.16402620310E+02  0.32517300390E+02  0.51100000000E-03 0.  1.
         12    1    4    4    0    0 -0.57404906841E+01 -0.94853831204E+01 -0.49379101005E+01  0.12137078825E+02  0.00000000000E+00 0. -1.
</event>
<event>
 8    1  0.2882335E-009  0.9118800E+02  0.7816164E-02  0.1184000E+00
        -11   -1    0    0    0    0  0.00000000000E+00  0.00000000000E+00  0.45593999997E+02  0.45594000000E+02  0.51100000000E-03 0. -1.
         11   -1    0    0    0    0 -0.00000000000E+00 -0.00000000000E+00 -0.45593999997E+02  0.45594000000E+02  0.51100000000E-03 0.  1.
         23    2    1    2    0    0  0.11102230246E-15  0.00000000000E+00  0.00000000000E+00  0.91188000000E+02  0.91188000000E+02 0.  0.
    9900012    2    3    3    0    0 -0.54760850999E+00 -0.12080307192E+02 -0.43392163213E+02  0.46142317352E+02  0.99999962724E+01 0.  0.
         12    1    3    3    0    0  0.54760850999E+00  0.12080307192E+02  0.43392163213E+02  0.45045682648E+02  0.00000000000E+00 0. -1.
         11    1    4    4    0    0 -0.38417342246E+01 -0.66999050655E+01 -0.26272962335E+02  0.27384597858E+02  0.51100000000E-03 0.  1.
        -11    1    4    4    0    0  0.27223215872E+01 -0.61181555420E+01 -0.15571299108E+02  0.16950168678E+02  0.51100000000E-03 0. -1.
         12    1    4    4    0    0  0.57180412747E+00  0.73775341574E+00 -0.15479017703E+01  0.18075508162E+01  0.00000000000E+00 0. -1.
</event>
<event>
 8    1  0.2882335E-009  0.9118800E+02  0.7816164E-02  0.1184000E+00
        -11   -1    0    0    0    0  0.00000000000E+00  0.00000000000E+00  0.45593999997E+02  0.45594000000E+02  0.51100000000E-03 0. -1.
         11   -1    0    0    0    0 -0.00000000000E+00 -0.00000000000E+00 -0.45593999997E+02  0.45594000000E+02  0.51100000000E-03 0.  1.
         23    2    1    2    0    0  0.00000000000E+00  0.35527136788E-14  0.00000000000E+00  0.91188000000E+02  0.91188000000E+02 0.  0.
    9900012    2    3    3    0    0  0.24982163046E+02  0.31465385241E+02  0.20369938993E+02  0.46142319259E+02  0.10000013663E+02 0.  0.
        -12    1    3    3    0    0 -0.24982163046E+02 -0.31465385241E+02 -0.20369938993E+02  0.45045680741E+02  0.00000000000E+00 0.  1.
         11    1    4    4    0    0  0.15512379853E+02  0.21861568653E+02  0.13300377083E+02  0.29924273483E+02  0.51100000000E-03 0. -1.
        -11    1    4    4    0    0  0.70860903280E+01  0.61001379898E+01  0.74613997240E+01  0.11962309381E+02  0.51100000000E-03 0.  1.
         12    1    4    4    0    0  0.23836928647E+01  0.35036785981E+01 -0.39183781403E+00  0.42557363951E+01  0.00000000000E+00 0. -1.
</event>
<event>
 8    1  0.2882335E-009  0.9118800E+02  0.7816164E-02  0.1184000E+00
        -11   -1    0    0    0    0  0.00000000000E+00  0.00000000000E+00  0.45593999997E+02  0.45594000000E+02  0.51100000000E-03 0. -1.
         11   -1    0    0    0    0 -0.00000000000E+00 -0.00000000000E+00 -0.45593999997E+02  0.45594000000E+02  0.51100000000E-03 0.  1.
         23    2    1    2    0    0  0.00000000000E+00  0.00000000000E+00  0.00000000000E+00  0.91188000000E+02  0.91188000000E+02 0.  0.
    9900012    2    3    3    0    0  0.33818196151E+02  0.25387827815E+02  0.15520994750E+02  0.46142317964E+02  0.10000001848E+02 0.  0.
        -12    1    3    3    0    0 -0.33818196151E+02 -0.25387827815E+02 -0.15520994750E+02  0.45045682036E+02  0.00000000000E+00 0.  1.
         11    1    4    4    0    0  0.17393779220E+01  0.18641687840E+01 -0.88892256894E+00  0.27001378493E+01  0.51100000000E-03 0. -1.
        -11    1    4    4    0    0  0.19134391552E+01 -0.84798701842E-01  0.89174017694E+00  0.21127330699E+01  0.51100000000E-03 0.  1.
         12    1    4    4    0    0  0.30165379074E+02  0.23608457733E+02  0.15518177142E+02  0.41329447045E+02  0.00000000000E+00 0. -1.
</event>
<event>
 8    1  0.2951132E-009  0.9118800E+02  0.7816164E-02  0.1184000E+00
        -11   -1    0    0    0    0  0.00000000000E+00  0.00000000000E+00  0.45593999997E+02  0.45594000000E+02  0.51100000000E-03 0. -1.
         11   -1    0    0    0    0 -0.00000000000E+00 -0.00000000000E+00 -0.45593999997E+02  0.45594000000E+02  0.51100000000E-03 0.  1.
         23    2    1    2    0    0  0.00000000000E+00  0.00000000000E+00  0.00000000000E+00  0.91188000000E+02  0.91188000000E+02 0.  0.
    9900012    2    3    3    0    0  0.10279545746E+02  0.18935437728E+02  0.39558735662E+02  0.46142318410E+02  0.10000005921E+02 0.  0.
        -12    1    3    3    0    0 -0.10279545746E+02 -0.18935437728E+02 -0.39558735662E+02  0.45045681590E+02  0.00000000000E+00 0.  1.
         11    1    4    4    0    0  0.62123004452E+01  0.76703241613E+01  0.95635214318E+01  0.13743634599E+02  0.51100000000E-03 0. -1.
        -11    1    4    4    0    0 -0.25673056602E+00  0.20005334107E+01  0.52940141156E+01  0.56652122844E+01  0.51100000000E-03 0.  1.
         12    1    4    4    0    0  0.43239758670E+01  0.92645801555E+01  0.24701200115E+02  0.26733471527E+02  0.00000000000E+00 0. -1.
</event>
<event>
 8    1  0.2882335E-009  0.9118800E+02  0.7816164E-02  0.1184000E+00
        -11   -1    0    0    0    0  0.00000000000E+00  0.00000000000E+00  0.45593999997E+02  0.45594000000E+02  0.51100000000E-03 0. -1.
         11   -1    0    0    0    0 -0.00000000000E+00 -0.00000000000E+00 -0.45593999997E+02  0.45594000000E+02  0.51100000000E-03 0.  1.
         23    2    1    2    0    0 -0.17763568394E-14  0.88817841970E-15 -0.71054273576E-14  0.91188000000E+02  0.91188000000E+02 0.  0.
    9900012    2    3    3    0    0 -0.15744481588E+02  0.70352293861E+01 -0.41614064328E+02  0.46142317600E+02  0.99999985343E+01 0.  0.
         12    1    3    3    0    0  0.15744481588E+02 -0.70352293861E+01  0.41614064328E+02  0.45045682400E+02  0.00000000000E+00 0. -1.
         11    1    4    4    0    0 -0.66705412683E+01 -0.15918093700E+01 -0.14269640119E+02  0.15832012104E+02  0.51100000000E-03 0. -1.
        -11    1    4    4    0    0 -0.89758795159E+01  0.78824129784E+01 -0.26910956786E+02  0.29443139148E+02  0.51100000000E-03 0.  1.
        -12    1    4    4    0    0 -0.98060803640E-01  0.74462577772E+00 -0.43346742261E+00  0.86716634882E+00  0.00000000000E+00 0.  1.
</event>
<event>
 8    1  0.2882335E-009  0.9118800E+02  0.7816164E-02  0.1184000E+00
        -11   -1    0    0    0    0  0.00000000000E+00  0.00000000000E+00  0.45593999997E+02  0.45594000000E+02  0.51100000000E-03 0. -1.
         11   -1    0    0    0    0 -0.00000000000E+00 -0.00000000000E+00 -0.45593999997E+02  0.45594000000E+02  0.51100000000E-03 0.  1.
         23    2    1    2    0    0  0.00000000000E+00  0.00000000000E+00  0.00000000000E+00  0.91188000000E+02  0.91188000000E+02 0.  0.
    9900012    2    3    3    0    0 -0.32618167639E+02  0.30963384957E+02 -0.25372095587E+01  0.46142317627E+02  0.99999987730E+01 0.  0.
         12    1    3    3    0    0  0.32618167639E+02 -0.30963384957E+02  0.25372095587E+01  0.45045682373E+02  0.00000000000E+00 0. -1.
         11    1    4    4    0    0 -0.90140512868E+00  0.60272628451E+00 -0.12189568586E+01  0.16314613891E+01  0.51100000000E-03 0. -1.
        -11    1    4    4    0    0 -0.67213714832E+01  0.10818358860E+02 -0.10781576910E+01  0.12781867911E+02  0.51100000000E-03 0.  1.
        -12    1    4    4    0    0 -0.24995391027E+02  0.19542299813E+02 -0.24009500921E+00  0.31728988326E+02  0.00000000000E+00 0.  1.
</event>
<event>
 8    1  0.2882335E-009  0.9118800E+02  0.7816164E-02  0.1184000E+00
        -11   -1    0    0    0    0  0.00000000000E+00  0.00000000000E+00  0.45593999997E+02  0.45594000000E+02  0.51100000000E-03 0. -1.
         11   -1    0    0    0    0 -0.00000000000E+00 -0.00000000000E+00 -0.45593999997E+02  0.45594000000E+02  0.51100000000E-03 0.  1.
         23    2    1    2    0    0  0.00000000000E+00  0.00000000000E+00  0.35527136788E-14  0.91188000000E+02  0.91188000000E+02 0.  0.
    9900012    2    3    3    0    0 -0.93855458078E+01  0.33190110314E+02 -0.28973120769E+02  0.46142316301E+02  0.99999866897E+01 0.  0.
         12    1    3    3    0    0  0.93855458078E+01 -0.33190110314E+02  0.28973120769E+02  0.45045683699E+02  0.00000000000E+00 0. -1.
         11    1    4    4    0    0 -0.52324771267E+01  0.14591193791E+02 -0.71545357487E+01  0.17072467167E+02  0.51100000000E-03 0. -1.
        -11    1    4    4    0    0 -0.17543655045E+01  0.99372205815E+01 -0.98402604282E+01  0.14094569052E+02  0.51100000000E-03 0.  1.
         12    1    4    4    0    0 -0.23987031766E+01  0.86616959420E+01 -0.11978324592E+02  0.14975280083E+02  0.00000000000E+00 0. -1.
</event>
<event>
 8    1  0.2882335E-009  0.9118800E+02  0.7816164E-02  0.1184000E+00
        -11   -1    0    0    0    0  0.00000000000E+00  0.00000000000E+00  0.45593999997E+02  0.45594000000E+02  0.51100000000E-03 0. -1.
         11   -1    0    0    0    0 -0.00000000000E+00 -0.00000000000E+00 -0.45593999997E+02  0.45594000000E+02  0.51100000000E-03 0.  1.
         23    2    1    2    0    0  0.35527136788E-14 -0.35527136788E-14  0.71054273576E-14  0.91188000000E+02  0.91188000000E+02 0.  0.
    9900012    2    3    3    0    0  0.92788978216E+01 -0.22607534517E+02  0.37840651413E+02  0.46142318064E+02  0.10000002763E+02 0.  0.
        -12    1    3    3    0    0 -0.92788978216E+01  0.22607534517E+02 -0.37840651413E+02  0.45045681936E+02  0.00000000000E+00 0.  1.
         11    1    4    4    0    0  0.29516449667E+01 -0.18724831672E+01  0.23483124882E+01  0.42110536715E+01  0.51100000000E-03 0. -1.
        -11    1    4    4    0    0  0.41442639661E+01 -0.18833961837E+02  0.29047563321E+02  0.34866229757E+02  0.51100000000E-03 0.  1.
         12    1    4    4    0    0  0.21829888888E+01 -0.19010895127E+01  0.64447756040E+01  0.70650346361E+01  0.00000000000E+00 0. -1.
</event>
<event>
 8    1  0.2882335E-009  0.9118800E+02  0.7816164E-02  0.1184000E+00
        -11   -1    0    0    0    0  0.00000000000E+00  0.00000000000E+00  0.45593999997E+02  0.45594000000E+02  0.51100000000E-03 0.  1.
         11   -1    0    0    0    0 -0.00000000000E+00 -0.00000000000E+00 -0.45593999997E+02  0.45594000000E+02  0.51100000000E-03 0. -1.
         23    2    1    2    0    0  0.00000000000E+00  0.00000000000E+00  0.00000000000E+00  0.91188000000E+02  0.91188000000E+02 0.  0.
    9900012    2    3    3    0    0  0.40643263825E+02 -0.18070988341E+02  0.71188464676E+01  0.46142317754E+02  0.99999999335E+01 0.  0.
        -12    1    3    3    0    0 -0.40643263825E+02  0.18070988341E+02 -0.71188464676E+01  0.45045682246E+02  0.00000000000E+00 0.  1.
         11    1    4    4    0    0  0.97638629557E+01 -0.79032248389E+01  0.19302021248E+01  0.12709038641E+02  0.51100000000E-03 0. -1.
        -11    1    4    4    0    0  0.11630971500E+02 -0.20746141832E+01  0.41662806093E+01  0.12527626128E+02  0.51100000000E-03 0.  1.
         12    1    4    4    0    0  0.19248429370E+02 -0.80931493194E+01  0.10223637335E+01  0.20905652984E+02  0.00000000000E+00 0. -1.
</event>
<event>
 8    1  0.2882335E-009  0.9118800E+02  0.7816164E-02  0.1184000E+00
        -11   -1    0    0    0    0  0.00000000000E+00  0.00000000000E+00  0.45593999997E+02  0.45594000000E+02  0.51100000000E-03 0. -1.
         11   -1    0    0    0    0 -0.00000000000E+00 -0.00000000000E+00 -0.45593999997E+02  0.45594000000E+02  0.51100000000E-03 0.  1.
         23    2    1    2    0    0 -0.35527136788E-14  0.00000000000E+00 -0.71054273576E-14  0.91188000000E+02  0.91188000000E+02 0.  0.
    9900012    2    3    3    0    0  0.23545930619E+02  0.12793993505E+01  0.38380540177E+02  0.46142316791E+02  0.99999911566E+01 0.  0.
        -12    1    3    3    0    0 -0.23545930619E+02 -0.12793993505E+01 -0.38380540177E+02  0.45045683209E+02  0.00000000000E+00 0.  1.
         11    1    4    4    0    0  0.46444767787E+01  0.79969972386E-01  0.23781688828E+01  0.52185483845E+01  0.51100000000E-03 0. -1.
        -11    1    4    4    0    0  0.45738344063E+01 -0.36902377813E-01  0.51724104922E+01  0.69047196556E+01  0.51100000000E-03 0.  1.
         12    1    4    4    0    0  0.14327619435E+02  0.12363317559E+01  0.30829960802E+02  0.34019048751E+02  0.00000000000E+00 0. -1.
</event>
<event>
 8    1  0.2882335E-009  0.9118800E+02  0.7816164E-02  0.1184000E+00
        -11   -1    0    0    0    0  0.00000000000E+00  0.00000000000E+00  0.45593999997E+02  0.45594000000E+02  0.51100000000E-03 0. -1.
         11   -1    0    0    0    0 -0.00000000000E+00 -0.00000000000E+00 -0.45593999997E+02  0.45594000000E+02  0.51100000000E-03 0.  1.
         23    2    1    2    0    0  0.35527136788E-14  0.00000000000E+00  0.00000000000E+00  0.91188000000E+02  0.91188000000E+02 0.  0.
    9900012    2    3    3    0    0 -0.19254896680E+02  0.34594594778E+02  0.21484333945E+02  0.46142316088E+02  0.99999847452E+01 0.  0.
        -12    1    3    3    0    0  0.19254896680E+02 -0.34594594778E+02 -0.21484333945E+02  0.45045683912E+02  0.00000000000E+00 0.  1.
         11    1    4    4    0    0 -0.10358717438E+01  0.57430670466E+01  0.14559041016E+01  0.60146077499E+01  0.51100000000E-03 0. -1.
        -11    1    4    4    0    0 -0.72806446148E+01  0.11018190712E+02  0.40831526048E+01  0.13823185162E+02  0.51100000000E-03 0.  1.
         12    1    4    4    0    0 -0.10938380322E+02  0.17833337020E+02  0.15945277239E+02  0.26304523176E+02  0.00000000000E+00 0. -1.
</event>
<event>
 8    1  0.2882335E-009  0.9118800E+02  0.7816164E-02  0.1184000E+00
        -11   -1    0    0    0    0  0.00000000000E+00  0.00000000000E+00  0.45593999997E+02  0.45594000000E+02  0.51100000000E-03 0. -1.
         11   -1    0    0    0    0 -0.00000000000E+00 -0.00000000000E+00 -0.45593999997E+02  0.45594000000E+02  0.51100000000E-03 0.  1.
         23    2    1    2    0    0 -0.88817841970E-15  0.00000000000E+00  0.00000000000E+00  0.91188000000E+02  0.91188000000E+02 0.  0.
    9900012    2    3    3    0    0 -0.65628008868E+01  0.36163568619E+02  0.26043030706E+02  0.46142317642E+02  0.99999989140E+01 0.  0.
        -12    1    3    3    0    0  0.65628008868E+01 -0.36163568619E+02 -0.26043030706E+02  0.45045682358E+02  0.00000000000E+00 0.  1.
         11    1    4    4    0    0 -0.12706426239E+00  0.16121943270E+02  0.75034217145E+01  0.17782984503E+02  0.51100000000E-03 0.  1.
        -11    1    4    4    0    0 -0.53840791884E+01  0.19137719288E+02  0.16224914595E+02  0.25661030029E+02  0.51100000000E-03 0. -1.
        -12    1    4    4    0    0 -0.10516574360E+01  0.90390606088E+00  0.23146943959E+01  0.26983031105E+01  0.00000000000E+00 0.  1.
</event>
<event>
 8    1  0.2882335E-009  0.9118800E+02  0.7816164E-02  0.1184000E+00
        -11   -1    0    0    0    0  0.00000000000E+00  0.00000000000E+00  0.45593999997E+02  0.45594000000E+02  0.51100000000E-03 0. -1.
         11   -1    0    0    0    0 -0.00000000000E+00 -0.00000000000E+00 -0.45593999997E+02  0.45594000000E+02  0.51100000000E-03 0.  1.
         23    2    1    2    0    0  0.16653345369E-15  0.00000000000E+00  0.00000000000E+00  0.91188000000E+02  0.91188000000E+02 0.  0.
    9900012    2    3    3    0    0 -0.23337069824E+00  0.34800506482E+01  0.44910447702E+02  0.46142317330E+02  0.99999960730E+01 0.  0.
        -12    1    3    3    0    0  0.23337069824E+00 -0.34800506482E+01 -0.44910447702E+02  0.45045682670E+02  0.00000000000E+00 0.  1.
         11    1    4    4    0    0 -0.33400341711E+00 -0.96787641207E-01  0.16591899485E+02  0.16595543224E+02  0.51100000000E-03 0. -1.
        -11    1    4    4    0    0 -0.90520875159E+00  0.13673179990E+01  0.63733152808E+00  0.17593047298E+01  0.51100000000E-03 0.  1.
        -12    1    4    4    0    0  0.10058414705E+01  0.22095202904E+01  0.27681216689E+02  0.27787469376E+02  0.00000000000E+00 0.  1.
</event>
<event>
 8    1  0.2882335E-009  0.9118800E+02  0.7816164E-02  0.1184000E+00
        -11   -1    0    0    0    0  0.00000000000E+00  0.00000000000E+00  0.45593999997E+02  0.45594000000E+02  0.51100000000E-03 0. -1.
         11   -1    0    0    0    0 -0.00000000000E+00 -0.00000000000E+00 -0.45593999997E+02  0.45594000000E+02  0.51100000000E-03 0.  1.
         23    2    1    2    0    0  0.00000000000E+00  0.17763568394E-14 -0.71054273576E-14  0.91188000000E+02  0.91188000000E+02 0.  0.
    9900012    2    3    3    0    0  0.10735931178E+01 -0.53082658130E+01  0.44718936149E+02  0.46142317206E+02  0.99999949357E+01 0.  0.
        -12    1    3    3    0    0 -0.10735931178E+01  0.53082658130E+01 -0.44718936149E+02  0.45045682794E+02  0.00000000000E+00 0.  1.
         11    1    4    4    0    0 -0.19274628810E+01 -0.25005665836E+01  0.36069334575E+02  0.36207248491E+02  0.51100000000E-03 0. -1.
        -11    1    4    4    0    0  0.24398067986E+01 -0.59299986562E+00  0.35618778983E+01  0.43578986310E+01  0.51100000000E-03 0.  1.
         12    1    4    4    0    0  0.56124920021E+00 -0.22146993638E+01  0.50877236759E+01  0.55771700833E+01  0.00000000000E+00 0. -1.
</event>
<event>
 8    1  0.2882335E-009  0.9118800E+02  0.7816164E-02  0.1184000E+00
        -11   -1    0    0    0    0  0.00000000000E+00  0.00000000000E+00  0.45593999997E+02  0.45594000000E+02  0.51100000000E-03 0. -1.
         11   -1    0    0    0    0 -0.00000000000E+00 -0.00000000000E+00 -0.45593999997E+02  0.45594000000E+02  0.51100000000E-03 0.  1.
         23    2    1    2    0    0  0.00000000000E+00 -0.35527136788E-14 -0.71054273576E-14  0.91188000000E+02  0.91188000000E+02 0.  0.
    9900012    2    3    3    0    0  0.14544520296E+02  0.22875955660E+02  0.35975839930E+02  0.46142317892E+02  0.10000001190E+02 0.  0.
        -12    1    3    3    0    0 -0.14544520296E+02 -0.22875955660E+02 -0.35975839930E+02  0.45045682108E+02  0.00000000000E+00 0.  1.
         11    1    4    4    0    0  0.17652902880E+01  0.34976212158E+01  0.67215429345E+01  0.77800220855E+01  0.51100000000E-03 0. -1.
        -11    1    4    4    0    0  0.13427324769E+01 -0.53647657962E+00  0.43089053600E+00  0.15087758416E+01  0.51100000000E-03 0.  1.
        -12    1    4    4    0    0  0.11436497531E+02  0.19914811023E+02  0.28823406459E+02  0.36853519965E+02  0.00000000000E+00 0.  1.
</event>
<event>
 8    1  0.2882335E-009  0.9118800E+02  0.7816164E-02  0.1184000E+00
        -11   -1    0    0    0    0  0.00000000000E+00  0.00000000000E+00  0.45593999997E+02  0.45594000000E+02  0.51100000000E-03 0.  1.
         11   -1    0    0    0    0 -0.00000000000E+00 -0.00000000000E+00 -0.45593999997E+02  0.45594000000E+02  0.51100000000E-03 0. -1.
         23    2    1    2    0    0  0.00000000000E+00  0.00000000000E+00  0.00000000000E+00  0.91188000000E+02  0.91188000000E+02 0.  0.
    9900012    2    3    3    0    0  0.15821708379E+02  0.23911170743E+02 -0.34742524051E+02  0.46142317413E+02  0.99999968241E+01 0.  0.
         12    1    3    3    0    0 -0.15821708379E+02 -0.23911170743E+02  0.34742524051E+02  0.45045682587E+02  0.00000000000E+00 0. -1.
         11    1    4    4    0    0  0.18953169153E+00  0.20012932525E+01 -0.47113760354E+01  0.51223199190E+01  0.51100000000E-03 0. -1.
        -11    1    4    4    0    0  0.89794687113E+01  0.12059931555E+02 -0.22103392372E+02  0.26732616073E+02  0.51100000000E-03 0.  1.
        -12    1    4    4    0    0  0.66527079762E+01  0.98499459350E+01 -0.79277556429E+01  0.14287381421E+02  0.00000000000E+00 0.  1.
</event>
<event>
 8    1  0.2882335E-009  0.9118800E+02  0.7816164E-02  0.1184000E+00
        -11   -1    0    0    0    0  0.00000000000E+00  0.00000000000E+00  0.45593999997E+02  0.45594000000E+02  0.51100000000E-03 0.  1.
         11   -1    0    0    0    0 -0.00000000000E+00 -0.00000000000E+00 -0.45593999997E+02  0.45594000000E+02  0.51100000000E-03 0. -1.
         23    2    1    2    0    0 -0.71054273576E-14  0.00000000000E+00  0.00000000000E+00  0.91188000000E+02  0.91188000000E+02 0.  0.
    9900012    2    3    3    0    0  0.35333899153E+02 -0.18612364406E+02  0.20837681484E+02  0.46142317545E+02  0.99999980308E+01 0.  0.
        -12    1    3    3    0    0 -0.35333899153E+02  0.18612364406E+02 -0.20837681484E+02  0.45045682455E+02  0.00000000000E+00 0.  1.
         11    1    4    4    0    0  0.12104681713E+01 -0.33139350443E+01  0.18737421154E+01  0.39947851566E+01  0.51100000000E-03 0. -1.
        -11    1    4    4    0    0  0.13494701008E+01 -0.46630217886E+00  0.17749322117E+01  0.22779139343E+01  0.51100000000E-03 0.  1.
         12    1    4    4    0    0  0.32773960881E+02 -0.14832127183E+02  0.17189007157E+02  0.39869618454E+02  0.00000000000E+00 0. -1.
</event>
<event>
 8    1  0.2882335E-009  0.9118800E+02  0.7816164E-02  0.1184000E+00
        -11   -1    0    0    0    0  0.00000000000E+00  0.00000000000E+00  0.45593999997E+02  0.45594000000E+02  0.51100000000E-03 0. -1.
         11   -1    0    0    0    0 -0.00000000000E+00 -0.00000000000E+00 -0.45593999997E+02  0.45594000000E+02  0.51100000000E-03 0.  1.
         23    2    1    2    0    0  0.00000000000E+00  0.00000000000E+00  0.00000000000E+00  0.91188000000E+02  0.91188000000E+02 0.  0.
    9900012    2    3    3    0    0 -0.81373545612E+01 -0.30377207303E+02  0.32250927799E+02  0.46142316448E+02  0.99999880241E+01 0.  0.
        -12    1    3    3    0    0  0.81373545612E+01  0.30377207303E+02 -0.32250927799E+02  0.45045683552E+02  0.00000000000E+00 0.  1.
         11    1    4    4    0    0 -0.39924059767E+01 -0.50025487450E+01  0.86679169129E+01  0.10774858853E+02  0.51100000000E-03 0. -1.
        -11    1    4    4    0    0 -0.18476451048E+01 -0.14382509131E+02  0.94161638694E+01  0.17289722485E+02  0.51100000000E-03 0.  1.
         12    1    4    4    0    0 -0.22973034797E+01 -0.10992149427E+02  0.14166847017E+02  0.18077735110E+02  0.00000000000E+00 0. -1.
</event>
<event>
 8    1  0.2882335E-009  0.9118800E+02  0.7816164E-02  0.1184000E+00
        -11   -1    0    0    0    0  0.00000000000E+00  0.00000000000E+00  0.45593999997E+02  0.45594000000E+02  0.51100000000E-03 0.  1.
         11   -1    0    0    0    0 -0.00000000000E+00 -0.00000000000E+00 -0.45593999997E+02  0.45594000000E+02  0.51100000000E-03 0. -1.
         23    2    1    2    0    0  0.00000000000E+00  0.00000000000E+00  0.22204460493E-15  0.91188000000E+02  0.91188000000E+02 0.  0.
    9900012    2    3    3    0    0 -0.19345786444E+02 -0.40650086115E+02  0.15571177210E+01  0.46142316856E+02  0.99999917464E+01 0.  0.
        -12    1    3    3    0    0  0.19345786444E+02  0.40650086115E+02 -0.15571177210E+01  0.45045683144E+02  0.00000000000E+00 0.  1.
         11    1    4    4    0    0 -0.98604683254E+01 -0.11657726269E+02 -0.17435686602E+01  0.15367870681E+02  0.51100000000E-03 0. -1.
        -11    1    4    4    0    0 -0.59428207623E+01 -0.15237807406E+02  0.25294662795E+01  0.16550108552E+02  0.51100000000E-03 0.  1.
         12    1    4    4    0    0 -0.35424973567E+01 -0.13754552441E+02  0.77122010168E+00  0.14224337623E+02  0.00000000000E+00 0. -1.
</event>
<event>
 8    1  0.2882335E-009  0.9118800E+02  0.7816164E-02  0.1184000E+00
        -11   -1    0    0    0    0  0.00000000000E+00  0.00000000000E+00  0.45593999997E+02  0.45594000000E+02  0.51100000000E-03 0. -1.
         11   -1    0    0    0    0 -0.00000000000E+00 -0.00000000000E+00 -0.45593999997E+02  0.45594000000E+02  0.51100000000E-03 0.  1.
         23    2    1    2    0    0  0.00000000000E+00  0.00000000000E+00 -0.35527136788E-14  0.91188000000E+02  0.91188000000E+02 0.  0.
    9900012    2    3    3    0    0 -0.16959707056E+02 -0.26926687242E+02 -0.31881583453E+02  0.46142317491E+02  0.99999975364E+01 0.  0.
         12    1    3    3    0    0  0.16959707056E+02  0.26926687242E+02  0.31881583453E+02  0.45045682509E+02  0.00000000000E+00 0. -1.
         11    1    4    4    0    0 -0.80741174875E+01 -0.88959805044E+01 -0.70351794534E+01  0.13922054178E+02  0.51100000000E-03 0. -1.
        -11    1    4    4    0    0 -0.81016979070E+01 -0.14431649908E+02 -0.22174419398E+02  0.27669747088E+02  0.51100000000E-03 0.  1.
         12    1    4    4    0    0 -0.78389166180E+00 -0.35990568291E+01 -0.26719846018E+01  0.45505162244E+01  0.00000000000E+00 0. -1.
</event>
<event>
 8    1  0.2882335E-009  0.9118800E+02  0.7816164E-02  0.1184000E+00
        -11   -1    0    0    0    0  0.00000000000E+00  0.00000000000E+00  0.45593999997E+02  0.45594000000E+02  0.51100000000E-03 0. -1.
         11   -1    0    0    0    0 -0.00000000000E+00 -0.00000000000E+00 -0.45593999997E+02  0.45594000000E+02  0.51100000000E-03 0.  1.
         23    2    1    2    0    0  0.00000000000E+00 -0.88817841970E-15  0.00000000000E+00  0.91188000000E+02  0.91188000000E+02 0.  0.
    9900012    2    3    3    0    0  0.22671912094E+02  0.43448881690E+01 -0.38680997663E+02  0.46142320613E+02  0.10000026009E+02 0.  0.
         12    1    3    3    0    0 -0.22671912094E+02 -0.43448881690E+01  0.38680997663E+02  0.45045679387E+02  0.00000000000E+00 0. -1.
         11    1    4    4    0    0  0.31689323524E+01  0.12131101382E+01 -0.92532439244E+01  0.98557745433E+01  0.51100000000E-03 0.  1.
        -11    1    4    4    0    0 -0.34655305187E+00 -0.90364282781E+00 -0.15421746723E+01  0.18207065549E+01  0.51100000000E-03 0. -1.
        -12    1    4    4    0    0  0.19849532793E+02  0.40354208586E+01 -0.27885579067E+02  0.34465839515E+02  0.00000000000E+00 0.  1.
</event>
<event>
 8    1  0.2882335E-009  0.9118800E+02  0.7816164E-02  0.1184000E+00
        -11   -1    0    0    0    0  0.00000000000E+00  0.00000000000E+00  0.45593999997E+02  0.45594000000E+02  0.51100000000E-03 0. -1.
         11   -1    0    0    0    0 -0.00000000000E+00 -0.00000000000E+00 -0.45593999997E+02  0.45594000000E+02  0.51100000000E-03 0.  1.
         23    2    1    2    0    0 -0.17763568394E-14  0.71054273576E-14 -0.35527136788E-14  0.91188000000E+02  0.91188000000E+02 0.  0.
    9900012    2    3    3    0    0 -0.66444137552E+01  0.38511712710E+02 -0.22401187297E+02  0.46142318273E+02  0.10000004664E+02 0.  0.
         12    1    3    3    0    0  0.66444137552E+01 -0.38511712710E+02  0.22401187297E+02  0.45045681727E+02  0.00000000000E+00 0. -1.
         11    1    4    4    0    0  0.40122236030E+00 -0.82586283510E-01  0.13610078106E+00  0.43165212886E+00  0.51100000000E-03 0. -1.
        -11    1    4    4    0    0 -0.78474834805E+01  0.26605160559E+02 -0.16283571707E+02  0.32164767575E+02  0.51100000000E-03 0.  1.
        -12    1    4    4    0    0  0.80184736500E+00  0.11989138434E+02 -0.62537163710E+01  0.13545898569E+02  0.00000000000E+00 0.  1.
</event>
<event>
 8    1  0.2882335E-009  0.9118800E+02  0.7816164E-02  0.1184000E+00
        -11   -1    0    0    0    0  0.00000000000E+00  0.00000000000E+00  0.45593999997E+02  0.45594000000E+02  0.51100000000E-03 0. -1.
         11   -1    0    0    0    0 -0.00000000000E+00 -0.00000000000E+00 -0.45593999997E+02  0.45594000000E+02  0.51100000000E-03 0.  1.
         23    2    1    2    0    0  0.35527136788E-14  0.00000000000E+00  0.00000000000E+00  0.91188000000E+02  0.91188000000E+02 0.  0.
    9900012    2    3    3    0    0  0.29933668448E+02 -0.24845965619E+02  0.22710503264E+02  0.46142317934E+02  0.10000001575E+02 0.  0.
        -12    1    3    3    0    0 -0.29933668448E+02  0.24845965619E+02 -0.22710503264E+02  0.45045682066E+02  0.00000000000E+00 0.  1.
         11    1    4    4    0    0  0.19165681683E+02 -0.18660559968E+02  0.17637186743E+02  0.32040758561E+02  0.51100000000E-03 0. -1.
        -11    1    4    4    0    0  0.29943166554E-01  0.71905166689E-01 -0.48202747547E+00  0.48828034411E+00  0.51100000000E-03 0.  1.
        -12    1    4    4    0    0  0.10738043599E+02 -0.62573108170E+01  0.55553439970E+01  0.13613279029E+02  0.00000000000E+00 0.  1.
</event>
<event>
 8    1  0.3968925E-009  0.9118800E+02  0.7816164E-02  0.1184000E+00
        -11   -1    0    0    0    0  0.00000000000E+00  0.00000000000E+00  0.45593999997E+02  0.45594000000E+02  0.51100000000E-03 0. -1.
         11   -1    0    0    0    0 -0.00000000000E+00 -0.00000000000E+00 -0.45593999997E+02  0.45594000000E+02  0.51100000000E-03 0.  1.
         23    2    1    2    0    0  0.00000000000E+00  0.17763568394E-14  0.00000000000E+00  0.91188000000E+02  0.91188000000E+02 0.  0.
    9900012    2    3    3    0    0 -0.13666979193E+02  0.14300679086E+02 -0.40469961802E+02  0.46142317068E+02  0.99999936771E+01 0.  0.
         12    1    3    3    0    0  0.13666979193E+02 -0.14300679086E+02  0.40469961802E+02  0.45045682932E+02  0.00000000000E+00 0. -1.
         11    1    4    4    0    0 -0.14738786573E+00 -0.22924309266E+00  0.15237289405E+00  0.31223923274E+00  0.51100000000E-03 0. -1.
        -11    1    4    4    0    0 -0.75946981853E+01  0.31150803409E+01 -0.13245989676E+02  0.15583305452E+02  0.51100000000E-03 0.  1.
        -12    1    4    4    0    0 -0.59248931415E+01  0.11414841838E+02 -0.27376345020E+02  0.30246772382E+02  0.00000000000E+00 0.  1.
</event>
<event>
 8    1  0.3226197E-009  0.9118800E+02  0.7816164E-02  0.1184000E+00
        -11   -1    0    0    0    0  0.00000000000E+00  0.00000000000E+00  0.45593999997E+02  0.45594000000E+02  0.51100000000E-03 0. -1.
         11   -1    0    0    0    0 -0.00000000000E+00 -0.00000000000E+00 -0.45593999997E+02  0.45594000000E+02  0.51100000000E-03 0.  1.
         23    2    1    2    0    0  0.00000000000E+00  0.00000000000E+00  0.00000000000E+00  0.91188000000E+02  0.91188000000E+02 0.  0.
    9900012    2    3    3    0    0 -0.15771649836E+02 -0.51837764654E+01 -0.41874778278E+02  0.46142317268E+02  0.99999955010E+01 0.  0.
         12    1    3    3    0    0  0.15771649836E+02  0.51837764654E+01  0.41874778278E+02  0.45045682732E+02  0.00000000000E+00 0. -1.
         11    1    4    4    0    0 -0.21306468806E+00 -0.12213705491E+01 -0.73037672747E+01  0.74082494048E+01  0.51100000000E-03 0. -1.
        -11    1    4    4    0    0 -0.12489729898E+02 -0.88986860117E+00 -0.29563370908E+02  0.32105733425E+02  0.51100000000E-03 0.  1.
        -12    1    4    4    0    0 -0.30688552498E+01 -0.30725373151E+01 -0.50076400950E+01  0.66283344377E+01  0.00000000000E+00 0.  1.
</event>
<event>
 8    1  0.2882335E-009  0.9118800E+02  0.7816164E-02  0.1184000E+00
        -11   -1    0    0    0    0  0.00000000000E+00  0.00000000000E+00  0.45593999997E+02  0.45594000000E+02  0.51100000000E-03 0. -1.
         11   -1    0    0    0    0 -0.00000000000E+00 -0.00000000000E+00 -0.45593999997E+02  0.45594000000E+02  0.51100000000E-03 0.  1.
         23    2    1    2    0    0 -0.35527136788E-14  0.17763568394E-14  0.00000000000E+00  0.91188000000E+02  0.91188000000E+02 0.  0.
    9900012    2    3    3    0    0  0.22417822945E+02 -0.11428975886E+02  0.37362189722E+02  0.46142317674E+02  0.99999992039E+01 0.  0.
        -12    1    3    3    0    0 -0.22417822945E+02  0.11428975886E+02 -0.37362189722E+02  0.45045682326E+02  0.00000000000E+00 0.  1.
         11    1    4    4    0    0  0.93808133592E+01 -0.12394182443E+01  0.18971274877E+02  0.21200119990E+02  0.51100000000E-03 0. -1.
        -11    1    4    4    0    0  0.66971337276E+01 -0.46749929601E+01  0.68098493112E+01  0.10633964794E+02  0.51100000000E-03 0.  1.
         12    1    4    4    0    0  0.63398758586E+01 -0.55145646817E+01  0.11581065534E+02  0.14308232890E+02  0.00000000000E+00 0. -1.
</event>
<event>
 8    1  0.2882335E-009  0.9118800E+02  0.7816164E-02  0.1184000E+00
        -11   -1    0    0    0    0  0.00000000000E+00  0.00000000000E+00  0.45593999997E+02  0.45594000000E+02  0.51100000000E-03 0. -1.
         11   -1    0    0    0    0 -0.00000000000E+00 -0.00000000000E+00 -0.45593999997E+02  0.45594000000E+02  0.51100000000E-03 0.  1.
         23    2    1    2    0    0 -0.35527136788E-14 -0.35527136788E-14  0.35527136788E-14  0.91188000000E+02  0.91188000000E+02 0.  0.
    9900012    2    3    3    0    0 -0.21038507826E+02 -0.28344919665E+02 -0.27983212517E+02  0.46142318019E+02  0.10000002354E+02 0.  0.
         12    1    3    3    0    0  0.21038507826E+02  0.28344919665E+02  0.27983212517E+02  0.45045681981E+02  0.00000000000E+00 0. -1.
         11    1    4    4    0    0 -0.12913013802E+02 -0.10549245214E+02 -0.12637434782E+02  0.20922171450E+02  0.51100000000E-03 0. -1.
        -11    1    4    4    0    0 -0.81412939633E+01 -0.14481771311E+02 -0.13626138873E+02  0.21486601140E+02  0.51100000000E-03 0.  1.
         12    1    4    4    0    0  0.15799939838E-01 -0.33139031397E+01 -0.17196388620E+01  0.37335454294E+01  0.00000000000E+00 0. -1.
</event>
<event>
 8    1  0.2882335E-009  0.9118800E+02  0.7816164E-02  0.1184000E+00
        -11   -1    0    0    0    0  0.00000000000E+00  0.00000000000E+00  0.45593999997E+02  0.45594000000E+02  0.51100000000E-03 0. -1.
         11   -1    0    0    0    0 -0.00000000000E+00 -0.00000000000E+00 -0.45593999997E+02  0.45594000000E+02  0.51100000000E-03 0.  1.
         23    2    1    2    0    0 -0.44408920985E-15 -0.14210854715E-13  0.35527136788E-14  0.91188000000E+02  0.91188000000E+02 0.  0.
    9900012    2    3    3    0    0 -0.22740450375E+01 -0.40614001851E+02  0.19350581099E+02  0.46142318563E+02  0.10000007314E+02 0.  0.
        -12    1    3    3    0    0  0.22740450375E+01  0.40614001851E+02 -0.19350581099E+02  0.45045681437E+02  0.00000000000E+00 0.  1.
         11    1    4    4    0    0 -0.53429052535E+01 -0.25471778503E+02  0.12893075799E+02  0.29044612933E+02  0.51100000000E-03 0. -1.
        -11    1    4    4    0    0  0.21751263474E+01 -0.13303087083E+02  0.66740379973E+01  0.15041478784E+02  0.51100000000E-03 0.  1.
         12    1    4    4    0    0  0.89373386859E+00 -0.18391362664E+01 -0.21653269659E+00  0.20562268461E+01  0.00000000000E+00 0. -1.
</event>
<event>
 8    1  0.2882335E-009  0.9118800E+02  0.7816164E-02  0.1184000E+00
        -11   -1    0    0    0    0  0.00000000000E+00  0.00000000000E+00  0.45593999997E+02  0.45594000000E+02  0.51100000000E-03 0. -1.
         11   -1    0    0    0    0 -0.00000000000E+00 -0.00000000000E+00 -0.45593999997E+02  0.45594000000E+02  0.51100000000E-03 0.  1.
         23    2    1    2    0    0  0.71054273576E-14  0.00000000000E+00  0.00000000000E+00  0.91188000000E+02  0.91188000000E+02 0.  0.
    9900012    2    3    3    0    0  0.29057157804E+02 -0.60761973149E+01 -0.33880303802E+02  0.46142316753E+02  0.99999908082E+01 0.  0.
         12    1    3    3    0    0 -0.29057157804E+02  0.60761973149E+01  0.33880303802E+02  0.45045683247E+02  0.00000000000E+00 0. -1.
         11    1    4    4    0    0  0.11392655394E+02 -0.21031288750E+01 -0.68927685491E+01  0.13480578865E+02  0.51100000000E-03 0. -1.
        -11    1    4    4    0    0  0.15975642161E+02 -0.38802374603E+01 -0.22501664913E+02  0.27867585280E+02  0.51100000000E-03 0.  1.
         12    1    4    4    0    0  0.16888602497E+01 -0.92830979541E-01 -0.44858703395E+01  0.47941526088E+01  0.00000000000E+00 0. -1.
</event>
<event>
 8    1  0.2882335E-009  0.9118800E+02  0.7816164E-02  0.1184000E+00
        -11   -1    0    0    0    0  0.00000000000E+00  0.00000000000E+00  0.45593999997E+02  0.45594000000E+02  0.51100000000E-03 0. -1.
         11   -1    0    0    0    0 -0.00000000000E+00 -0.00000000000E+00 -0.45593999997E+02  0.45594000000E+02  0.51100000000E-03 0.  1.
         23    2    1    2    0    0 -0.35527136788E-14  0.00000000000E+00  0.00000000000E+00  0.91188000000E+02  0.91188000000E+02 0.  0.
    9900012    2    3    3    0    0 -0.24780111485E+02  0.61948947276E+01 -0.37103675804E+02  0.46142318697E+02  0.10000008532E+02 0.  0.
         12    1    3    3    0    0  0.24780111485E+02 -0.61948947276E+01  0.37103675804E+02  0.45045681303E+02  0.00000000000E+00 0. -1.
         11    1    4    4    0    0 -0.10211688338E+00  0.23018330059E+01 -0.22544036128E+01  0.32235382665E+01  0.51100000000E-03 0. -1.
        -11    1    4    4    0    0 -0.17769833492E+02  0.23176038452E+01 -0.26107697308E+02  0.31666230103E+02  0.51100000000E-03 0.  1.
         12    1    4    4    0    0 -0.69081611104E+01  0.15754578764E+01 -0.87415748826E+01  0.11252550328E+02  0.00000000000E+00 0. -1.
</event>
<event>
 8    1  0.2882335E-009  0.9118800E+02  0.7816164E-02  0.1184000E+00
        -11   -1    0    0    0    0  0.00000000000E+00  0.00000000000E+00  0.45593999997E+02  0.45594000000E+02  0.51100000000E-03 0.  1.
         11   -1    0    0    0    0 -0.00000000000E+00 -0.00000000000E+00 -0.45593999997E+02  0.45594000000E+02  0.51100000000E-03 0. -1.
         23    2    1    2    0    0  0.00000000000E+00 -0.35527136788E-14  0.00000000000E+00  0.91188000000E+02  0.91188000000E+02 0.  0.
    9900012    2    3    3    0    0  0.34260080192E+02  0.28803143900E+02  0.50733917228E+01  0.46142317667E+02  0.99999991416E+01 0.  0.
         12    1    3    3    0    0 -0.34260080192E+02 -0.28803143900E+02 -0.50733917228E+01  0.45045682333E+02  0.00000000000E+00 0. -1.
         11    1    4    4    0    0  0.42637028698E+01  0.43345797246E+00  0.82774802150E+00  0.43648843082E+01  0.51100000000E-03 0. -1.
        -11    1    4    4    0    0  0.80818077646E+01  0.49642355220E+01  0.14089892259E+01  0.95887695749E+01  0.51100000000E-03 0.  1.
         12    1    4    4    0    0  0.21914569557E+02  0.23405450406E+02  0.28366544754E+01  0.32188663784E+02  0.00000000000E+00 0. -1.
</event>
<event>
 8    1  0.2882335E-009  0.9118800E+02  0.7816164E-02  0.1184000E+00
        -11   -1    0    0    0    0  0.00000000000E+00  0.00000000000E+00  0.45593999997E+02  0.45594000000E+02  0.51100000000E-03 0. -1.
         11   -1    0    0    0    0 -0.00000000000E+00 -0.00000000000E+00 -0.45593999997E+02  0.45594000000E+02  0.51100000000E-03 0.  1.
         23    2    1    2    0    0 -0.17763568394E-14 -0.35527136788E-14  0.71054273576E-14  0.91188000000E+02  0.91188000000E+02 0.  0.
    9900012    2    3    3    0    0 -0.47215677899E+01 -0.28019307657E+02  0.34953376232E+02  0.46142319697E+02  0.10000017650E+02 0.  0.
        -12    1    3    3    0    0  0.47215677899E+01  0.28019307657E+02 -0.34953376232E+02  0.45045680303E+02  0.00000000000E+00 0.  1.
         11    1    4    4    0    0 -0.27005269475E+01 -0.44132622509E+01  0.11840220275E+02  0.12921321368E+02  0.51100000000E-03 0.  1.
        -11    1    4    4    0    0 -0.24848158606E+01 -0.22774001746E+02  0.22240736917E+02  0.31929294453E+02  0.51100000000E-03 0. -1.
         12    1    4    4    0    0  0.46377501813E+00 -0.83204365994E+00  0.87241904055E+00  0.12917038754E+01  0.00000000000E+00 0. -1.
</event>
<event>
 8    1  0.3359071E-009  0.9118800E+02  0.7816164E-02  0.1184000E+00
        -11   -1    0    0    0    0  0.00000000000E+00  0.00000000000E+00  0.45593999997E+02  0.45594000000E+02  0.51100000000E-03 0. -1.
         11   -1    0    0    0    0 -0.00000000000E+00 -0.00000000000E+00 -0.45593999997E+02  0.45594000000E+02  0.51100000000E-03 0.  1.
         23    2    1    2    0    0  0.00000000000E+00 -0.17763568394E-14  0.00000000000E+00  0.91188000000E+02  0.91188000000E+02 0.  0.
    9900012    2    3    3    0    0  0.40550136372E+02  0.13824203841E+02 -0.13917303752E+02  0.46142317461E+02  0.99999972664E+01 0.  0.
         12    1    3    3    0    0 -0.40550136372E+02 -0.13824203841E+02  0.13917303752E+02  0.45045682539E+02  0.00000000000E+00 0. -1.
         11    1    4    4    0    0  0.23755784220E+01  0.13108763753E+00 -0.24460266144E+01  0.34122724492E+01  0.51100000000E-03 0. -1.
        -11    1    4    4    0    0  0.35320337791E+02  0.10846076244E+02 -0.90973629471E+01  0.38051618158E+02  0.51100000000E-03 0.  1.
        -12    1    4    4    0    0  0.28542201592E+01  0.28470399599E+01 -0.23739141902E+01  0.46784268544E+01  0.00000000000E+00 0.  1.
</event>
<event>
 8    1  0.2882335E-009  0.9118800E+02  0.7816164E-02  0.1184000E+00
        -11   -1    0    0    0    0  0.00000000000E+00  0.00000000000E+00  0.45593999997E+02  0.45594000000E+02  0.51100000000E-03 0. -1.
         11   -1    0    0    0    0 -0.00000000000E+00 -0.00000000000E+00 -0.45593999997E+02  0.45594000000E+02  0.51100000000E-03 0.  1.
         23    2    1    2    0    0  0.00000000000E+00 -0.17763568394E-14  0.00000000000E+00  0.91188000000E+02  0.91188000000E+02 0.  0.
    9900012    2    3    3    0    0  0.16029679404E+02  0.10860912608E+02  0.40671900635E+02  0.46142317124E+02  0.99999941942E+01 0.  0.
        -12    1    3    3    0    0 -0.16029679404E+02 -0.10860912608E+02 -0.40671900635E+02  0.45045682876E+02  0.00000000000E+00 0.  1.
         11    1    4    4    0    0  0.86392781179E+01  0.50946570026E+00  0.17584194456E+02  0.19598484039E+02  0.51100000000E-03 0. -1.
        -11    1    4    4    0    0  0.35520601558E+01  0.73431442125E+01  0.13160886712E+02  0.15483792739E+02  0.51100000000E-03 0.  1.
         12    1    4    4    0    0  0.38383411301E+01  0.30083026948E+01  0.99268194663E+01  0.11060040346E+02  0.00000000000E+00 0. -1.
</event>
<event>
 8    1  0.2882335E-009  0.9118800E+02  0.7816164E-02  0.1184000E+00
        -11   -1    0    0    0    0  0.00000000000E+00  0.00000000000E+00  0.45593999997E+02  0.45594000000E+02  0.51100000000E-03 0. -1.
         11   -1    0    0    0    0 -0.00000000000E+00 -0.00000000000E+00 -0.45593999997E+02  0.45594000000E+02  0.51100000000E-03 0.  1.
         23    2    1    2    0    0  0.00000000000E+00  0.17763568394E-14  0.00000000000E+00  0.91188000000E+02  0.91188000000E+02 0.  0.
    9900012    2    3    3    0    0  0.15342008161E+02  0.14844447034E+02  0.39665836937E+02  0.46142318275E+02  0.10000004685E+02 0.  0.
        -12    1    3    3    0    0 -0.15342008161E+02 -0.14844447034E+02 -0.39665836937E+02  0.45045681725E+02  0.00000000000E+00 0.  1.
         11    1    4    4    0    0  0.54309468785E+00  0.54600874613E+01  0.13563522576E+02  0.14631358511E+02  0.51100000000E-03 0. -1.
        -11    1    4    4    0    0  0.10779085958E+02  0.64939331701E+01  0.17022429653E+02  0.21168915269E+02  0.51100000000E-03 0.  1.
        -12    1    4    4    0    0  0.40198275149E+01  0.28904264028E+01  0.90798847073E+01  0.10342044495E+02  0.00000000000E+00 0.  1.
</event>
<event>
 8    1  0.2882335E-009  0.9118800E+02  0.7816164E-02  0.1184000E+00
        -11   -1    0    0    0    0  0.00000000000E+00  0.00000000000E+00  0.45593999997E+02  0.45594000000E+02  0.51100000000E-03 0. -1.
         11   -1    0    0    0    0 -0.00000000000E+00 -0.00000000000E+00 -0.45593999997E+02  0.45594000000E+02  0.51100000000E-03 0.  1.
         23    2    1    2    0    0  0.71054273576E-14 -0.17763568394E-14  0.00000000000E+00  0.91188000000E+02  0.91188000000E+02 0.  0.
    9900012    2    3    3    0    0 -0.30264970196E+02  0.11462295944E+02 -0.31333062327E+02  0.46142318253E+02  0.10000004486E+02 0.  0.
         12    1    3    3    0    0  0.30264970196E+02 -0.11462295944E+02  0.31333062327E+02  0.45045681747E+02  0.00000000000E+00 0. -1.
         11    1    4    4    0    0 -0.17992217715E+02  0.10069699538E+02 -0.22335003427E+02  0.30396893352E+02  0.51100000000E-03 0. -1.
        -11    1    4    4    0    0 -0.13806121772E+01 -0.10335043196E+01 -0.81459852389E+00  0.19072997087E+01  0.51100000000E-03 0.  1.
         12    1    4    4    0    0 -0.10892140303E+02  0.24261007259E+01 -0.81834603763E+01  0.13838125193E+02  0.00000000000E+00 0. -1.
</event>
<event>
 8    1  0.2882335E-009  0.9118800E+02  0.7816164E-02  0.1184000E+00
        -11   -1    0    0    0    0  0.00000000000E+00  0.00000000000E+00  0.45593999997E+02  0.45594000000E+02  0.51100000000E-03 0. -1.
         11   -1    0    0    0    0 -0.00000000000E+00 -0.00000000000E+00 -0.45593999997E+02  0.45594000000E+02  0.51100000000E-03 0.  1.
         23    2    1    2    0    0  0.00000000000E+00  0.00000000000E+00  0.00000000000E+00  0.91188000000E+02  0.91188000000E+02 0.  0.
    9900012    2    3    3    0    0  0.23035076205E+02 -0.21276009172E+02  0.32339297285E+02  0.46142318177E+02  0.10000003790E+02 0.  0.
        -12    1    3    3    0    0 -0.23035076205E+02  0.21276009172E+02 -0.32339297285E+02  0.45045681823E+02  0.00000000000E+00 0.  1.
         11    1    4    4    0    0  0.15621035731E+02 -0.81234808795E+01  0.16503400419E+02  0.24132341879E+02  0.51100000000E-03 0.  1.
        -11    1    4    4    0    0  0.20660973102E+01 -0.23945083047E+01  0.44375493992E+01  0.54492451815E+01  0.51100000000E-03 0. -1.
         12    1    4    4    0    0  0.53479431634E+01 -0.10758019988E+02  0.11398347467E+02  0.16560731116E+02  0.00000000000E+00 0. -1.
</event>
<event>
 8    1  0.2882335E-009  0.9118800E+02  0.7816164E-02  0.1184000E+00
        -11   -1    0    0    0    0  0.00000000000E+00  0.00000000000E+00  0.45593999997E+02  0.45594000000E+02  0.51100000000E-03 0. -1.
         11   -1    0    0    0    0 -0.00000000000E+00 -0.00000000000E+00 -0.45593999997E+02  0.45594000000E+02  0.51100000000E-03 0.  1.
         23    2    1    2    0    0 -0.88817841970E-15  0.00000000000E+00  0.00000000000E+00  0.91188000000E+02  0.91188000000E+02 0.  0.
    9900012    2    3    3    0    0  0.78867104430E+01 -0.21714910188E+02  0.38670092374E+02  0.46142316851E+02  0.99999917054E+01 0.  0.
        -12    1    3    3    0    0 -0.78867104430E+01  0.21714910188E+02 -0.38670092374E+02  0.45045683149E+02  0.00000000000E+00 0.  1.
         11    1    4    4    0    0  0.13097274563E+01 -0.45427487379E+01  0.70218891532E+01  0.84651567999E+01  0.51100000000E-03 0. -1.
        -11    1    4    4    0    0  0.54137660907E+01 -0.48915388064E+01  0.69836543734E+01  0.10099873457E+02  0.51100000000E-03 0.  1.
        -12    1    4    4    0    0  0.11632168960E+01 -0.12280622644E+02  0.24664548848E+02  0.27577286595E+02  0.00000000000E+00 0.  1.
</event>
<event>
 8    1  0.2882335E-009  0.9118800E+02  0.7816164E-02  0.1184000E+00
        -11   -1    0    0    0    0  0.00000000000E+00  0.00000000000E+00  0.45593999997E+02  0.45594000000E+02  0.51100000000E-03 0. -1.
         11   -1    0    0    0    0 -0.00000000000E+00 -0.00000000000E+00 -0.45593999997E+02  0.45594000000E+02  0.51100000000E-03 0.  1.
         23    2    1    2    0    0  0.35527136788E-14 -0.88817841970E-15  0.00000000000E+00  0.91188000000E+02  0.91188000000E+02 0.  0.
    9900012    2    3    3    0    0  0.19432781549E+02 -0.59973399368E+01 -0.40193437282E+02  0.46142317792E+02  0.10000000280E+02 0.  0.
         12    1    3    3    0    0 -0.19432781549E+02  0.59973399368E+01  0.40193437282E+02  0.45045682208E+02  0.00000000000E+00 0. -1.
         11    1    4    4    0    0  0.57957895274E+01 -0.31623015413E+01 -0.83969179345E+01  0.10681739481E+02  0.51100000000E-03 0. -1.
        -11    1    4    4    0    0  0.70146674708E+01 -0.40458591935E+01 -0.11411908217E+02  0.13993076351E+02  0.51100000000E-03 0.  1.
        -12    1    4    4    0    0  0.66223245508E+01  0.12108207979E+01 -0.20384611131E+02  0.21467501960E+02  0.00000000000E+00 0.  1.
</event>
<event>
 8    1  0.2882335E-009  0.9118800E+02  0.7816164E-02  0.1184000E+00
        -11   -1    0    0    0    0  0.00000000000E+00  0.00000000000E+00  0.45593999997E+02  0.45594000000E+02  0.51100000000E-03 0. -1.
         11   -1    0    0    0    0 -0.00000000000E+00 -0.00000000000E+00 -0.45593999997E+02  0.45594000000E+02  0.51100000000E-03 0.  1.
         23    2    1    2    0    0  0.00000000000E+00 -0.35527136788E-14  0.00000000000E+00  0.91188000000E+02  0.91188000000E+02 0.  0.
    9900012    2    3    3    0    0 -0.84244671297E+01  0.28031132970E+02  0.34240290905E+02  0.46142316708E+02  0.99999903942E+01 0.  0.
        -12    1    3    3    0    0  0.84244671297E+01 -0.28031132970E+02 -0.34240290905E+02  0.45045683292E+02  0.00000000000E+00 0.  1.
         11    1    4    4    0    0 -0.90346198558E+01  0.14949773465E+02  0.18399586498E+02  0.25370551160E+02  0.51100000000E-03 0. -1.
        -11    1    4    4    0    0  0.25230052223E+00  0.62021065440E+01  0.52080528599E+01  0.81026906635E+01  0.51100000000E-03 0.  1.
         12    1    4    4    0    0  0.35785220390E+00  0.68792529612E+01  0.10632651547E+02  0.12669074884E+02  0.00000000000E+00 0. -1.
</event>
<event>
 8    1  0.2882335E-009  0.9118800E+02  0.7816164E-02  0.1184000E+00
        -11   -1    0    0    0    0  0.00000000000E+00  0.00000000000E+00  0.45593999997E+02  0.45594000000E+02  0.51100000000E-03 0. -1.
         11   -1    0    0    0    0 -0.00000000000E+00 -0.00000000000E+00 -0.45593999997E+02  0.45594000000E+02  0.51100000000E-03 0.  1.
         23    2    1    2    0    0  0.00000000000E+00  0.00000000000E+00  0.00000000000E+00  0.91188000000E+02  0.91188000000E+02 0.  0.
    9900012    2    3    3    0    0  0.24214604908E+02  0.22792444641E+02  0.30385373122E+02  0.46142317373E+02  0.99999964610E+01 0.  0.
        -12    1    3    3    0    0 -0.24214604908E+02 -0.22792444641E+02 -0.30385373122E+02  0.45045682627E+02  0.00000000000E+00 0.  1.
         11    1    4    4    0    0  0.13281457530E+02  0.15481300822E+02  0.13379728413E+02  0.24394362503E+02  0.51100000000E-03 0. -1.
        -11    1    4    4    0    0  0.62921917861E+01  0.28084775428E+01  0.10624271468E+02  0.12663110521E+02  0.51100000000E-03 0.  1.
         12    1    4    4    0    0  0.46409555923E+01  0.45026662763E+01  0.63813732409E+01  0.90848443490E+01  0.00000000000E+00 0. -1.
</event>
<event>
 8    1  0.2882335E-009  0.9118800E+02  0.7816164E-02  0.1184000E+00
        -11   -1    0    0    0    0  0.00000000000E+00  0.00000000000E+00  0.45593999997E+02  0.45594000000E+02  0.51100000000E-03 0. -1.
         11   -1    0    0    0    0 -0.00000000000E+00 -0.00000000000E+00 -0.45593999997E+02  0.45594000000E+02  0.51100000000E-03 0.  1.
         23    2    1    2    0    0 -0.35527136788E-14  0.00000000000E+00  0.00000000000E+00  0.91188000000E+02  0.91188000000E+02 0.  0.
    9900012    2    3    3    0    0 -0.22615532597E+02 -0.36723876770E+02  0.13000306825E+02  0.46142318551E+02  0.10000007199E+02 0.  0.
        -12    1    3    3    0    0  0.22615532597E+02  0.36723876770E+02 -0.13000306825E+02  0.45045681449E+02  0.00000000000E+00 0.  1.
         11    1    4    4    0    0 -0.97688925274E+01 -0.15297258802E+02  0.44861924633E+01  0.18696612291E+02  0.51100000000E-03 0. -1.
        -11    1    4    4    0    0 -0.49720035163E+01 -0.74106388659E+01  0.69152562743E+01  0.11289781086E+02  0.51100000000E-03 0.  1.
        -12    1    4    4    0    0 -0.78746365534E+01 -0.14015979102E+02  0.15988580878E+01  0.16155925174E+02  0.00000000000E+00 0.  1.
</event>
<event>
 8    1  0.2882335E-009  0.9118800E+02  0.7816164E-02  0.1184000E+00
        -11   -1    0    0    0    0  0.00000000000E+00  0.00000000000E+00  0.45593999997E+02  0.45594000000E+02  0.51100000000E-03 0. -1.
         11   -1    0    0    0    0 -0.00000000000E+00 -0.00000000000E+00 -0.45593999997E+02  0.45594000000E+02  0.51100000000E-03 0.  1.
         23    2    1    2    0    0  0.00000000000E+00  0.35527136788E-14  0.00000000000E+00  0.91188000000E+02  0.91188000000E+02 0.  0.
    9900012    2    3    3    0    0 -0.18894722022E+02  0.26424671855E+02  0.31206405222E+02  0.46142317301E+02  0.99999958057E+01 0.  0.
        -12    1    3    3    0    0  0.18894722022E+02 -0.26424671855E+02 -0.31206405222E+02  0.45045682699E+02  0.00000000000E+00 0.  1.
         11    1    4    4    0    0 -0.11910510959E+02  0.16225920700E+02  0.19069099685E+02  0.27726726041E+02  0.51100000000E-03 0. -1.
        -11    1    4    4    0    0 -0.44626431265E+01  0.18624290764E+01  0.62533717873E+01  0.79049658260E+01  0.51100000000E-03 0.  1.
         12    1    4    4    0    0 -0.25215679366E+01  0.83363220786E+01  0.58839337491E+01  0.10510625434E+02  0.00000000000E+00 0. -1.
</event>
<event>
 8    1  0.2882335E-009  0.9118800E+02  0.7816164E-02  0.1184000E+00
        -11   -1    0    0    0    0  0.00000000000E+00  0.00000000000E+00  0.45593999997E+02  0.45594000000E+02  0.51100000000E-03 0.  1.
         11   -1    0    0    0    0 -0.00000000000E+00 -0.00000000000E+00 -0.45593999997E+02  0.45594000000E+02  0.51100000000E-03 0. -1.
         23    2    1    2    0    0  0.00000000000E+00 -0.71054273576E-14  0.10658141036E-13  0.91188000000E+02  0.91188000000E+02 0.  0.
    9900012    2    3    3    0    0 -0.17167692745E+02 -0.32855678196E+02  0.25590785232E+02  0.46142317047E+02  0.99999934847E+01 0.  0.
        -12    1    3    3    0    0  0.17167692745E+02  0.32855678196E+02 -0.25590785232E+02  0.45045682953E+02  0.00000000000E+00 0.  1.
         11    1    4    4    0    0 -0.76272876434E+01 -0.10659231620E+02  0.51174192644E+01  0.14070633095E+02  0.51100000000E-03 0. -1.
        -11    1    4    4    0    0 -0.73719124823E+01 -0.14754831249E+02  0.16621133927E+02  0.23416067819E+02  0.51100000000E-03 0.  1.
        -12    1    4    4    0    0 -0.21684926192E+01 -0.74416153283E+01  0.38522320410E+01  0.86556161324E+01  0.00000000000E+00 0.  1.
</event>
<event>
 8    1  0.2882335E-009  0.9118800E+02  0.7816164E-02  0.1184000E+00
        -11   -1    0    0    0    0  0.00000000000E+00  0.00000000000E+00  0.45593999997E+02  0.45594000000E+02  0.51100000000E-03 0. -1.
         11   -1    0    0    0    0 -0.00000000000E+00 -0.00000000000E+00 -0.45593999997E+02  0.45594000000E+02  0.51100000000E-03 0.  1.
         23    2    1    2    0    0 -0.71054273576E-14  0.00000000000E+00  0.00000000000E+00  0.91188000000E+02  0.91188000000E+02 0.  0.
    9900012    2    3    3    0    0 -0.32642641044E+02  0.17285802774E+02  0.25783180720E+02  0.46142318743E+02  0.10000008952E+02 0.  0.
        -12    1    3    3    0    0  0.32642641044E+02 -0.17285802774E+02 -0.25783180720E+02  0.45045681257E+02  0.00000000000E+00 0.  1.
         11    1    4    4    0    0 -0.11693509284E+02  0.89206392757E+01  0.67711324327E+01  0.16191485390E+02  0.51100000000E-03 0. -1.
        -11    1    4    4    0    0 -0.11987360301E+02  0.24296878376E+01  0.83415405158E+01  0.14804779242E+02  0.51100000000E-03 0.  1.
         12    1    4    4    0    0 -0.89617714590E+01  0.59354756605E+01  0.10670507772E+02  0.15146054110E+02  0.00000000000E+00 0. -1.
</event>
<event>
 8    1  0.2882335E-009  0.9118800E+02  0.7816164E-02  0.1184000E+00
        -11   -1    0    0    0    0  0.00000000000E+00  0.00000000000E+00  0.45593999997E+02  0.45594000000E+02  0.51100000000E-03 0. -1.
         11   -1    0    0    0    0 -0.00000000000E+00 -0.00000000000E+00 -0.45593999997E+02  0.45594000000E+02  0.51100000000E-03 0.  1.
         23    2    1    2    0    0  0.00000000000E+00  0.00000000000E+00  0.00000000000E+00  0.91188000000E+02  0.91188000000E+02 0.  0.
    9900012    2    3    3    0    0  0.13383494266E+02  0.42934562262E+02  0.25727181033E+01  0.46142318367E+02  0.10000005521E+02 0.  0.
         12    1    3    3    0    0 -0.13383494266E+02 -0.42934562262E+02 -0.25727181033E+01  0.45045681633E+02  0.00000000000E+00 0. -1.
         11    1    4    4    0    0  0.28702770674E+01  0.25333861738E+02  0.58467180918E+00  0.25502644615E+02  0.51100000000E-03 0. -1.
        -11    1    4    4    0    0  0.19431875323E+01  0.23656781987E+01  0.18791236194E+00  0.30672010763E+01  0.51100000000E-03 0.  1.
         12    1    4    4    0    0  0.85700296660E+01  0.15235022326E+02  0.18001339321E+01  0.17572472675E+02  0.00000000000E+00 0. -1.
</event>
<event>
 8    1  0.3317389E-009  0.9118800E+02  0.7816164E-02  0.1184000E+00
        -11   -1    0    0    0    0  0.00000000000E+00  0.00000000000E+00  0.45593999997E+02  0.45594000000E+02  0.51100000000E-03 0. -1.
         11   -1    0    0    0    0 -0.00000000000E+00 -0.00000000000E+00 -0.45593999997E+02  0.45594000000E+02  0.51100000000E-03 0.  1.
         23    2    1    2    0    0  0.00000000000E+00  0.17763568394E-14  0.71054273576E-14  0.91188000000E+02  0.91188000000E+02 0.  0.
    9900012    2    3    3    0    0  0.26206053615E+01 -0.74049759301E+01 -0.44355525985E+02  0.46142312899E+02  0.99999556650E+01 0.  0.
         12    1    3    3    0    0 -0.26206053615E+01  0.74049759301E+01  0.44355525985E+02  0.45045687101E+02  0.00000000000E+00 0. -1.
         11    1    4    4    0    0 -0.10811444773E-01  0.14480788605E+01 -0.40330481272E+01  0.42851518912E+01  0.51100000000E-03 0. -1.
        -11    1    4    4    0    0  0.22388489867E+01 -0.98119141990E+01 -0.34291822880E+02  0.35738147989E+02  0.51100000000E-03 0.  1.
        -12    1    4    4    0    0  0.39256781961E+00  0.95885940839E+00 -0.60306549780E+01  0.61190130186E+01  0.00000000000E+00 0.  1.
</event>
<event>
 8    1  0.2882335E-009  0.9118800E+02  0.7816164E-02  0.1184000E+00
        -11   -1    0    0    0    0  0.00000000000E+00  0.00000000000E+00  0.45593999997E+02  0.45594000000E+02  0.51100000000E-03 0. -1.
         11   -1    0    0    0    0 -0.00000000000E+00 -0.00000000000E+00 -0.45593999997E+02  0.45594000000E+02  0.51100000000E-03 0.  1.
         23    2    1    2    0    0 -0.35527136788E-14 -0.44408920985E-15  0.00000000000E+00  0.91188000000E+02  0.91188000000E+02 0.  0.
    9900012    2    3    3    0    0 -0.20999396430E+02 -0.34923487971E+01 -0.39698140167E+02  0.46142317818E+02  0.10000000517E+02 0.  0.
         12    1    3    3    0    0  0.20999396430E+02  0.34923487971E+01  0.39698140167E+02  0.45045682182E+02  0.00000000000E+00 0. -1.
         11    1    4    4    0    0 -0.18408776406E+02 -0.21999274022E+01 -0.25296954149E+02  0.31363332394E+02  0.51100000000E-03 0. -1.
        -11    1    4    4    0    0 -0.20739484182E+01 -0.11105204724E+01 -0.76001895710E+01  0.79559662856E+01  0.51100000000E-03 0.  1.
         12    1    4    4    0    0 -0.51667160542E+00 -0.18190092249E+00 -0.68009964468E+01  0.68230191384E+01  0.00000000000E+00 0. -1.
</event>
<event>
 8    1  0.2882335E-009  0.9118800E+02  0.7816164E-02  0.1184000E+00
        -11   -1    0    0    0    0  0.00000000000E+00  0.00000000000E+00  0.45593999997E+02  0.45594000000E+02  0.51100000000E-03 0. -1.
         11   -1    0    0    0    0 -0.00000000000E+00 -0.00000000000E+00 -0.45593999997E+02  0.45594000000E+02  0.51100000000E-03 0.  1.
         23    2    1    2    0    0  0.17763568394E-14  0.35527136788E-14  0.35527136788E-14  0.91188000000E+02  0.91188000000E+02 0.  0.
    9900012    2    3    3    0    0  0.15410434586E+02  0.30484036824E+02  0.29365888797E+02  0.46142318519E+02  0.10000006915E+02 0.  0.
        -12    1    3    3    0    0 -0.15410434586E+02 -0.30484036824E+02 -0.29365888797E+02  0.45045681481E+02  0.00000000000E+00 0.  1.
         11    1    4    4    0    0  0.22922683463E+01  0.12580991123E+02  0.11475017885E+02  0.17181730632E+02  0.51100000000E-03 0. -1.
        -11    1    4    4    0    0  0.62327552027E+01  0.97877272787E+01  0.12408679477E+02  0.16988883699E+02  0.51100000000E-03 0.  1.
         12    1    4    4    0    0  0.68854110369E+01  0.81153184223E+01  0.54821914354E+01  0.11971704188E+02  0.00000000000E+00 0. -1.
</event>
<event>
 8    1  0.2882335E-009  0.9118800E+02  0.7816164E-02  0.1184000E+00
        -11   -1    0    0    0    0  0.00000000000E+00  0.00000000000E+00  0.45593999997E+02  0.45594000000E+02  0.51100000000E-03 0.  1.
         11   -1    0    0    0    0 -0.00000000000E+00 -0.00000000000E+00 -0.45593999997E+02  0.45594000000E+02  0.51100000000E-03 0. -1.
         23    2    1    2    0    0 -0.17763568394E-14  0.71054273576E-14  0.00000000000E+00  0.91188000000E+02  0.91188000000E+02 0.  0.
    9900012    2    3    3    0    0  0.79144218100E+01 -0.39619935901E+02  0.19918234635E+02  0.46142318028E+02  0.10000002430E+02 0.  0.
        -12    1    3    3    0    0 -0.79144218100E+01  0.39619935901E+02 -0.19918234635E+02  0.45045681972E+02  0.00000000000E+00 0.  1.
         11    1    4    4    0    0  0.77324651226E+01 -0.32288671993E+02  0.12596536956E+02  0.35510872975E+02  0.51100000000E-03 0. -1.
        -11    1    4    4    0    0 -0.31995623566E+00 -0.69468246691E+01  0.60766129323E+01  0.92350403338E+01  0.51100000000E-03 0.  1.
         12    1    4    4    0    0  0.50191292306E+00 -0.38443923920E+00  0.12450847470E+01  0.13964047186E+01  0.00000000000E+00 0. -1.
</event>
<event>
 8    1  0.2882335E-009  0.9118800E+02  0.7816164E-02  0.1184000E+00
        -11   -1    0    0    0    0  0.00000000000E+00  0.00000000000E+00  0.45593999997E+02  0.45594000000E+02  0.51100000000E-03 0.  1.
         11   -1    0    0    0    0 -0.00000000000E+00 -0.00000000000E+00 -0.45593999997E+02  0.45594000000E+02  0.51100000000E-03 0. -1.
         23    2    1    2    0    0  0.00000000000E+00 -0.71054273576E-14  0.00000000000E+00  0.91188000000E+02  0.91188000000E+02 0.  0.
    9900012    2    3    3    0    0  0.22300871519E+02 -0.38167151353E+02  0.86633183629E+01  0.46142318765E+02  0.10000009152E+02 0.  0.
         12    1    3    3    0    0 -0.22300871519E+02  0.38167151353E+02 -0.86633183629E+01  0.45045681235E+02  0.00000000000E+00 0. -1.
         11    1    4    4    0    0  0.13514412302E+01 -0.25824635994E+01 -0.15716231754E+01  0.33114213425E+01  0.51100000000E-03 0. -1.
        -11    1    4    4    0    0  0.58659930784E+01 -0.74126702551E+01  0.68067730077E+00  0.94773876651E+01  0.51100000000E-03 0.  1.
        -12    1    4    4    0    0  0.15083437210E+02 -0.28172017498E+02  0.95542642375E+01  0.33353509757E+02  0.00000000000E+00 0.  1.
</event>
<event>
 8    1  0.2882335E-009  0.9118800E+02  0.7816164E-02  0.1184000E+00
        -11   -1    0    0    0    0  0.00000000000E+00  0.00000000000E+00  0.45593999997E+02  0.45594000000E+02  0.51100000000E-03 0. -1.
         11   -1    0    0    0    0 -0.00000000000E+00 -0.00000000000E+00 -0.45593999997E+02  0.45594000000E+02  0.51100000000E-03 0.  1.
         23    2    1    2    0    0  0.00000000000E+00 -0.35527136788E-14  0.00000000000E+00  0.91188000000E+02  0.91188000000E+02 0.  0.
    9900012    2    3    3    0    0  0.14780404299E+02 -0.22877071591E+02  0.35878861906E+02  0.46142317771E+02  0.10000000093E+02 0.  0.
        -12    1    3    3    0    0 -0.14780404299E+02  0.22877071591E+02 -0.35878861906E+02  0.45045682229E+02  0.00000000000E+00 0.  1.
         11    1    4    4    0    0  0.39391809808E+01 -0.81728279574E+01  0.10269944072E+02  0.13703430779E+02  0.51100000000E-03 0. -1.
        -11    1    4    4    0    0  0.33423037928E+01 -0.40336292325E+01  0.14111763414E+02  0.15052675056E+02  0.51100000000E-03 0.  1.
        -12    1    4    4    0    0  0.74989195251E+01 -0.10670614401E+02  0.11497154420E+02  0.17386211936E+02  0.00000000000E+00 0.  1.
</event>
<event>
 8    1  0.2882335E-009  0.9118800E+02  0.7816164E-02  0.1184000E+00
        -11   -1    0    0    0    0  0.00000000000E+00  0.00000000000E+00  0.45593999997E+02  0.45594000000E+02  0.51100000000E-03 0. -1.
         11   -1    0    0    0    0 -0.00000000000E+00 -0.00000000000E+00 -0.45593999997E+02  0.45594000000E+02  0.51100000000E-03 0.  1.
         23    2    1    2    0    0 -0.71054273576E-14 -0.35527136788E-14 -0.35527136788E-14  0.91188000000E+02  0.91188000000E+02 0.  0.
    9900012    2    3    3    0    0 -0.31965154654E+02  0.27647657869E+02 -0.15586834139E+02  0.46142317674E+02  0.99999992094E+01 0.  0.
         12    1    3    3    0    0  0.31965154654E+02 -0.27647657869E+02  0.15586834139E+02  0.45045682326E+02  0.00000000000E+00 0. -1.
         11    1    4    4    0    0 -0.22667125465E+02  0.19210787907E+02 -0.12864649691E+02  0.32378266797E+02  0.51100000000E-03 0.  1.
        -11    1    4    4    0    0 -0.85574958473E+01  0.88852460615E+01 -0.17455127272E+01  0.12458938466E+02  0.51100000000E-03 0. -1.
         12    1    4    4    0    0 -0.74053334177E+00 -0.44837609936E+00 -0.97667172084E+00  0.13051124116E+01  0.00000000000E+00 0. -1.
</event>
<event>
 8    1  0.2882335E-009  0.9118800E+02  0.7816164E-02  0.1184000E+00
        -11   -1    0    0    0    0  0.00000000000E+00  0.00000000000E+00  0.45593999997E+02  0.45594000000E+02  0.51100000000E-03 0. -1.
         11   -1    0    0    0    0 -0.00000000000E+00 -0.00000000000E+00 -0.45593999997E+02  0.45594000000E+02  0.51100000000E-03 0.  1.
         23    2    1    2    0    0  0.00000000000E+00  0.00000000000E+00  0.71054273576E-14  0.91188000000E+02  0.91188000000E+02 0.  0.
    9900012    2    3    3    0    0  0.45126894237E+01 -0.10873046959E+02 -0.43480178955E+02  0.46142317876E+02  0.10000001050E+02 0.  0.
         12    1    3    3    0    0 -0.45126894237E+01  0.10873046959E+02  0.43480178955E+02  0.45045682124E+02  0.00000000000E+00 0. -1.
         11    1    4    4    0    0 -0.54328562979E+00 -0.91608037624E+00 -0.50411419895E+01  0.51524242208E+01  0.51100000000E-03 0. -1.
        -11    1    4    4    0    0  0.75555361833E+01 -0.66455371849E+01 -0.26131536057E+02  0.28001901158E+02  0.51100000000E-03 0.  1.
        -12    1    4    4    0    0 -0.24995611298E+01 -0.33114293983E+01 -0.12307500909E+02  0.12987992498E+02  0.00000000000E+00 0.  1.
</event>
<event>
 8    1  0.2882335E-009  0.9118800E+02  0.7816164E-02  0.1184000E+00
        -11   -1    0    0    0    0  0.00000000000E+00  0.00000000000E+00  0.45593999997E+02  0.45594000000E+02  0.51100000000E-03 0. -1.
         11   -1    0    0    0    0 -0.00000000000E+00 -0.00000000000E+00 -0.45593999997E+02  0.45594000000E+02  0.51100000000E-03 0.  1.
         23    2    1    2    0    0 -0.35527136788E-14  0.00000000000E+00  0.00000000000E+00  0.91188000000E+02  0.91188000000E+02 0.  0.
    9900012    2    3    3    0    0  0.18908218104E+02 -0.12462984962E+02 -0.38939271734E+02  0.46142316642E+02  0.99999897950E+01 0.  0.
         12    1    3    3    0    0 -0.18908218104E+02  0.12462984962E+02  0.38939271734E+02  0.45045683358E+02  0.00000000000E+00 0. -1.
         11    1    4    4    0    0  0.48157881826E+01 -0.81089027054E+01 -0.12992655690E+02  0.16054756960E+02  0.51100000000E-03 0. -1.
        -11    1    4    4    0    0  0.12616445443E+02 -0.50525158941E+01 -0.23475850340E+02  0.27125968406E+02  0.51100000000E-03 0.  1.
         12    1    4    4    0    0  0.14759844786E+01  0.69843363767E+00 -0.24707657027E+01  0.29615912758E+01  0.00000000000E+00 0. -1.
</event>
<event>
 8    1  0.2882335E-009  0.9118800E+02  0.7816164E-02  0.1184000E+00
        -11   -1    0    0    0    0  0.00000000000E+00  0.00000000000E+00  0.45593999997E+02  0.45594000000E+02  0.51100000000E-03 0. -1.
         11   -1    0    0    0    0 -0.00000000000E+00 -0.00000000000E+00 -0.45593999997E+02  0.45594000000E+02  0.51100000000E-03 0.  1.
         23    2    1    2    0    0  0.00000000000E+00  0.00000000000E+00  0.00000000000E+00  0.91188000000E+02  0.91188000000E+02 0.  0.
    9900012    2    3    3    0    0 -0.91063315852E+01 -0.39129997279E+02  0.20372323903E+02  0.46142317153E+02  0.99999944552E+01 0.  0.
        -12    1    3    3    0    0  0.91063315852E+01  0.39129997279E+02 -0.20372323903E+02  0.45045682847E+02  0.00000000000E+00 0.  1.
         11    1    4    4    0    0 -0.16849155663E+01 -0.17292352546E+02  0.10191393610E+02  0.20142713348E+02  0.51100000000E-03 0. -1.
        -11    1    4    4    0    0 -0.69267068756E+01 -0.13896022266E+02  0.90248955241E+01  0.17959049041E+02  0.51100000000E-03 0.  1.
        -12    1    4    4    0    0 -0.49470914333E+00 -0.79416224667E+01  0.11560347685E+01  0.80405547648E+01  0.00000000000E+00 0.  1.
</event>
<event>
 8    1  0.2882335E-009  0.9118800E+02  0.7816164E-02  0.1184000E+00
        -11   -1    0    0    0    0  0.00000000000E+00  0.00000000000E+00  0.45593999997E+02  0.45594000000E+02  0.51100000000E-03 0. -1.
         11   -1    0    0    0    0 -0.00000000000E+00 -0.00000000000E+00 -0.45593999997E+02  0.45594000000E+02  0.51100000000E-03 0.  1.
         23    2    1    2    0    0  0.14210854715E-13 -0.17763568394E-14  0.35527136788E-14  0.91188000000E+02  0.91188000000E+02 0.  0.
    9900012    2    3    3    0    0  0.35461873872E+02 -0.12534571393E+02  0.24788173665E+02  0.46142317275E+02  0.99999955673E+01 0.  0.
        -12    1    3    3    0    0 -0.35461873872E+02  0.12534571393E+02 -0.24788173665E+02  0.45045682725E+02  0.00000000000E+00 0.  1.
         11    1    4    4    0    0  0.21340793406E+02 -0.43270533820E+01  0.14906689118E+02  0.26388676263E+02  0.51100000000E-03 0. -1.
        -11    1    4    4    0    0  0.11340849615E+02 -0.86381827217E+01  0.77692420794E+01  0.16235584174E+02  0.51100000000E-03 0.  1.
        -12    1    4    4    0    0  0.27802308506E+01  0.43066471018E+00  0.21122424676E+01  0.35180568383E+01  0.00000000000E+00 0.  1.
</event>
<event>
 8    1  0.2882335E-009  0.9118800E+02  0.7816164E-02  0.1184000E+00
        -11   -1    0    0    0    0  0.00000000000E+00  0.00000000000E+00  0.45593999997E+02  0.45594000000E+02  0.51100000000E-03 0. -1.
         11   -1    0    0    0    0 -0.00000000000E+00 -0.00000000000E+00 -0.45593999997E+02  0.45594000000E+02  0.51100000000E-03 0.  1.
         23    2    1    2    0    0  0.00000000000E+00  0.44408920985E-15  0.71054273576E-14  0.91188000000E+02  0.91188000000E+02 0.  0.
    9900012    2    3    3    0    0  0.67020514048E+00  0.31134458926E+01  0.44932959185E+02  0.46142317173E+02  0.99999946379E+01 0.  0.
        -12    1    3    3    0    0 -0.67020514048E+00 -0.31134458926E+01 -0.44932959185E+02  0.45045682827E+02  0.00000000000E+00 0.  1.
         11    1    4    4    0    0 -0.32264202670E+01  0.27708333624E+01  0.99803097892E+01  0.10848681441E+02  0.51100000000E-03 0.  1.
        -11    1    4    4    0    0  0.19056284200E+01  0.12035932299E+01  0.25302759872E+02  0.25402946950E+02  0.51100000000E-03 0. -1.
        -12    1    4    4    0    0  0.19909969875E+01 -0.86098069973E+00  0.96498895238E+01  0.98906887824E+01  0.00000000000E+00 0.  1.
</event>
<event>
 8    1  0.2882335E-009  0.9118800E+02  0.7816164E-02  0.1184000E+00
        -11   -1    0    0    0    0  0.00000000000E+00  0.00000000000E+00  0.45593999997E+02  0.45594000000E+02  0.51100000000E-03 0. -1.
         11   -1    0    0    0    0 -0.00000000000E+00 -0.00000000000E+00 -0.45593999997E+02  0.45594000000E+02  0.51100000000E-03 0.  1.
         23    2    1    2    0    0  0.00000000000E+00  0.00000000000E+00  0.00000000000E+00  0.91188000000E+02  0.91188000000E+02 0.  0.
    9900012    2    3    3    0    0  0.22788308549E+02  0.20552794478E+02 -0.32975584328E+02  0.46142317308E+02  0.99999958714E+01 0.  0.
         12    1    3    3    0    0 -0.22788308549E+02 -0.20552794478E+02  0.32975584328E+02  0.45045682692E+02  0.00000000000E+00 0. -1.
         11    1    4    4    0    0  0.21615077123E+01  0.68368540213E+01 -0.58596579457E+01  0.92601447073E+01  0.51100000000E-03 0. -1.
        -11    1    4    4    0    0  0.12830106368E+02  0.65937542699E+01 -0.16286171744E+02  0.21756116729E+02  0.51100000000E-03 0.  1.
         12    1    4    4    0    0  0.77966944682E+01  0.71221861873E+01 -0.10829754638E+02  0.15126055872E+02  0.00000000000E+00 0. -1.
</event>
<event>
 8    1  0.2882335E-009  0.9118800E+02  0.7816164E-02  0.1184000E+00
        -11   -1    0    0    0    0  0.00000000000E+00  0.00000000000E+00  0.45593999997E+02  0.45594000000E+02  0.51100000000E-03 0. -1.
         11   -1    0    0    0    0 -0.00000000000E+00 -0.00000000000E+00 -0.45593999997E+02  0.45594000000E+02  0.51100000000E-03 0.  1.
         23    2    1    2    0    0  0.00000000000E+00  0.00000000000E+00 -0.71054273576E-14  0.91188000000E+02  0.91188000000E+02 0.  0.
    9900012    2    3    3    0    0 -0.22971560268E+02 -0.28025328496E+01  0.38646690575E+02  0.46142318032E+02  0.10000002470E+02 0.  0.
        -12    1    3    3    0    0  0.22971560268E+02  0.28025328496E+01 -0.38646690575E+02  0.45045681968E+02  0.00000000000E+00 0.  1.
         11    1    4    4    0    0 -0.56034022700E+01  0.23181779007E+01  0.67384275592E+01  0.90652342502E+01  0.51100000000E-03 0.  1.
        -11    1    4    4    0    0 -0.12874694668E+02 -0.13270697880E+01  0.23265935593E+02  0.26623723186E+02  0.51100000000E-03 0. -1.
         12    1    4    4    0    0 -0.44934633300E+01 -0.37936409623E+01  0.86423274234E+01  0.10453360596E+02  0.00000000000E+00 0. -1.
</event>
<event>
 8    1  0.2882335E-009  0.9118800E+02  0.7816164E-02  0.1184000E+00
        -11   -1    0    0    0    0  0.00000000000E+00  0.00000000000E+00  0.45593999997E+02  0.45594000000E+02  0.51100000000E-03 0. -1.
         11   -1    0    0    0    0 -0.00000000000E+00 -0.00000000000E+00 -0.45593999997E+02  0.45594000000E+02  0.51100000000E-03 0.  1.
         23    2    1    2    0    0  0.00000000000E+00 -0.17763568394E-14  0.00000000000E+00  0.91188000000E+02  0.91188000000E+02 0.  0.
    9900012    2    3    3    0    0 -0.42418583546E+02 -0.14947783599E+02 -0.25182189945E+01  0.46142313286E+02  0.99999591960E+01 0.  0.
         12    1    3    3    0    0  0.42418583546E+02  0.14947783599E+02  0.25182189945E+01  0.45045686714E+02  0.00000000000E+00 0. -1.
         11    1    4    4    0    0 -0.98517274621E+01 -0.48306285252E+01  0.87923348245E+00  0.11007477355E+02  0.51100000000E-03 0. -1.
        -11    1    4    4    0    0 -0.28181713799E+02 -0.76962804242E+01 -0.54568595108E+01  0.29719001346E+02  0.51100000000E-03 0.  1.
        -12    1    4    4    0    0 -0.43851422855E+01 -0.24208746496E+01  0.20594070338E+01  0.54158345862E+01  0.00000000000E+00 0.  1.
</event>
<event>
 8    1  0.3246559E-009  0.9118800E+02  0.7816164E-02  0.1184000E+00
        -11   -1    0    0    0    0  0.00000000000E+00  0.00000000000E+00  0.45593999997E+02  0.45594000000E+02  0.51100000000E-03 0. -1.
         11   -1    0    0    0    0 -0.00000000000E+00 -0.00000000000E+00 -0.45593999997E+02  0.45594000000E+02  0.51100000000E-03 0.  1.
         23    2    1    2    0    0  0.33306690739E-15  0.00000000000E+00  0.00000000000E+00  0.91188000000E+02  0.91188000000E+02 0.  0.
    9900012    2    3    3    0    0 -0.48314584431E+00 -0.18109592812E+02 -0.41242244903E+02  0.46142317118E+02  0.99999941319E+01 0.  0.
         12    1    3    3    0    0  0.48314584431E+00  0.18109592812E+02  0.41242244903E+02  0.45045682882E+02  0.00000000000E+00 0. -1.
         11    1    4    4    0    0 -0.47903041631E+00 -0.15515513627E+01 -0.92232993055E+00  0.18674781211E+01  0.51100000000E-03 0. -1.
        -11    1    4    4    0    0  0.31193668290E+01 -0.10496430316E+02 -0.29698290494E+02  0.31652708531E+02  0.51100000000E-03 0.  1.
        -12    1    4    4    0    0 -0.31234822570E+01 -0.60616111338E+01 -0.10621624478E+02  0.12622130466E+02  0.00000000000E+00 0.  1.
</event>
<event>
 8    1  0.2882335E-009  0.9118800E+02  0.7816164E-02  0.1184000E+00
        -11   -1    0    0    0    0  0.00000000000E+00  0.00000000000E+00  0.45593999997E+02  0.45594000000E+02  0.51100000000E-03 0. -1.
         11   -1    0    0    0    0 -0.00000000000E+00 -0.00000000000E+00 -0.45593999997E+02  0.45594000000E+02  0.51100000000E-03 0.  1.
         23    2    1    2    0    0 -0.35527136788E-14  0.00000000000E+00  0.71054273576E-14  0.91188000000E+02  0.91188000000E+02 0.  0.
    9900012    2    3    3    0    0 -0.12476975348E+02 -0.33288774132E+02  0.27663984596E+02  0.46142318289E+02  0.10000004814E+02 0.  0.
        -12    1    3    3    0    0  0.12476975348E+02  0.33288774132E+02 -0.27663984596E+02  0.45045681711E+02  0.00000000000E+00 0.  1.
         11    1    4    4    0    0 -0.13247158038E+02 -0.30751104534E+02  0.23370246429E+02  0.40832414141E+02  0.51100000000E-03 0. -1.
        -11    1    4    4    0    0  0.77977326882E+00 -0.25949489834E+01  0.44123146291E+01  0.51778689848E+01  0.51100000000E-03 0.  1.
         12    1    4    4    0    0 -0.95905781437E-02  0.57279385160E-01 -0.11857646158E+00  0.13203516348E+00  0.00000000000E+00 0. -1.
</event>
<event>
 8    1  0.2882335E-009  0.9118800E+02  0.7816164E-02  0.1184000E+00
        -11   -1    0    0    0    0  0.00000000000E+00  0.00000000000E+00  0.45593999997E+02  0.45594000000E+02  0.51100000000E-03 0. -1.
         11   -1    0    0    0    0 -0.00000000000E+00 -0.00000000000E+00 -0.45593999997E+02  0.45594000000E+02  0.51100000000E-03 0.  1.
         23    2    1    2    0    0  0.00000000000E+00  0.00000000000E+00 -0.71054273576E-14  0.91188000000E+02  0.91188000000E+02 0.  0.
    9900012    2    3    3    0    0 -0.15156031736E+01 -0.15529081769E+02  0.42257117462E+02  0.46142318634E+02  0.10000007959E+02 0.  0.
        -12    1    3    3    0    0  0.15156031736E+01  0.15529081769E+02 -0.42257117462E+02  0.45045681366E+02  0.00000000000E+00 0.  1.
         11    1    4    4    0    0  0.19715489862E+01 -0.64632524525E+00  0.34065142212E+01  0.39886189500E+01  0.51100000000E-03 0. -1.
        -11    1    4    4    0    0 -0.31187025361E+01 -0.79308741110E+01  0.14414005800E+02  0.16744809140E+02  0.51100000000E-03 0.  1.
         12    1    4    4    0    0 -0.36844962365E+00 -0.69518824126E+01  0.24436597441E+02  0.25408890544E+02  0.00000000000E+00 0. -1.
</event>
<event>
 8    1  0.3222056E-009  0.9118800E+02  0.7816164E-02  0.1184000E+00
        -11   -1    0    0    0    0  0.00000000000E+00  0.00000000000E+00  0.45593999997E+02  0.45594000000E+02  0.51100000000E-03 0. -1.
         11   -1    0    0    0    0 -0.00000000000E+00 -0.00000000000E+00 -0.45593999997E+02  0.45594000000E+02  0.51100000000E-03 0.  1.
         23    2    1    2    0    0  0.00000000000E+00  0.71054273576E-14  0.00000000000E+00  0.91188000000E+02  0.91188000000E+02 0.  0.
    9900012    2    3    3    0    0 -0.17046509585E+02 -0.39165341963E+02 -0.14304055144E+02  0.46142317703E+02  0.99999994676E+01 0.  0.
         12    1    3    3    0    0  0.17046509585E+02  0.39165341963E+02  0.14304055144E+02  0.45045682297E+02  0.00000000000E+00 0. -1.
         11    1    4    4    0    0 -0.39856949737E+00 -0.43667418796E+00  0.87701402210E+00  0.10576841905E+01  0.51100000000E-03 0. -1.
        -11    1    4    4    0    0 -0.14050293345E+02 -0.32990854673E+02 -0.14744074186E+02  0.38771058266E+02  0.51100000000E-03 0.  1.
        -12    1    4    4    0    0 -0.25976467422E+01 -0.57378131012E+01 -0.43699497951E+00  0.63135752466E+01  0.00000000000E+00 0.  1.
</event>
<event>
 8    1  0.2882335E-009  0.9118800E+02  0.7816164E-02  0.1184000E+00
        -11   -1    0    0    0    0  0.00000000000E+00  0.00000000000E+00  0.45593999997E+02  0.45594000000E+02  0.51100000000E-03 0.  1.
         11   -1    0    0    0    0 -0.00000000000E+00 -0.00000000000E+00 -0.45593999997E+02  0.45594000000E+02  0.51100000000E-03 0. -1.
         23    2    1    2    0    0  0.71054273576E-14  0.17763568394E-14 -0.71054273576E-14  0.91188000000E+02  0.91188000000E+02 0.  0.
    9900012    2    3    3    0    0 -0.34668204425E+02 -0.13194301069E+02  0.25556580590E+02  0.46142325511E+02  0.10000070665E+02 0.  0.
        -12    1    3    3    0    0  0.34668204425E+02  0.13194301069E+02 -0.25556580590E+02  0.45045674489E+02  0.00000000000E+00 0.  1.
         11    1    4    4    0    0 -0.21541063633E+02 -0.73071686151E+01  0.18695024759E+02  0.29443438770E+02  0.51100000000E-03 0. -1.
        -11    1    4    4    0    0 -0.11238520858E+02 -0.59914716326E+01  0.41542371526E+01  0.13396259552E+02  0.51100000000E-03 0.  1.
        -12    1    4    4    0    0 -0.18886199345E+01  0.10433917884E+00  0.27073186785E+01  0.33026271888E+01  0.00000000000E+00 0.  1.
</event>
<event>
 8    1  0.2961185E-009  0.9118800E+02  0.7816164E-02  0.1184000E+00
        -11   -1    0    0    0    0  0.00000000000E+00  0.00000000000E+00  0.45593999997E+02  0.45594000000E+02  0.51100000000E-03 0. -1.
         11   -1    0    0    0    0 -0.00000000000E+00 -0.00000000000E+00 -0.45593999997E+02  0.45594000000E+02  0.51100000000E-03 0.  1.
         23    2    1    2    0    0 -0.71054273576E-14 -0.17763568394E-14  0.00000000000E+00  0.91188000000E+02  0.91188000000E+02 0.  0.
    9900012    2    3    3    0    0  0.27696759113E+02  0.72986526086E+01  0.34766833294E+02  0.46142317714E+02  0.99999995719E+01 0.  0.
        -12    1    3    3    0    0 -0.27696759113E+02 -0.72986526086E+01 -0.34766833294E+02  0.45045682286E+02  0.00000000000E+00 0.  1.
         11    1    4    4    0    0  0.52875946546E+01 -0.18073171619E+01  0.73421461472E+01  0.92267092109E+01  0.51100000000E-03 0. -1.
        -11    1    4    4    0    0  0.58510375584E+00 -0.91318832206E-01 -0.10435865818E+00  0.60131233554E+00  0.51100000000E-03 0.  1.
         12    1    4    4    0    0  0.21824060703E+02  0.91972886027E+01  0.27529045805E+02  0.36314296168E+02  0.00000000000E+00 0. -1.
</event>
<event>
 8    1  0.2882335E-009  0.9118800E+02  0.7816164E-02  0.1184000E+00
        -11   -1    0    0    0    0  0.00000000000E+00  0.00000000000E+00  0.45593999997E+02  0.45594000000E+02  0.51100000000E-03 0. -1.
         11   -1    0    0    0    0 -0.00000000000E+00 -0.00000000000E+00 -0.45593999997E+02  0.45594000000E+02  0.51100000000E-03 0.  1.
         23    2    1    2    0    0 -0.71054273576E-14  0.00000000000E+00  0.00000000000E+00  0.91188000000E+02  0.91188000000E+02 0.  0.
    9900012    2    3    3    0    0  0.44120503407E+02 -0.61671911385E+01  0.66678619683E+01  0.46142318180E+02  0.10000003820E+02 0.  0.
        -12    1    3    3    0    0 -0.44120503407E+02  0.61671911385E+01 -0.66678619683E+01  0.45045681820E+02  0.00000000000E+00 0.  1.
         11    1    4    4    0    0  0.35575032169E+02 -0.33858691877E+01  0.62252263621E+01  0.36273964045E+02  0.51100000000E-03 0. -1.
        -11    1    4    4    0    0  0.38097324509E+01 -0.49725645438E+00 -0.16864204466E+01  0.41958717226E+01  0.51100000000E-03 0.  1.
        -12    1    4    4    0    0  0.47357387865E+01 -0.22840654965E+01  0.21290560528E+01  0.56724824127E+01  0.00000000000E+00 0.  1.
</event>
<event>
 8    1  0.2882335E-009  0.9118800E+02  0.7816164E-02  0.1184000E+00
        -11   -1    0    0    0    0  0.00000000000E+00  0.00000000000E+00  0.45593999997E+02  0.45594000000E+02  0.51100000000E-03 0. -1.
         11   -1    0    0    0    0 -0.00000000000E+00 -0.00000000000E+00 -0.45593999997E+02  0.45594000000E+02  0.51100000000E-03 0.  1.
         23    2    1    2    0    0 -0.33306690739E-15  0.00000000000E+00 -0.71054273576E-14  0.91188000000E+02  0.91188000000E+02 0.  0.
    9900012    2    3    3    0    0  0.88928603712E+00 -0.33773502767E+01 -0.44910090624E+02  0.46142316917E+02  0.99999922998E+01 0.  0.
         12    1    3    3    0    0 -0.88928603712E+00  0.33773502767E+01  0.44910090624E+02  0.45045683083E+02  0.00000000000E+00 0. -1.
         11    1    4    4    0    0 -0.66442799714E+00  0.21030899062E+01 -0.24807918298E+02  0.24905767650E+02  0.51100000000E-03 0.  1.
        -11    1    4    4    0    0  0.24854215519E+01 -0.51275506557E+01 -0.15172695787E+02  0.16207399351E+02  0.51100000000E-03 0. -1.
         12    1    4    4    0    0 -0.93170751763E+00 -0.35288952719E+00 -0.49294765396E+01  0.50291499154E+01  0.00000000000E+00 0. -1.
</event>
<event>
 8    1  0.2882335E-009  0.9118800E+02  0.7816164E-02  0.1184000E+00
        -11   -1    0    0    0    0  0.00000000000E+00  0.00000000000E+00  0.45593999997E+02  0.45594000000E+02  0.51100000000E-03 0. -1.
         11   -1    0    0    0    0 -0.00000000000E+00 -0.00000000000E+00 -0.45593999997E+02  0.45594000000E+02  0.51100000000E-03 0.  1.
         23    2    1    2    0    0 -0.35527136788E-14  0.00000000000E+00  0.00000000000E+00  0.91188000000E+02  0.91188000000E+02 0.  0.
    9900012    2    3    3    0    0 -0.17608995011E+02 -0.33195607441E+02 -0.24841263699E+02  0.46142318288E+02  0.10000004807E+02 0.  0.
         12    1    3    3    0    0  0.17608995011E+02  0.33195607441E+02  0.24841263699E+02  0.45045681712E+02  0.00000000000E+00 0. -1.
         11    1    4    4    0    0 -0.15781821732E+02 -0.29507865712E+02 -0.23951355074E+02  0.41151518152E+02  0.51100000000E-03 0.  1.
        -11    1    4    4    0    0 -0.20461569447E+01 -0.11919023443E+01 -0.12533377832E+00  0.23713072888E+01  0.51100000000E-03 0. -1.
         12    1    4    4    0    0  0.21898366564E+00 -0.24958393852E+01 -0.76457484683E+00  0.26194928477E+01  0.00000000000E+00 0. -1.
</event>
<event>
 8    1  0.2882335E-009  0.9118800E+02  0.7816164E-02  0.1184000E+00
        -11   -1    0    0    0    0  0.00000000000E+00  0.00000000000E+00  0.45593999997E+02  0.45594000000E+02  0.51100000000E-03 0. -1.
         11   -1    0    0    0    0 -0.00000000000E+00 -0.00000000000E+00 -0.45593999997E+02  0.45594000000E+02  0.51100000000E-03 0.  1.
         23    2    1    2    0    0 -0.17763568394E-14  0.35527136788E-14  0.00000000000E+00  0.91188000000E+02  0.91188000000E+02 0.  0.
    9900012    2    3    3    0    0  0.13479871074E+02 -0.28087316548E+02  0.32534738831E+02  0.46142317567E+02  0.99999982311E+01 0.  0.
        -12    1    3    3    0    0 -0.13479871074E+02  0.28087316548E+02 -0.32534738831E+02  0.45045682433E+02  0.00000000000E+00 0.  1.
         11    1    4    4    0    0  0.39351151983E+01 -0.14142008178E+02  0.18969551782E+02  0.23985942175E+02  0.51100000000E-03 0. -1.
        -11    1    4    4    0    0  0.65792604216E+01 -0.66087632566E+01  0.53552736080E+01  0.10753667986E+02  0.51100000000E-03 0.  1.
        -12    1    4    4    0    0  0.29654954537E+01 -0.73365451132E+01  0.82099134411E+01  0.11402707406E+02  0.00000000000E+00 0.  1.
</event>
<event>
 8    1  0.2882335E-009  0.9118800E+02  0.7816164E-02  0.1184000E+00
        -11   -1    0    0    0    0  0.00000000000E+00  0.00000000000E+00  0.45593999997E+02  0.45594000000E+02  0.51100000000E-03 0. -1.
         11   -1    0    0    0    0 -0.00000000000E+00 -0.00000000000E+00 -0.45593999997E+02  0.45594000000E+02  0.51100000000E-03 0.  1.
         23    2    1    2    0    0 -0.55511151231E-15 -0.88817841970E-15  0.71054273576E-14  0.91188000000E+02  0.91188000000E+02 0.  0.
    9900012    2    3    3    0    0  0.52937356451E+00  0.60728996408E+01 -0.44631302436E+02  0.46142317593E+02  0.99999984651E+01 0.  0.
         12    1    3    3    0    0 -0.52937356451E+00 -0.60728996408E+01  0.44631302436E+02  0.45045682407E+02  0.00000000000E+00 0. -1.
         11    1    4    4    0    0  0.41176089755E+01  0.25343672670E+01 -0.33125763734E+02  0.33476767232E+02  0.51100000000E-03 0. -1.
        -11    1    4    4    0    0 -0.32777877957E+01  0.27593048335E+01 -0.81600403989E+01  0.92165023501E+01  0.51100000000E-03 0.  1.
         12    1    4    4    0    0 -0.31044761530E+00  0.77922754035E+00 -0.33454983031E+01  0.34490480104E+01  0.00000000000E+00 0. -1.
</event>
<event>
 8    1  0.2882335E-009  0.9118800E+02  0.7816164E-02  0.1184000E+00
        -11   -1    0    0    0    0  0.00000000000E+00  0.00000000000E+00  0.45593999997E+02  0.45594000000E+02  0.51100000000E-03 0.  1.
         11   -1    0    0    0    0 -0.00000000000E+00 -0.00000000000E+00 -0.45593999997E+02  0.45594000000E+02  0.51100000000E-03 0. -1.
         23    2    1    2    0    0  0.35527136788E-14  0.00000000000E+00  0.17763568394E-14  0.91188000000E+02  0.91188000000E+02 0.  0.
    9900012    2    3    3    0    0  0.19376986130E+02 -0.37742897027E+02  0.15136696765E+02  0.46142318116E+02  0.10000003237E+02 0.  0.
        -12    1    3    3    0    0 -0.19376986130E+02  0.37742897027E+02 -0.15136696765E+02  0.45045681884E+02  0.00000000000E+00 0.  1.
         11    1    4    4    0    0  0.16334665690E+01 -0.95804349134E+01  0.43590069387E+01  0.10651473509E+02  0.51100000000E-03 0. -1.
        -11    1    4    4    0    0  0.94750517563E+01 -0.10765705243E+02  0.65707555132E+01  0.15775038620E+02  0.51100000000E-03 0.  1.
        -12    1    4    4    0    0  0.82684678044E+01 -0.17396756870E+02  0.42069343133E+01  0.19715805987E+02  0.00000000000E+00 0.  1.
</event>
<event>
 8    1  0.2882335E-009  0.9118800E+02  0.7816164E-02  0.1184000E+00
        -11   -1    0    0    0    0  0.00000000000E+00  0.00000000000E+00  0.45593999997E+02  0.45594000000E+02  0.51100000000E-03 0. -1.
         11   -1    0    0    0    0 -0.00000000000E+00 -0.00000000000E+00 -0.45593999997E+02  0.45594000000E+02  0.51100000000E-03 0.  1.
         23    2    1    2    0    0  0.00000000000E+00 -0.71054273576E-14  0.35527136788E-14  0.91188000000E+02  0.91188000000E+02 0.  0.
    9900012    2    3    3    0    0  0.19458777791E+01  0.34802812731E+02 -0.28532284132E+02  0.46142318163E+02  0.10000003666E+02 0.  0.
         12    1    3    3    0    0 -0.19458777791E+01 -0.34802812731E+02  0.28532284132E+02  0.45045681837E+02  0.00000000000E+00 0. -1.
         11    1    4    4    0    0 -0.22140761352E+01  0.13005293631E+02 -0.10194420840E+02  0.16672312739E+02  0.51100000000E-03 0. -1.
        -11    1    4    4    0    0  0.51971024092E+00  0.82999449102E+01 -0.33255875478E+01  0.89564902191E+01  0.51100000000E-03 0.  1.
         12    1    4    4    0    0  0.36402436734E+01  0.13497574190E+02 -0.15012275744E+02  0.20513515205E+02  0.00000000000E+00 0. -1.
</event>
<event>
 8    1  0.2882335E-009  0.9118800E+02  0.7816164E-02  0.1184000E+00
        -11   -1    0    0    0    0  0.00000000000E+00  0.00000000000E+00  0.45593999997E+02  0.45594000000E+02  0.51100000000E-03 0. -1.
         11   -1    0    0    0    0 -0.00000000000E+00 -0.00000000000E+00 -0.45593999997E+02  0.45594000000E+02  0.51100000000E-03 0.  1.
         23    2    1    2    0    0  0.35527136788E-14  0.00000000000E+00  0.00000000000E+00  0.91188000000E+02  0.91188000000E+02 0.  0.
    9900012    2    3    3    0    0  0.17438730608E+02  0.22270056235E+02 -0.35057791902E+02  0.46142317599E+02  0.99999985199E+01 0.  0.
         12    1    3    3    0    0 -0.17438730608E+02 -0.22270056235E+02  0.35057791902E+02  0.45045682401E+02  0.00000000000E+00 0. -1.
         11    1    4    4    0    0  0.87337761376E+01  0.43221175343E+01 -0.12370380494E+02  0.15747566778E+02  0.51100000000E-03 0. -1.
        -11    1    4    4    0    0  0.32825688075E+01  0.58115770203E+01 -0.99732128445E+01  0.12000610824E+02  0.51100000000E-03 0.  1.
         12    1    4    4    0    0  0.54223856632E+01  0.12136361680E+02 -0.12714198564E+02  0.18394139997E+02  0.00000000000E+00 0. -1.
</event>
<event>
 8    1  0.2882335E-009  0.9118800E+02  0.7816164E-02  0.1184000E+00
        -11   -1    0    0    0    0  0.00000000000E+00  0.00000000000E+00  0.45593999997E+02  0.45594000000E+02  0.51100000000E-03 0. -1.
         11   -1    0    0    0    0 -0.00000000000E+00 -0.00000000000E+00 -0.45593999997E+02  0.45594000000E+02  0.51100000000E-03 0.  1.
         23    2    1    2    0    0 -0.16653345369E-15  0.00000000000E+00 -0.71054273576E-14  0.91188000000E+02  0.91188000000E+02 0.  0.
    9900012    2    3    3    0    0 -0.33707615176E+00  0.74846010306E+01 -0.44418247701E+02  0.46142316503E+02  0.99999885267E+01 0.  0.
         12    1    3    3    0    0  0.33707615176E+00 -0.74846010306E+01  0.44418247701E+02  0.45045683497E+02  0.00000000000E+00 0. -1.
         11    1    4    4    0    0  0.25834798622E+01  0.23956320429E+01 -0.44276132998E+01  0.56583726351E+01  0.51100000000E-03 0. -1.
        -11    1    4    4    0    0 -0.22446486833E+01  0.40366041939E+01 -0.23731887616E+02  0.24177160941E+02  0.51100000000E-03 0.  1.
         12    1    4    4    0    0 -0.67590733069E+00  0.10523647938E+01 -0.16258746785E+02  0.16306782926E+02  0.00000000000E+00 0. -1.
</event>
<event>
 8    1  0.2882335E-009  0.9118800E+02  0.7816164E-02  0.1184000E+00
        -11   -1    0    0    0    0  0.00000000000E+00  0.00000000000E+00  0.45593999997E+02  0.45594000000E+02  0.51100000000E-03 0. -1.
         11   -1    0    0    0    0 -0.00000000000E+00 -0.00000000000E+00 -0.45593999997E+02  0.45594000000E+02  0.51100000000E-03 0.  1.
         23    2    1    2    0    0  0.00000000000E+00  0.88817841970E-15  0.17763568394E-14  0.91188000000E+02  0.91188000000E+02 0.  0.
    9900012    2    3    3    0    0  0.41560524389E+02  0.71250244860E+01  0.15845200436E+02  0.46142317207E+02  0.99999949454E+01 0.  0.
        -12    1    3    3    0    0 -0.41560524389E+02 -0.71250244860E+01 -0.15845200436E+02  0.45045682793E+02  0.00000000000E+00 0.  1.
         11    1    4    4    0    0  0.21335893108E+02  0.17817575541E+01  0.11427402324E+02  0.24268920842E+02  0.51100000000E-03 0.  1.
        -11    1    4    4    0    0  0.10196563498E+02  0.35729661874E+01  0.79698669619E-01  0.10804737233E+02  0.51100000000E-03 0. -1.
        -12    1    4    4    0    0  0.10028067784E+02  0.17703007445E+01  0.43380994423E+01  0.11068659131E+02  0.00000000000E+00 0.  1.
</event>
<event>
 8    1  0.2882335E-009  0.9118800E+02  0.7816164E-02  0.1184000E+00
        -11   -1    0    0    0    0  0.00000000000E+00  0.00000000000E+00  0.45593999997E+02  0.45594000000E+02  0.51100000000E-03 0. -1.
         11   -1    0    0    0    0 -0.00000000000E+00 -0.00000000000E+00 -0.45593999997E+02  0.45594000000E+02  0.51100000000E-03 0.  1.
         23    2    1    2    0    0  0.17763568394E-14  0.00000000000E+00  0.71054273576E-14  0.91188000000E+02  0.91188000000E+02 0.  0.
    9900012    2    3    3    0    0 -0.14644263804E+02  0.38904461500E+01  0.42420790349E+02  0.46142317772E+02  0.10000000099E+02 0.  0.
        -12    1    3    3    0    0  0.14644263804E+02 -0.38904461500E+01 -0.42420790349E+02  0.45045682228E+02  0.00000000000E+00 0.  1.
         11    1    4    4    0    0 -0.13450776576E+02  0.29516958796E+01  0.35089781373E+02  0.37695207336E+02  0.51100000000E-03 0. -1.
        -11    1    4    4    0    0 -0.10980263025E+01 -0.31280647940E+00  0.14335141548E+00  0.11506778628E+01  0.51100000000E-03 0.  1.
         12    1    4    4    0    0 -0.95460924710E-01  0.12515567498E+01  0.71876575603E+01  0.72964325728E+01  0.00000000000E+00 0. -1.
</event>
<event>
 8    1  0.2882335E-009  0.9118800E+02  0.7816164E-02  0.1184000E+00
        -11   -1    0    0    0    0  0.00000000000E+00  0.00000000000E+00  0.45593999997E+02  0.45594000000E+02  0.51100000000E-03 0.  1.
         11   -1    0    0    0    0 -0.00000000000E+00 -0.00000000000E+00 -0.45593999997E+02  0.45594000000E+02  0.51100000000E-03 0. -1.
         23    2    1    2    0    0  0.71054273576E-14  0.00000000000E+00  0.17763568394E-14  0.91188000000E+02  0.91188000000E+02 0.  0.
    9900012    2    3    3    0    0  0.32651203978E+02 -0.27562502642E+02  0.14259042552E+02  0.46142323541E+02  0.10000052710E+02 0.  0.
        -12    1    3    3    0    0 -0.32651203978E+02  0.27562502642E+02 -0.14259042552E+02  0.45045676459E+02  0.00000000000E+00 0.  1.
         11    1    4    4    0    0  0.17833693267E+02 -0.14563579109E+02  0.74235336275E+01  0.24191885081E+02  0.51100000000E-03 0. -1.
        -11    1    4    4    0    0  0.14556394039E+02 -0.11249044966E+02  0.77459254811E+01  0.19960685907E+02  0.51100000000E-03 0.  1.
        -12    1    4    4    0    0  0.26111667174E+00 -0.17498785670E+01 -0.91041655631E+00  0.19897525528E+01  0.00000000000E+00 0.  1.
</event>
<event>
 8    1  0.2882335E-009  0.9118800E+02  0.7816164E-02  0.1184000E+00
        -11   -1    0    0    0    0  0.00000000000E+00  0.00000000000E+00  0.45593999997E+02  0.45594000000E+02  0.51100000000E-03 0. -1.
         11   -1    0    0    0    0 -0.00000000000E+00 -0.00000000000E+00 -0.45593999997E+02  0.45594000000E+02  0.51100000000E-03 0.  1.
         23    2    1    2    0    0  0.35527136788E-14  0.00000000000E+00  0.00000000000E+00  0.91188000000E+02  0.91188000000E+02 0.  0.
    9900012    2    3    3    0    0 -0.23183926294E+02 -0.16155924488E+02  0.35079980720E+02  0.46142318944E+02  0.10000010787E+02 0.  0.
        -12    1    3    3    0    0  0.23183926294E+02  0.16155924488E+02 -0.35079980720E+02  0.45045681056E+02  0.00000000000E+00 0.  1.
         11    1    4    4    0    0 -0.15690141129E+02 -0.78112622888E+01  0.17632102519E+02  0.24861363331E+02  0.51100000000E-03 0. -1.
        -11    1    4    4    0    0 -0.28907271610E+01 -0.55249318788E+01  0.61416803116E+01  0.87522233231E+01  0.51100000000E-03 0.  1.
         12    1    4    4    0    0 -0.46030580036E+01 -0.28197303208E+01  0.11306197890E+02  0.12528732290E+02  0.00000000000E+00 0. -1.
</event>
<event>
 8    1  0.2882335E-009  0.9118800E+02  0.7816164E-02  0.1184000E+00
        -11   -1    0    0    0    0  0.00000000000E+00  0.00000000000E+00  0.45593999997E+02  0.45594000000E+02  0.51100000000E-03 0. -1.
         11   -1    0    0    0    0 -0.00000000000E+00 -0.00000000000E+00 -0.45593999997E+02  0.45594000000E+02  0.51100000000E-03 0.  1.
         23    2    1    2    0    0 -0.17763568394E-14  0.35527136788E-14  0.00000000000E+00  0.91188000000E+02  0.91188000000E+02 0.  0.
    9900012    2    3    3    0    0 -0.15772494910E+02  0.29103287564E+02 -0.30550622800E+02  0.46142317674E+02  0.99999992038E+01 0.  0.
         12    1    3    3    0    0  0.15772494910E+02 -0.29103287564E+02  0.30550622800E+02  0.45045682326E+02  0.00000000000E+00 0. -1.
         11    1    4    4    0    0 -0.59549193878E+01  0.72275558393E+01 -0.42105216510E+01  0.10267770993E+02  0.51100000000E-03 0. -1.
        -11    1    4    4    0    0 -0.94637179987E+01  0.18710835360E+02 -0.24284278918E+02  0.32084007248E+02  0.51100000000E-03 0.  1.
         12    1    4    4    0    0 -0.35385752360E+00  0.31648963656E+01 -0.20558222309E+01  0.37905394335E+01  0.00000000000E+00 0. -1.
</event>
<event>
 8    1  0.2882335E-009  0.9118800E+02  0.7816164E-02  0.1184000E+00
        -11   -1    0    0    0    0  0.00000000000E+00  0.00000000000E+00  0.45593999997E+02  0.45594000000E+02  0.51100000000E-03 0. -1.
         11   -1    0    0    0    0 -0.00000000000E+00 -0.00000000000E+00 -0.45593999997E+02  0.45594000000E+02  0.51100000000E-03 0.  1.
         23    2    1    2    0    0  0.00000000000E+00  0.00000000000E+00  0.00000000000E+00  0.91188000000E+02  0.91188000000E+02 0.  0.
    9900012    2    3    3    0    0  0.70252749527E+00 -0.77579713399E+01  0.44367036048E+02  0.46142317057E+02  0.99999935755E+01 0.  0.
        -12    1    3    3    0    0 -0.70252749527E+00  0.77579713399E+01 -0.44367036048E+02  0.45045682943E+02  0.00000000000E+00 0.  1.
         11    1    4    4    0    0 -0.50010234038E+00 -0.21460105471E+01  0.22088569416E+02  0.22198206295E+02  0.51100000000E-03 0. -1.
        -11    1    4    4    0    0  0.19504878744E+01  0.52154078565E+00  0.24473751273E+01  0.31727043692E+01  0.51100000000E-03 0.  1.
         12    1    4    4    0    0 -0.74785803872E+00 -0.61335015784E+01  0.19831091504E+02  0.20771406392E+02  0.00000000000E+00 0. -1.
</event>
<event>
 8    1  0.2882335E-009  0.9118800E+02  0.7816164E-02  0.1184000E+00
        -11   -1    0    0    0    0  0.00000000000E+00  0.00000000000E+00  0.45593999997E+02  0.45594000000E+02  0.51100000000E-03 0. -1.
         11   -1    0    0    0    0 -0.00000000000E+00 -0.00000000000E+00 -0.45593999997E+02  0.45594000000E+02  0.51100000000E-03 0.  1.
         23    2    1    2    0    0  0.00000000000E+00  0.00000000000E+00  0.17763568394E-14  0.91188000000E+02  0.91188000000E+02 0.  0.
    9900012    2    3    3    0    0  0.41779506286E+02  0.83395845602E+01  0.14630026675E+02  0.46142317669E+02  0.99999991625E+01 0.  0.
        -12    1    3    3    0    0 -0.41779506286E+02 -0.83395845602E+01 -0.14630026675E+02  0.45045682331E+02  0.00000000000E+00 0.  1.
         11    1    4    4    0    0  0.73795919680E+01  0.40522702500E+01  0.32688327529E+01  0.90313088543E+01  0.51100000000E-03 0. -1.
        -11    1    4    4    0    0  0.12089932737E+02 -0.17032041283E+01  0.45183700627E+01  0.13018565442E+02  0.51100000000E-03 0.  1.
        -12    1    4    4    0    0  0.22309981581E+02  0.59905184385E+01  0.68428238593E+01  0.24092443373E+02  0.00000000000E+00 0.  1.
</event>
<event>
 8    1  0.2882335E-009  0.9118800E+02  0.7816164E-02  0.1184000E+00
        -11   -1    0    0    0    0  0.00000000000E+00  0.00000000000E+00  0.45593999997E+02  0.45594000000E+02  0.51100000000E-03 0. -1.
         11   -1    0    0    0    0 -0.00000000000E+00 -0.00000000000E+00 -0.45593999997E+02  0.45594000000E+02  0.51100000000E-03 0.  1.
         23    2    1    2    0    0  0.38857805862E-15 -0.35527136788E-14 -0.71054273576E-14  0.91188000000E+02  0.91188000000E+02 0.  0.
    9900012    2    3    3    0    0 -0.44809520810E+00  0.31062106795E+02  0.32619905327E+02  0.46142317728E+02  0.99999996939E+01 0.  0.
        -12    1    3    3    0    0  0.44809520810E+00 -0.31062106795E+02 -0.32619905327E+02  0.45045682272E+02  0.00000000000E+00 0.  1.
         11    1    4    4    0    0  0.26100360769E+01  0.10914773668E+02  0.10558116956E+02  0.15408387536E+02  0.51100000000E-03 0. -1.
        -11    1    4    4    0    0  0.16759783673E-01  0.80973817719E+01  0.13117338846E+02  0.15415331690E+02  0.51100000000E-03 0.  1.
         12    1    4    4    0    0 -0.30748910686E+01  0.12049951355E+02  0.89444495249E+01  0.15318598501E+02  0.00000000000E+00 0. -1.
</event>
<event>
 8    1  0.2882335E-009  0.9118800E+02  0.7816164E-02  0.1184000E+00
        -11   -1    0    0    0    0  0.00000000000E+00  0.00000000000E+00  0.45593999997E+02  0.45594000000E+02  0.51100000000E-03 0. -1.
         11   -1    0    0    0    0 -0.00000000000E+00 -0.00000000000E+00 -0.45593999997E+02  0.45594000000E+02  0.51100000000E-03 0.  1.
         23    2    1    2    0    0  0.00000000000E+00  0.00000000000E+00  0.00000000000E+00  0.91188000000E+02  0.91188000000E+02 0.  0.
    9900012    2    3    3    0    0 -0.25667856102E+02 -0.24764402515E+02  0.27513615702E+02  0.46142317434E+02  0.99999970204E+01 0.  0.
        -12    1    3    3    0    0  0.25667856102E+02  0.24764402515E+02 -0.27513615702E+02  0.45045682566E+02  0.00000000000E+00 0.  1.
         11    1    4    4    0    0 -0.66841678454E+01 -0.11416296269E+02  0.77854591420E+01  0.15350025883E+02  0.51100000000E-03 0. -1.
        -11    1    4    4    0    0 -0.36444789059E+01 -0.45263455149E+01  0.35079040170E+01  0.67878878209E+01  0.51100000000E-03 0.  1.
         12    1    4    4    0    0 -0.15339209351E+02 -0.88217607310E+01  0.16220252543E+02  0.24004403731E+02  0.00000000000E+00 0. -1.
</event>
<event>
 8    1  0.2882335E-009  0.9118800E+02  0.7816164E-02  0.1184000E+00
        -11   -1    0    0    0    0  0.00000000000E+00  0.00000000000E+00  0.45593999997E+02  0.45594000000E+02  0.51100000000E-03 0. -1.
         11   -1    0    0    0    0 -0.00000000000E+00 -0.00000000000E+00 -0.45593999997E+02  0.45594000000E+02  0.51100000000E-03 0.  1.
         23    2    1    2    0    0 -0.35527136788E-14 -0.35527136788E-14  0.71054273576E-14  0.91188000000E+02  0.91188000000E+02 0.  0.
    9900012    2    3    3    0    0 -0.16873893230E+02 -0.21239995622E+02  0.35961763679E+02  0.46142310598E+02  0.99999346827E+01 0.  0.
        -12    1    3    3    0    0  0.16873893230E+02  0.21239995622E+02 -0.35961763679E+02  0.45045689402E+02  0.00000000000E+00 0.  1.
         11    1    4    4    0    0 -0.74492885775E+01 -0.11354861861E+02  0.15107771827E+02  0.20314269813E+02  0.51100000000E-03 0. -1.
        -11    1    4    4    0    0 -0.21591103916E+01 -0.59455062252E+01  0.12851310254E+02  0.14323650982E+02  0.51100000000E-03 0.  1.
        -12    1    4    4    0    0 -0.72654942610E+01 -0.39396275353E+01  0.80026815990E+01  0.11504389803E+02  0.00000000000E+00 0.  1.
</event>
<event>
 8    1  0.2882335E-009  0.9118800E+02  0.7816164E-02  0.1184000E+00
        -11   -1    0    0    0    0  0.00000000000E+00  0.00000000000E+00  0.45593999997E+02  0.45594000000E+02  0.51100000000E-03 0.  1.
         11   -1    0    0    0    0 -0.00000000000E+00 -0.00000000000E+00 -0.45593999997E+02  0.45594000000E+02  0.51100000000E-03 0. -1.
         23    2    1    2    0    0  0.00000000000E+00  0.00000000000E+00  0.00000000000E+00  0.91188000000E+02  0.91188000000E+02 0.  0.
    9900012    2    3    3    0    0  0.37416891550E+02 -0.95066797969E+01  0.23210177432E+02  0.46142322400E+02  0.10000042301E+02 0.  0.
        -12    1    3    3    0    0 -0.37416891550E+02  0.95066797969E+01 -0.23210177432E+02  0.45045677600E+02  0.00000000000E+00 0.  1.
         11    1    4    4    0    0  0.66492578132E+01 -0.39433628242E+01  0.24955825137E+01  0.81234642963E+01  0.51100000000E-03 0. -1.
        -11    1    4    4    0    0  0.36263283835E+01  0.36275327793E-02  0.36977918271E+00  0.36451347862E+01  0.51100000000E-03 0.  1.
         12    1    4    4    0    0  0.27141305353E+02 -0.55669445055E+01  0.20344815735E+02  0.34373723318E+02  0.00000000000E+00 0. -1.
</event>
<event>
 8    1  0.2882335E-009  0.9118800E+02  0.7816164E-02  0.1184000E+00
        -11   -1    0    0    0    0  0.00000000000E+00  0.00000000000E+00  0.45593999997E+02  0.45594000000E+02  0.51100000000E-03 0. -1.
         11   -1    0    0    0    0 -0.00000000000E+00 -0.00000000000E+00 -0.45593999997E+02  0.45594000000E+02  0.51100000000E-03 0.  1.
         23    2    1    2    0    0  0.10658141036E-13 -0.35527136788E-14  0.17763568394E-14  0.91188000000E+02  0.91188000000E+02 0.  0.
    9900012    2    3    3    0    0  0.30990500564E+02 -0.28978045314E+02  0.15131927774E+02  0.46142317925E+02  0.10000001497E+02 0.  0.
        -12    1    3    3    0    0 -0.30990500564E+02  0.28978045314E+02 -0.15131927774E+02  0.45045682075E+02  0.00000000000E+00 0.  1.
         11    1    4    4    0    0  0.21775783122E+02 -0.24434727944E+02  0.12622759331E+02  0.35079548368E+02  0.51100000000E-03 0. -1.
        -11    1    4    4    0    0  0.53838083662E+01 -0.34244169034E+01  0.61275910348E-01  0.63808916814E+01  0.51100000000E-03 0.  1.
         12    1    4    4    0    0  0.38309090754E+01 -0.11189004667E+01  0.24478925326E+01  0.46818778764E+01  0.00000000000E+00 0. -1.
</event>
<event>
 8    1  0.2882335E-009  0.9118800E+02  0.7816164E-02  0.1184000E+00
        -11   -1    0    0    0    0  0.00000000000E+00  0.00000000000E+00  0.45593999997E+02  0.45594000000E+02  0.51100000000E-03 0. -1.
         11   -1    0    0    0    0 -0.00000000000E+00 -0.00000000000E+00 -0.45593999997E+02  0.45594000000E+02  0.51100000000E-03 0.  1.
         23    2    1    2    0    0 -0.71054273576E-14  0.00000000000E+00  0.00000000000E+00  0.91188000000E+02  0.91188000000E+02 0.  0.
    9900012    2    3    3    0    0  0.35073541497E+02 -0.27522543571E+02 -0.64397212129E+01  0.46142315112E+02  0.99999758408E+01 0.  0.
        -12    1    3    3    0    0 -0.35073541497E+02  0.27522543571E+02  0.64397212129E+01  0.45045684888E+02  0.00000000000E+00 0.  1.
         11    1    4    4    0    0  0.25337286924E+02 -0.20228520576E+02 -0.39401400228E+01  0.32660310118E+02  0.51100000000E-03 0. -1.
        -11    1    4    4    0    0  0.53271331604E+01 -0.57419742430E+01 -0.36904050109E+01  0.86583893030E+01  0.51100000000E-03 0.  1.
         12    1    4    4    0    0  0.44091214122E+01 -0.15520487525E+01  0.11908238208E+01  0.48236156906E+01  0.00000000000E+00 0. -1.
</event>
<event>
 8    1  0.2882335E-009  0.9118800E+02  0.7816164E-02  0.1184000E+00
        -11   -1    0    0    0    0  0.00000000000E+00  0.00000000000E+00  0.45593999997E+02  0.45594000000E+02  0.51100000000E-03 0. -1.
         11   -1    0    0    0    0 -0.00000000000E+00 -0.00000000000E+00 -0.45593999997E+02  0.45594000000E+02  0.51100000000E-03 0.  1.
         23    2    1    2    0    0  0.00000000000E+00 -0.44408920985E-15 -0.71054273576E-14  0.91188000000E+02  0.91188000000E+02 0.  0.
    9900012    2    3    3    0    0  0.10169652518E+02 -0.37494402869E+01 -0.43722231666E+02  0.46142315671E+02  0.99999809434E+01 0.  0.
         12    1    3    3    0    0 -0.10169652518E+02  0.37494402869E+01  0.43722231666E+02  0.45045684329E+02  0.00000000000E+00 0. -1.
         11    1    4    4    0    0  0.40313889667E+01 -0.11724194017E+01 -0.72201845476E+01  0.83521092795E+01  0.51100000000E-03 0. -1.
        -11    1    4    4    0    0  0.97395026964E+00 -0.17809597209E+01 -0.25809303458E+02  0.25889004266E+02  0.51100000000E-03 0.  1.
        -12    1    4    4    0    0  0.51643132815E+01 -0.79606116431E+00 -0.10692743660E+02  0.11901202126E+02  0.00000000000E+00 0.  1.
</event>
<event>
 8    1  0.2933645E-009  0.9118800E+02  0.7816164E-02  0.1184000E+00
        -11   -1    0    0    0    0  0.00000000000E+00  0.00000000000E+00  0.45593999997E+02  0.45594000000E+02  0.51100000000E-03 0. -1.
         11   -1    0    0    0    0 -0.00000000000E+00 -0.00000000000E+00 -0.45593999997E+02  0.45594000000E+02  0.51100000000E-03 0.  1.
         23    2    1    2    0    0 -0.17763568394E-14 -0.71054273576E-14  0.71054273576E-14  0.91188000000E+02  0.91188000000E+02 0.  0.
    9900012    2    3    3    0    0 -0.14415965375E+02 -0.26965205492E+02  0.33078259306E+02  0.46142316482E+02  0.99999883350E+01 0.  0.
        -12    1    3    3    0    0  0.14415965375E+02  0.26965205492E+02 -0.33078259306E+02  0.45045683518E+02  0.00000000000E+00 0.  1.
         11    1    4    4    0    0 -0.13782305749E+02 -0.24786232627E+02  0.31816530284E+02  0.42621601086E+02  0.51100000000E-03 0. -1.
        -11    1    4    4    0    0 -0.11374602319E+01 -0.99895913023E+00 -0.25382364604E+00  0.15349794225E+01  0.51100000000E-03 0.  1.
         12    1    4    4    0    0  0.50380060624E+00 -0.11800137343E+01  0.15155526686E+01  0.19857359732E+01  0.00000000000E+00 0. -1.
</event>
<event>
 8    1  0.2882335E-009  0.9118800E+02  0.7816164E-02  0.1184000E+00
        -11   -1    0    0    0    0  0.00000000000E+00  0.00000000000E+00  0.45593999997E+02  0.45594000000E+02  0.51100000000E-03 0. -1.
         11   -1    0    0    0    0 -0.00000000000E+00 -0.00000000000E+00 -0.45593999997E+02  0.45594000000E+02  0.51100000000E-03 0.  1.
         23    2    1    2    0    0  0.00000000000E+00  0.00000000000E+00  0.35527136788E-14  0.91188000000E+02  0.91188000000E+02 0.  0.
    9900012    2    3    3    0    0  0.13823399341E+02  0.32275500651E+02 -0.28219136038E+02  0.46142312633E+02  0.99999532378E+01 0.  0.
         12    1    3    3    0    0 -0.13823399341E+02 -0.32275500651E+02  0.28219136038E+02  0.45045687367E+02  0.00000000000E+00 0. -1.
         11    1    4    4    0    0 -0.55030919064E+00  0.77655717746E+01 -0.66840590203E+01  0.10260779232E+02  0.51100000000E-03 0. -1.
        -11    1    4    4    0    0  0.25101725531E+01  0.72255206989E+01 -0.45482540805E+01  0.88991983380E+01  0.51100000000E-03 0.  1.
         12    1    4    4    0    0  0.11863535979E+02  0.17284408177E+02 -0.16986822937E+02  0.26982335063E+02  0.00000000000E+00 0. -1.
</event>
<event>
 8    1  0.2882335E-009  0.9118800E+02  0.7816164E-02  0.1184000E+00
        -11   -1    0    0    0    0  0.00000000000E+00  0.00000000000E+00  0.45593999997E+02  0.45594000000E+02  0.51100000000E-03 0. -1.
         11   -1    0    0    0    0 -0.00000000000E+00 -0.00000000000E+00 -0.45593999997E+02  0.45594000000E+02  0.51100000000E-03 0.  1.
         23    2    1    2    0    0  0.71054273576E-14  0.00000000000E+00 -0.71054273576E-14  0.91188000000E+02  0.91188000000E+02 0.  0.
    9900012    2    3    3    0    0 -0.22804092858E+02  0.10521623656E+02  0.37394946709E+02  0.46142320354E+02  0.10000023644E+02 0.  0.
        -12    1    3    3    0    0  0.22804092858E+02 -0.10521623656E+02 -0.37394946709E+02  0.45045679646E+02  0.00000000000E+00 0.  1.
         11    1    4    4    0    0 -0.88964644827E+01  0.33417857275E+01  0.12858154920E+02  0.15988957451E+02  0.51100000000E-03 0. -1.
        -11    1    4    4    0    0 -0.92699706286E+01  0.86319615397E+01  0.17733648832E+02  0.21792783591E+02  0.51100000000E-03 0.  1.
        -12    1    4    4    0    0 -0.46376577470E+01 -0.14521236116E+01  0.68031429560E+01  0.83605793125E+01  0.00000000000E+00 0.  1.
</event>
<event>
 8    1  0.2882335E-009  0.9118800E+02  0.7816164E-02  0.1184000E+00
        -11   -1    0    0    0    0  0.00000000000E+00  0.00000000000E+00  0.45593999997E+02  0.45594000000E+02  0.51100000000E-03 0. -1.
         11   -1    0    0    0    0 -0.00000000000E+00 -0.00000000000E+00 -0.45593999997E+02  0.45594000000E+02  0.51100000000E-03 0.  1.
         23    2    1    2    0    0  0.00000000000E+00 -0.35527136788E-14  0.35527136788E-14  0.91188000000E+02  0.91188000000E+02 0.  0.
    9900012    2    3    3    0    0  0.23012848491E+02  0.28056414884E+02  0.26690092300E+02  0.46142304992E+02  0.99998835585E+01 0.  0.
        -12    1    3    3    0    0 -0.23012848491E+02 -0.28056414884E+02 -0.26690092300E+02  0.45045695008E+02  0.00000000000E+00 0.  1.
         11    1    4    4    0    0  0.12075881760E+02  0.18495159644E+02  0.14282271908E+02  0.26303633621E+02  0.51100000000E-03 0. -1.
        -11    1    4    4    0    0  0.11061004780E+01  0.10618034292E+01 -0.40816205653E+00  0.15866572771E+01  0.51100000000E-03 0.  1.
        -12    1    4    4    0    0  0.98308662529E+01  0.84994518106E+01  0.12815982449E+02  0.18252014094E+02  0.00000000000E+00 0.  1.
</event>
<event>
 8    1  0.2882335E-009  0.9118800E+02  0.7816164E-02  0.1184000E+00
        -11   -1    0    0    0    0  0.00000000000E+00  0.00000000000E+00  0.45593999997E+02  0.45594000000E+02  0.51100000000E-03 0. -1.
         11   -1    0    0    0    0 -0.00000000000E+00 -0.00000000000E+00 -0.45593999997E+02  0.45594000000E+02  0.51100000000E-03 0.  1.
         23    2    1    2    0    0  0.00000000000E+00  0.35527136788E-14 -0.35527136788E-14  0.91188000000E+02  0.91188000000E+02 0.  0.
    9900012    2    3    3    0    0 -0.29070100346E+02  0.24037627189E+02 -0.24621851328E+02  0.46142314104E+02  0.99999666552E+01 0.  0.
         12    1    3    3    0    0  0.29070100346E+02 -0.24037627189E+02  0.24621851328E+02  0.45045685896E+02  0.00000000000E+00 0. -1.
         11    1    4    4    0    0 -0.48354102203E+01  0.59050476311E+01 -0.93293112946E+01  0.12053498621E+02  0.51100000000E-03 0. -1.
        -11    1    4    4    0    0 -0.21610125112E+02  0.15671566146E+02 -0.12224506759E+02  0.29360416526E+02  0.51100000000E-03 0.  1.
         12    1    4    4    0    0 -0.26245650140E+01  0.24610134118E+01 -0.30680332745E+01  0.47283989573E+01  0.00000000000E+00 0. -1.
</event>
<event>
 8    1  0.2882335E-009  0.9118800E+02  0.7816164E-02  0.1184000E+00
        -11   -1    0    0    0    0  0.00000000000E+00  0.00000000000E+00  0.45593999997E+02  0.45594000000E+02  0.51100000000E-03 0. -1.
         11   -1    0    0    0    0 -0.00000000000E+00 -0.00000000000E+00 -0.45593999997E+02  0.45594000000E+02  0.51100000000E-03 0.  1.
         23    2    1    2    0    0  0.00000000000E+00  0.00000000000E+00 -0.35527136788E-14  0.91188000000E+02  0.91188000000E+02 0.  0.
    9900012    2    3    3    0    0  0.89779438098E+01  0.37079191456E+02 -0.23950859056E+02  0.46142316926E+02  0.99999923830E+01 0.  0.
         12    1    3    3    0    0 -0.89779438098E+01 -0.37079191456E+02  0.23950859056E+02  0.45045683074E+02  0.00000000000E+00 0. -1.
         11    1    4    4    0    0  0.35135811370E+01  0.22814524747E+02 -0.10400625993E+02  0.25318388834E+02  0.51100000000E-03 0. -1.
        -11    1    4    4    0    0  0.54667541611E+01  0.13225348833E+02 -0.10936602755E+02  0.18011233520E+02  0.51100000000E-03 0.  1.
         12    1    4    4    0    0 -0.23914882777E-02  0.10393178756E+01 -0.26136303088E+01  0.28126945722E+01  0.00000000000E+00 0. -1.
</event>
<event>
 8    1  0.3132015E-009  0.9118800E+02  0.7816164E-02  0.1184000E+00
        -11   -1    0    0    0    0  0.00000000000E+00  0.00000000000E+00  0.45593999997E+02  0.45594000000E+02  0.51100000000E-03 0. -1.
         11   -1    0    0    0    0 -0.00000000000E+00 -0.00000000000E+00 -0.45593999997E+02  0.45594000000E+02  0.51100000000E-03 0.  1.
         23    2    1    2    0    0 -0.62450045135E-16  0.00000000000E+00  0.00000000000E+00  0.91188000000E+02  0.91188000000E+02 0.  0.
    9900012    2    3    3    0    0  0.58558035847E-01 -0.26533016075E+02  0.36402044077E+02  0.46142321139E+02  0.10000030803E+02 0.  0.
        -12    1    3    3    0    0 -0.58558035847E-01  0.26533016075E+02 -0.36402044077E+02  0.45045678861E+02  0.00000000000E+00 0.  1.
         11    1    4    4    0    0 -0.15919876552E+01 -0.25260267325E+02  0.34831647668E+02  0.43056465363E+02  0.51100000000E-03 0. -1.
        -11    1    4    4    0    0  0.83589405359E+00  0.27420094113E+00  0.74351455068E+00  0.11518329623E+01  0.51100000000E-03 0.  1.
         12    1    4    4    0    0  0.81465163751E+00 -0.15469496913E+01  0.82688185822E+00  0.19340228140E+01  0.00000000000E+00 0. -1.
</event>
<event>
 8    1  0.2882335E-009  0.9118800E+02  0.7816164E-02  0.1184000E+00
        -11   -1    0    0    0    0  0.00000000000E+00  0.00000000000E+00  0.45593999997E+02  0.45594000000E+02  0.51100000000E-03 0. -1.
         11   -1    0    0    0    0 -0.00000000000E+00 -0.00000000000E+00 -0.45593999997E+02  0.45594000000E+02  0.51100000000E-03 0.  1.
         23    2    1    2    0    0  0.00000000000E+00  0.00000000000E+00  0.00000000000E+00  0.91188000000E+02  0.91188000000E+02 0.  0.
    9900012    2    3    3    0    0  0.84140612792E+01 -0.43314850927E+02 -0.90631559299E+01  0.46142317261E+02  0.99999954397E+01 0.  0.
         12    1    3    3    0    0 -0.84140612792E+01  0.43314850927E+02  0.90631559299E+01  0.45045682739E+02  0.00000000000E+00 0. -1.
         11    1    4    4    0    0  0.86234918361E+01 -0.25913448978E+02 -0.62479353000E+01  0.28016212185E+02  0.51100000000E-03 0. -1.
        -11    1    4    4    0    0 -0.11878002928E+01 -0.11439278021E+02 -0.97628578443E-01  0.11501194841E+02  0.51100000000E-03 0.  1.
         12    1    4    4    0    0  0.97836973593E+00 -0.59621239279E+01 -0.27175920515E+01  0.66249102357E+01  0.00000000000E+00 0. -1.
</event>
<event>
 8    1  0.2882335E-009  0.9118800E+02  0.7816164E-02  0.1184000E+00
        -11   -1    0    0    0    0  0.00000000000E+00  0.00000000000E+00  0.45593999997E+02  0.45594000000E+02  0.51100000000E-03 0. -1.
         11   -1    0    0    0    0 -0.00000000000E+00 -0.00000000000E+00 -0.45593999997E+02  0.45594000000E+02  0.51100000000E-03 0.  1.
         23    2    1    2    0    0  0.35527136788E-14  0.35527136788E-14  0.00000000000E+00  0.91188000000E+02  0.91188000000E+02 0.  0.
    9900012    2    3    3    0    0 -0.20213643642E+02 -0.29720674838E+02  0.27151488940E+02  0.46142320365E+02  0.10000023743E+02 0.  0.
        -12    1    3    3    0    0  0.20213643642E+02  0.29720674838E+02 -0.27151488940E+02  0.45045679635E+02  0.00000000000E+00 0.  1.
         11    1    4    4    0    0 -0.69375371381E+01 -0.58428966723E+01  0.43878387666E+01  0.10075812244E+02  0.51100000000E-03 0.  1.
        -11    1    4    4    0    0 -0.55430519035E+01 -0.46616611505E+01  0.64828374825E+01  0.97202721758E+01  0.51100000000E-03 0. -1.
         12    1    4    4    0    0 -0.77330546003E+01 -0.19216117015E+02  0.16280812691E+02  0.26346235945E+02  0.00000000000E+00 0. -1.
</event>
<event>
 8    1  0.2882335E-009  0.9118800E+02  0.7816164E-02  0.1184000E+00
        -11   -1    0    0    0    0  0.00000000000E+00  0.00000000000E+00  0.45593999997E+02  0.45594000000E+02  0.51100000000E-03 0.  1.
         11   -1    0    0    0    0 -0.00000000000E+00 -0.00000000000E+00 -0.45593999997E+02  0.45594000000E+02  0.51100000000E-03 0. -1.
         23    2    1    2    0    0  0.00000000000E+00 -0.17763568394E-14 -0.11102230246E-15  0.91188000000E+02  0.91188000000E+02 0.  0.
    9900012    2    3    3    0    0 -0.42310492426E+02 -0.15443534959E+02 -0.65796112265E+00  0.46142318140E+02  0.10000003458E+02 0.  0.
         12    1    3    3    0    0  0.42310492426E+02  0.15443534959E+02  0.65796112265E+00  0.45045681860E+02  0.00000000000E+00 0. -1.
         11    1    4    4    0    0 -0.77891905439E+01 -0.11666505301E+01 -0.28958773735E+01  0.83915832125E+01  0.51100000000E-03 0. -1.
        -11    1    4    4    0    0 -0.16116498044E+02 -0.88654979940E+01  0.25134389259E+01  0.18564911510E+02  0.51100000000E-03 0.  1.
        -12    1    4    4    0    0 -0.18404803838E+02 -0.54113864348E+01 -0.27552267498E+00  0.19185823417E+02  0.00000000000E+00 0.  1.
</event>
<event>
 8    1  0.2882335E-009  0.9118800E+02  0.7816164E-02  0.1184000E+00
        -11   -1    0    0    0    0  0.00000000000E+00  0.00000000000E+00  0.45593999997E+02  0.45594000000E+02  0.51100000000E-03 0. -1.
         11   -1    0    0    0    0 -0.00000000000E+00 -0.00000000000E+00 -0.45593999997E+02  0.45594000000E+02  0.51100000000E-03 0.  1.
         23    2    1    2    0    0 -0.53689691581E-15 -0.35527136788E-14  0.71054273576E-14  0.91188000000E+02  0.91188000000E+02 0.  0.
    9900012    2    3    3    0    0 -0.45333918598E-02 -0.18707505105E+02  0.40977343788E+02  0.46142317946E+02  0.10000001685E+02 0.  0.
        -12    1    3    3    0    0  0.45333918598E-02  0.18707505105E+02 -0.40977343788E+02  0.45045682054E+02  0.00000000000E+00 0.  1.
         11    1    4    4    0    0 -0.35667388479E+01 -0.91157689171E+01  0.22957448769E+02  0.24957229878E+02  0.51100000000E-03 0. -1.
        -11    1    4    4    0    0  0.43140740549E+01 -0.55732255164E+01  0.11145405053E+02  0.13186816586E+02  0.51100000000E-03 0.  1.
        -12    1    4    4    0    0 -0.75186859887E+00 -0.40185106717E+01  0.68744899661E+01  0.79982714821E+01  0.00000000000E+00 0.  1.
</event>
<event>
 8    1  0.2882335E-009  0.9118800E+02  0.7816164E-02  0.1184000E+00
        -11   -1    0    0    0    0  0.00000000000E+00  0.00000000000E+00  0.45593999997E+02  0.45594000000E+02  0.51100000000E-03 0. -1.
         11   -1    0    0    0    0 -0.00000000000E+00 -0.00000000000E+00 -0.45593999997E+02  0.45594000000E+02  0.51100000000E-03 0.  1.
         23    2    1    2    0    0 -0.71054273576E-14  0.71054273576E-14  0.35527136788E-14  0.91188000000E+02  0.91188000000E+02 0.  0.
    9900012    2    3    3    0    0 -0.33161699324E+02  0.26524764665E+02  0.15028375259E+02  0.46142317570E+02  0.99999982614E+01 0.  0.
        -12    1    3    3    0    0  0.33161699324E+02 -0.26524764665E+02 -0.15028375259E+02  0.45045682430E+02  0.00000000000E+00 0.  1.
         11    1    4    4    0    0 -0.27475030391E+02  0.24352105299E+02  0.14175374534E+02  0.39355349965E+02  0.51100000000E-03 0. -1.
        -11    1    4    4    0    0 -0.15563840021E+01 -0.17422255635E+00 -0.79808630869E+00  0.17577333923E+01  0.51100000000E-03 0.  1.
         12    1    4    4    0    0 -0.41302849316E+01  0.23468819228E+01  0.16510870332E+01  0.50292342128E+01  0.00000000000E+00 0. -1.
</event>
<event>
 8    1  0.2882335E-009  0.9118800E+02  0.7816164E-02  0.1184000E+00
        -11   -1    0    0    0    0  0.00000000000E+00  0.00000000000E+00  0.45593999997E+02  0.45594000000E+02  0.51100000000E-03 0. -1.
         11   -1    0    0    0    0 -0.00000000000E+00 -0.00000000000E+00 -0.45593999997E+02  0.45594000000E+02  0.51100000000E-03 0.  1.
         23    2    1    2    0    0  0.00000000000E+00 -0.17763568394E-14  0.00000000000E+00  0.91188000000E+02  0.91188000000E+02 0.  0.
    9900012    2    3    3    0    0 -0.43613609090E+02 -0.10655006632E+02 -0.36657092207E+01  0.46142317763E+02  0.10000000013E+02 0.  0.
         12    1    3    3    0    0  0.43613609090E+02  0.10655006632E+02  0.36657092207E+01  0.45045682237E+02  0.00000000000E+00 0. -1.
         11    1    4    4    0    0 -0.76347408233E+01 -0.19678722728E+01  0.21113114874E+01  0.81620723582E+01  0.51100000000E-03 0. -1.
        -11    1    4    4    0    0 -0.34899801301E+02 -0.77514058416E+01 -0.44419428224E+01  0.36025147878E+02  0.51100000000E-03 0.  1.
        -12    1    4    4    0    0 -0.10790669653E+01 -0.93572851793E+00 -0.13350778858E+01  0.19550975259E+01  0.00000000000E+00 0.  1.
</event>
<event>
 8    1  0.2882335E-009  0.9118800E+02  0.7816164E-02  0.1184000E+00
        -11   -1    0    0    0    0  0.00000000000E+00  0.00000000000E+00  0.45593999997E+02  0.45594000000E+02  0.51100000000E-03 0. -1.
         11   -1    0    0    0    0 -0.00000000000E+00 -0.00000000000E+00 -0.45593999997E+02  0.45594000000E+02  0.51100000000E-03 0.  1.
         23    2    1    2    0    0  0.00000000000E+00  0.44408920985E-15 -0.35527136788E-14  0.91188000000E+02  0.91188000000E+02 0.  0.
    9900012    2    3    3    0    0  0.43646635406E+02 -0.27065742564E+01  0.10805511377E+02  0.46142318713E+02  0.10000008681E+02 0.  0.
        -12    1    3    3    0    0 -0.43646635406E+02  0.27065742564E+01 -0.10805511377E+02  0.45045681287E+02  0.00000000000E+00 0.  1.
         11    1    4    4    0    0  0.34990591469E+02  0.93277950906E-01  0.52915259729E+01  0.35388563682E+02  0.51100000000E-03 0. -1.
        -11    1    4    4    0    0  0.51059509520E+01 -0.23668284254E+01  0.29578363765E+01  0.63577832780E+01  0.51100000000E-03 0.  1.
         12    1    4    4    0    0  0.35500929855E+01 -0.43302378193E+00  0.25561490278E+01  0.43959717530E+01  0.00000000000E+00 0. -1.
</event>
<event>
 8    1  0.2882335E-009  0.9118800E+02  0.7816164E-02  0.1184000E+00
        -11   -1    0    0    0    0  0.00000000000E+00  0.00000000000E+00  0.45593999997E+02  0.45594000000E+02  0.51100000000E-03 0. -1.
         11   -1    0    0    0    0 -0.00000000000E+00 -0.00000000000E+00 -0.45593999997E+02  0.45594000000E+02  0.51100000000E-03 0.  1.
         23    2    1    2    0    0 -0.17763568394E-14  0.35527136788E-14 -0.71054273576E-14  0.91188000000E+02  0.91188000000E+02 0.  0.
    9900012    2    3    3    0    0  0.12057436058E+02 -0.26645411198E+02  0.34260089764E+02  0.46142318156E+02  0.10000003599E+02 0.  0.
        -12    1    3    3    0    0 -0.12057436058E+02  0.26645411198E+02 -0.34260089764E+02  0.45045681844E+02  0.00000000000E+00 0.  1.
         11    1    4    4    0    0  0.33245077340E+01 -0.47750874313E+01  0.64379498808E+01  0.86776154892E+01  0.51100000000E-03 0. -1.
        -11    1    4    4    0    0  0.92406593794E+00 -0.31678683401E+01  0.98101418620E+01  0.10350273972E+02  0.51100000000E-03 0.  1.
        -12    1    4    4    0    0  0.78088623862E+01 -0.18702455426E+02  0.18011998021E+02  0.27114428695E+02  0.00000000000E+00 0.  1.
</event>
<event>
 8    1  0.2882335E-009  0.9118800E+02  0.7816164E-02  0.1184000E+00
        -11   -1    0    0    0    0  0.00000000000E+00  0.00000000000E+00  0.45593999997E+02  0.45594000000E+02  0.51100000000E-03 0. -1.
         11   -1    0    0    0    0 -0.00000000000E+00 -0.00000000000E+00 -0.45593999997E+02  0.45594000000E+02  0.51100000000E-03 0.  1.
         23    2    1    2    0    0  0.00000000000E+00  0.35527136788E-14  0.00000000000E+00  0.91188000000E+02  0.91188000000E+02 0.  0.
    9900012    2    3    3    0    0 -0.16497605492E+02 -0.24510048931E+02  0.34002940489E+02  0.46142318215E+02  0.10000004141E+02 0.  0.
        -12    1    3    3    0    0  0.16497605492E+02  0.24510048931E+02 -0.34002940489E+02  0.45045681785E+02  0.00000000000E+00 0.  1.
         11    1    4    4    0    0 -0.20856099298E+01 -0.76705378624E+01  0.62655385838E+01  0.10121457103E+02  0.51100000000E-03 0. -1.
        -11    1    4    4    0    0 -0.76195750519E+01 -0.63612476259E+01  0.16316389557E+02  0.19098375946E+02  0.51100000000E-03 0.  1.
         12    1    4    4    0    0 -0.67924205100E+01 -0.10478263443E+02  0.11421012348E+02  0.16922485167E+02  0.00000000000E+00 0. -1.
</event>
<event>
 8    1  0.2882335E-009  0.9118800E+02  0.7816164E-02  0.1184000E+00
        -11   -1    0    0    0    0  0.00000000000E+00  0.00000000000E+00  0.45593999997E+02  0.45594000000E+02  0.51100000000E-03 0.  1.
         11   -1    0    0    0    0 -0.00000000000E+00 -0.00000000000E+00 -0.45593999997E+02  0.45594000000E+02  0.51100000000E-03 0. -1.
         23    2    1    2    0    0 -0.22204460493E-15  0.00000000000E+00  0.00000000000E+00  0.91188000000E+02  0.91188000000E+02 0.  0.
    9900012    2    3    3    0    0 -0.13535688352E+01 -0.27352242327E+02  0.35765011210E+02  0.46142319455E+02  0.10000015445E+02 0.  0.
        -12    1    3    3    0    0  0.13535688352E+01  0.27352242327E+02 -0.35765011210E+02  0.45045680545E+02  0.00000000000E+00 0.  1.
         11    1    4    4    0    0 -0.22757053743E+01 -0.14694444561E+02  0.19010339231E+02  0.24135006398E+02  0.51100000000E-03 0. -1.
        -11    1    4    4    0    0 -0.27135204925E+01 -0.46839719632E+01  0.76369066364E+01  0.93608295599E+01  0.51100000000E-03 0.  1.
         12    1    4    4    0    0  0.36356570316E+01 -0.79738258030E+01  0.91177653429E+01  0.12646483497E+02  0.00000000000E+00 0. -1.
</event>
<event>
 8    1  0.2882335E-009  0.9118800E+02  0.7816164E-02  0.1184000E+00
        -11   -1    0    0    0    0  0.00000000000E+00  0.00000000000E+00  0.45593999997E+02  0.45594000000E+02  0.51100000000E-03 0. -1.
         11   -1    0    0    0    0 -0.00000000000E+00 -0.00000000000E+00 -0.45593999997E+02  0.45594000000E+02  0.51100000000E-03 0.  1.
         23    2    1    2    0    0  0.00000000000E+00  0.00000000000E+00  0.35527136788E-14  0.91188000000E+02  0.91188000000E+02 0.  0.
    9900012    2    3    3    0    0  0.80261078083E+01 -0.32624911771E+02  0.30005168004E+02  0.46142318947E+02  0.10000010810E+02 0.  0.
        -12    1    3    3    0    0 -0.80261078083E+01  0.32624911771E+02 -0.30005168004E+02  0.45045681053E+02  0.00000000000E+00 0.  1.
         11    1    4    4    0    0  0.78054998588E+01 -0.28007699711E+02  0.22371464365E+02  0.36685685073E+02  0.51100000000E-03 0. -1.
        -11    1    4    4    0    0  0.71454041306E+00 -0.48027298296E+01  0.74602288718E+01  0.89012244606E+01  0.51100000000E-03 0.  1.
         12    1    4    4    0    0 -0.49393246359E+00  0.18551776991E+00  0.17347476752E+00  0.55540941341E+00  0.00000000000E+00 0. -1.
</event>
<event>
 8    1  0.2882335E-009  0.9118800E+02  0.7816164E-02  0.1184000E+00
        -11   -1    0    0    0    0  0.00000000000E+00  0.00000000000E+00  0.45593999997E+02  0.45594000000E+02  0.51100000000E-03 0. -1.
         11   -1    0    0    0    0 -0.00000000000E+00 -0.00000000000E+00 -0.45593999997E+02  0.45594000000E+02  0.51100000000E-03 0.  1.
         23    2    1    2    0    0  0.00000000000E+00  0.00000000000E+00  0.00000000000E+00  0.91188000000E+02  0.91188000000E+02 0.  0.
    9900012    2    3    3    0    0 -0.22360185553E+02  0.49718914837E+01  0.38786801511E+02  0.46142316807E+02  0.99999912971E+01 0.  0.
        -12    1    3    3    0    0  0.22360185553E+02 -0.49718914837E+01 -0.38786801511E+02  0.45045683193E+02  0.00000000000E+00 0.  1.
         11    1    4    4    0    0 -0.86011027120E+01  0.43310949438E-01  0.21436906753E+02  0.23098091157E+02  0.51100000000E-03 0. -1.
        -11    1    4    4    0    0 -0.69830810063E+01  0.45212305193E+01  0.10558442677E+02  0.13441936533E+02  0.51100000000E-03 0.  1.
        -12    1    4    4    0    0 -0.67760018347E+01  0.40735001495E+00  0.67914520812E+01  0.96022891162E+01  0.00000000000E+00 0.  1.
</event>
<event>
 8    1  0.2882335E-009  0.9118800E+02  0.7816164E-02  0.1184000E+00
        -11   -1    0    0    0    0  0.00000000000E+00  0.00000000000E+00  0.45593999997E+02  0.45594000000E+02  0.51100000000E-03 0. -1.
         11   -1    0    0    0    0 -0.00000000000E+00 -0.00000000000E+00 -0.45593999997E+02  0.45594000000E+02  0.51100000000E-03 0.  1.
         23    2    1    2    0    0  0.00000000000E+00  0.00000000000E+00  0.00000000000E+00  0.91188000000E+02  0.91188000000E+02 0.  0.
    9900012    2    3    3    0    0  0.23106271246E+02  0.67358964664E+01 -0.38076783502E+02  0.46142317477E+02  0.99999974116E+01 0.  0.
         12    1    3    3    0    0 -0.23106271246E+02 -0.67358964664E+01  0.38076783502E+02  0.45045682523E+02  0.00000000000E+00 0. -1.
         11    1    4    4    0    0  0.53129921710E+01  0.24283162491E+01 -0.13125587246E+02  0.14366824508E+02  0.51100000000E-03 0. -1.
        -11    1    4    4    0    0  0.68379332471E+01 -0.36868699665E-01 -0.14467256169E+02  0.16001880881E+02  0.51100000000E-03 0.  1.
         12    1    4    4    0    0  0.10955345828E+02  0.43444489170E+01 -0.10483940087E+02  0.15773612089E+02  0.00000000000E+00 0. -1.
</event>
<event>
 8    1  0.2882335E-009  0.9118800E+02  0.7816164E-02  0.1184000E+00
        -11   -1    0    0    0    0  0.00000000000E+00  0.00000000000E+00  0.45593999997E+02  0.45594000000E+02  0.51100000000E-03 0. -1.
         11   -1    0    0    0    0 -0.00000000000E+00 -0.00000000000E+00 -0.45593999997E+02  0.45594000000E+02  0.51100000000E-03 0.  1.
         23    2    1    2    0    0  0.00000000000E+00  0.35527136788E-14  0.88817841970E-15  0.91188000000E+02  0.91188000000E+02 0.  0.
    9900012    2    3    3    0    0  0.38583314288E+02  0.22239970433E+02  0.67694216588E+01  0.46142317678E+02  0.99999992390E+01 0.  0.
        -12    1    3    3    0    0 -0.38583314288E+02 -0.22239970433E+02 -0.67694216588E+01  0.45045682322E+02  0.00000000000E+00 0.  1.
         11    1    4    4    0    0  0.24705710040E+02  0.14202839747E+02  0.73026947060E+01  0.29418057646E+02  0.51100000000E-03 0. -1.
        -11    1    4    4    0    0  0.22335359046E+01  0.57682714207E+00  0.14927353373E+01  0.27476665077E+01  0.51100000000E-03 0.  1.
         12    1    4    4    0    0  0.11644068344E+02  0.74603035434E+01 -0.20260083846E+01  0.13976593524E+02  0.00000000000E+00 0. -1.
</event>
<event>
 8    1  0.2882335E-009  0.9118800E+02  0.7816164E-02  0.1184000E+00
        -11   -1    0    0    0    0  0.00000000000E+00  0.00000000000E+00  0.45593999997E+02  0.45594000000E+02  0.51100000000E-03 0. -1.
         11   -1    0    0    0    0 -0.00000000000E+00 -0.00000000000E+00 -0.45593999997E+02  0.45594000000E+02  0.51100000000E-03 0.  1.
         23    2    1    2    0    0  0.00000000000E+00  0.00000000000E+00  0.00000000000E+00  0.91188000000E+02  0.91188000000E+02 0.  0.
    9900012    2    3    3    0    0 -0.39785811977E+02  0.49299607310E+01  0.20540159621E+02  0.46142317579E+02  0.99999983431E+01 0.  0.
        -12    1    3    3    0    0  0.39785811977E+02 -0.49299607310E+01 -0.20540159621E+02  0.45045682421E+02  0.00000000000E+00 0.  1.
         11    1    4    4    0    0 -0.99191437270E+01  0.33151891448E+01  0.83499001930E+01  0.13382851895E+02  0.51100000000E-03 0. -1.
        -11    1    4    4    0    0 -0.15379455641E+02 -0.16989296411E+01  0.50869024290E+01  0.16287743685E+02  0.51100000000E-03 0.  1.
        -12    1    4    4    0    0 -0.14487212609E+02  0.33137012273E+01  0.71033569986E+01  0.16471722000E+02  0.00000000000E+00 0.  1.
</event>
<event>
 8    1  0.2882335E-009  0.9118800E+02  0.7816164E-02  0.1184000E+00
        -11   -1    0    0    0    0  0.00000000000E+00  0.00000000000E+00  0.45593999997E+02  0.45594000000E+02  0.51100000000E-03 0. -1.
         11   -1    0    0    0    0 -0.00000000000E+00 -0.00000000000E+00 -0.45593999997E+02  0.45594000000E+02  0.51100000000E-03 0.  1.
         23    2    1    2    0    0 -0.71054273576E-14  0.88817841970E-15  0.00000000000E+00  0.91188000000E+02  0.91188000000E+02 0.  0.
    9900012    2    3    3    0    0  0.41205863733E+02 -0.44777248090E+01  0.17639167406E+02  0.46142318162E+02  0.10000003656E+02 0.  0.
        -12    1    3    3    0    0 -0.41205863733E+02  0.44777248090E+01 -0.17639167406E+02  0.45045681838E+02  0.00000000000E+00 0.  1.
         11    1    4    4    0    0  0.18039603734E+02 -0.13844320291E+01  0.10594455868E+02  0.20966317042E+02  0.51100000000E-03 0. -1.
        -11    1    4    4    0    0  0.37996122494E+01  0.17581690436E+01  0.15983466356E+01  0.44813975343E+01  0.51100000000E-03 0.  1.
        -12    1    4    4    0    0  0.19366647750E+02 -0.48514618235E+01  0.54463649017E+01  0.20694603585E+02  0.00000000000E+00 0.  1.
</event>
<event>
 8    1  0.2882335E-009  0.9118800E+02  0.7816164E-02  0.1184000E+00
        -11   -1    0    0    0    0  0.00000000000E+00  0.00000000000E+00  0.45593999997E+02  0.45594000000E+02  0.51100000000E-03 0. -1.
         11   -1    0    0    0    0 -0.00000000000E+00 -0.00000000000E+00 -0.45593999997E+02  0.45594000000E+02  0.51100000000E-03 0.  1.
         23    2    1    2    0    0  0.71054273576E-14 -0.35527136788E-14  0.00000000000E+00  0.91188000000E+02  0.91188000000E+02 0.  0.
    9900012    2    3    3    0    0 -0.35021092708E+02  0.24906746479E+02  0.13501499936E+02  0.46142318130E+02  0.10000003365E+02 0.  0.
        -12    1    3    3    0    0  0.35021092708E+02 -0.24906746479E+02 -0.13501499936E+02  0.45045681870E+02  0.00000000000E+00 0.  1.
         11    1    4    4    0    0 -0.17191947975E+02  0.17373128964E+02  0.55488690911E+01  0.25063492047E+02  0.51100000000E-03 0. -1.
        -11    1    4    4    0    0 -0.15700560442E+02  0.69146743556E+01  0.61607274883E+01  0.18228408682E+02  0.51100000000E-03 0.  1.
         12    1    4    4    0    0 -0.21285842910E+01  0.61894315930E+00  0.17919033563E+01  0.28504174004E+01  0.00000000000E+00 0. -1.
</event>
<event>
 8    1  0.2882335E-009  0.9118800E+02  0.7816164E-02  0.1184000E+00
        -11   -1    0    0    0    0  0.00000000000E+00  0.00000000000E+00  0.45593999997E+02  0.45594000000E+02  0.51100000000E-03 0. -1.
         11   -1    0    0    0    0 -0.00000000000E+00 -0.00000000000E+00 -0.45593999997E+02  0.45594000000E+02  0.51100000000E-03 0.  1.
         23    2    1    2    0    0  0.35527136788E-14  0.00000000000E+00  0.35527136788E-14  0.91188000000E+02  0.91188000000E+02 0.  0.
    9900012    2    3    3    0    0 -0.27409451603E+02  0.19040695968E+02 -0.30253718274E+02  0.46142316416E+02  0.99999877332E+01 0.  0.
         12    1    3    3    0    0  0.27409451603E+02 -0.19040695968E+02  0.30253718274E+02  0.45045683584E+02  0.00000000000E+00 0. -1.
         11    1    4    4    0    0 -0.21089221996E+02  0.13440362541E+02 -0.25228924715E+02  0.35523193441E+02  0.51100000000E-03 0. -1.
        -11    1    4    4    0    0 -0.52253032040E+01  0.32672618883E+01 -0.16630256155E+01  0.63831378082E+01  0.51100000000E-03 0.  1.
         12    1    4    4    0    0 -0.10949264029E+01  0.23330715383E+01 -0.33617679434E+01  0.42359851671E+01  0.00000000000E+00 0. -1.
</event>
<event>
 8    1  0.2882335E-009  0.9118800E+02  0.7816164E-02  0.1184000E+00
        -11   -1    0    0    0    0  0.00000000000E+00  0.00000000000E+00  0.45593999997E+02  0.45594000000E+02  0.51100000000E-03 0. -1.
         11   -1    0    0    0    0 -0.00000000000E+00 -0.00000000000E+00 -0.45593999997E+02  0.45594000000E+02  0.51100000000E-03 0.  1.
         23    2    1    2    0    0  0.00000000000E+00  0.00000000000E+00  0.35527136788E-14  0.91188000000E+02  0.91188000000E+02 0.  0.
    9900012    2    3    3    0    0  0.78464949860E+01 -0.31728194972E+02  0.30997860958E+02  0.46142320698E+02  0.10000026785E+02 0.  0.
        -12    1    3    3    0    0 -0.78464949860E+01  0.31728194972E+02 -0.30997860958E+02  0.45045679302E+02  0.00000000000E+00 0.  1.
         11    1    4    4    0    0  0.33381512698E+01 -0.15160207811E+02  0.14308189039E+02  0.21111594649E+02  0.51100000000E-03 0. -1.
        -11    1    4    4    0    0  0.11310706731E+01 -0.11525193124E+02  0.14548535670E+02  0.18594872621E+02  0.51100000000E-03 0.  1.
        -12    1    4    4    0    0  0.33772730431E+01 -0.50427940375E+01  0.21411362492E+01  0.64358534283E+01  0.00000000000E+00 0.  1.
</event>
<event>
 8    1  0.2882335E-009  0.9118800E+02  0.7816164E-02  0.1184000E+00
        -11   -1    0    0    0    0  0.00000000000E+00  0.00000000000E+00  0.45593999997E+02  0.45594000000E+02  0.51100000000E-03 0. -1.
         11   -1    0    0    0    0 -0.00000000000E+00 -0.00000000000E+00 -0.45593999997E+02  0.45594000000E+02  0.51100000000E-03 0.  1.
         23    2    1    2    0    0 -0.71054273576E-14  0.00000000000E+00  0.00000000000E+00  0.91188000000E+02  0.91188000000E+02 0.  0.
    9900012    2    3    3    0    0  0.34552762743E+02 -0.11058580828E+02  0.26700711189E+02  0.46142316509E+02  0.99999885846E+01 0.  0.
        -12    1    3    3    0    0 -0.34552762743E+02  0.11058580828E+02 -0.26700711189E+02  0.45045683491E+02  0.00000000000E+00 0.  1.
         11    1    4    4    0    0  0.15030081179E+02 -0.26888173323E+01  0.13332473692E+02  0.20270370838E+02  0.51100000000E-03 0. -1.
        -11    1    4    4    0    0  0.17159055339E+01  0.58332840125E-01 -0.48986332559E+00  0.17854133584E+01  0.51100000000E-03 0.  1.
        -12    1    4    4    0    0  0.17806776030E+02 -0.84280963363E+01  0.13858100823E+02  0.24086532313E+02  0.00000000000E+00 0.  1.
</event>
<event>
 8    1  0.2882335E-009  0.9118800E+02  0.7816164E-02  0.1184000E+00
        -11   -1    0    0    0    0  0.00000000000E+00  0.00000000000E+00  0.45593999997E+02  0.45594000000E+02  0.51100000000E-03 0. -1.
         11   -1    0    0    0    0 -0.00000000000E+00 -0.00000000000E+00 -0.45593999997E+02  0.45594000000E+02  0.51100000000E-03 0.  1.
         23    2    1    2    0    0  0.00000000000E+00 -0.88817841970E-15 -0.71054273576E-14  0.91188000000E+02  0.91188000000E+02 0.  0.
    9900012    2    3    3    0    0 -0.17954167233E+02 -0.45686708147E+01 -0.41059573747E+02  0.46142317961E+02  0.10000001822E+02 0.  0.
         12    1    3    3    0    0  0.17954167233E+02  0.45686708147E+01  0.41059573747E+02  0.45045682039E+02  0.00000000000E+00 0. -1.
         11    1    4    4    0    0 -0.58587239736E+00 -0.22350997971E+01 -0.16754142633E+01  0.28541077036E+01  0.51100000000E-03 0. -1.
        -11    1    4    4    0    0 -0.13237626403E+02 -0.70604732919E-01 -0.28184978376E+02  0.31138926509E+02  0.51100000000E-03 0.  1.
         12    1    4    4    0    0 -0.41306684326E+01 -0.22629662847E+01 -0.11199181108E+02  0.12149283748E+02  0.00000000000E+00 0. -1.
</event>
<event>
 8    1  0.2882335E-009  0.9118800E+02  0.7816164E-02  0.1184000E+00
        -11   -1    0    0    0    0  0.00000000000E+00  0.00000000000E+00  0.45593999997E+02  0.45594000000E+02  0.51100000000E-03 0. -1.
         11   -1    0    0    0    0 -0.00000000000E+00 -0.00000000000E+00 -0.45593999997E+02  0.45594000000E+02  0.51100000000E-03 0.  1.
         23    2    1    2    0    0 -0.17763568394E-14  0.88817841970E-15 -0.71054273576E-14  0.91188000000E+02  0.91188000000E+02 0.  0.
    9900012    2    3    3    0    0  0.15975676620E+02  0.40542851286E+01  0.41922000939E+02  0.46142316144E+02  0.99999852533E+01 0.  0.
        -12    1    3    3    0    0 -0.15975676620E+02 -0.40542851286E+01 -0.41922000939E+02  0.45045683856E+02  0.00000000000E+00 0.  1.
         11    1    4    4    0    0  0.10618505936E+02  0.43332236484E+01  0.26328931433E+02  0.28718323875E+02  0.51100000000E-03 0. -1.
        -11    1    4    4    0    0 -0.89466607169E+00  0.21136352815E-01  0.37734419566E+00  0.97121729204E+00  0.51100000000E-03 0.  1.
        -12    1    4    4    0    0  0.62518367551E+01 -0.30007487264E+00  0.15215725310E+02  0.16452774977E+02  0.00000000000E+00 0.  1.
</event>
<event>
 8    1  0.2882335E-009  0.9118800E+02  0.7816164E-02  0.1184000E+00
        -11   -1    0    0    0    0  0.00000000000E+00  0.00000000000E+00  0.45593999997E+02  0.45594000000E+02  0.51100000000E-03 0. -1.
         11   -1    0    0    0    0 -0.00000000000E+00 -0.00000000000E+00 -0.45593999997E+02  0.45594000000E+02  0.51100000000E-03 0.  1.
         23    2    1    2    0    0 -0.17763568394E-14 -0.35527136788E-14  0.00000000000E+00  0.91188000000E+02  0.91188000000E+02 0.  0.
    9900012    2    3    3    0    0 -0.11280966563E+02 -0.27284174364E+02  0.34020980112E+02  0.46142318019E+02  0.10000002354E+02 0.  0.
        -12    1    3    3    0    0  0.11280966563E+02  0.27284174364E+02 -0.34020980112E+02  0.45045681981E+02  0.00000000000E+00 0.  1.
         11    1    4    4    0    0 -0.43884949020E+01 -0.11761973569E+02  0.18440386912E+02  0.22308087759E+02  0.51100000000E-03 0. -1.
        -11    1    4    4    0    0 -0.19132394048E+01 -0.22043251495E+01  0.25659637332E+00  0.29300812864E+01  0.51100000000E-03 0.  1.
         12    1    4    4    0    0 -0.49792322561E+01 -0.13317875645E+02  0.15323996827E+02  0.20904148973E+02  0.00000000000E+00 0. -1.
</event>
<event>
 8    1  0.2882335E-009  0.9118800E+02  0.7816164E-02  0.1184000E+00
        -11   -1    0    0    0    0  0.00000000000E+00  0.00000000000E+00  0.45593999997E+02  0.45594000000E+02  0.51100000000E-03 0. -1.
         11   -1    0    0    0    0 -0.00000000000E+00 -0.00000000000E+00 -0.45593999997E+02  0.45594000000E+02  0.51100000000E-03 0.  1.
         23    2    1    2    0    0  0.17763568394E-14  0.00000000000E+00  0.00000000000E+00  0.91188000000E+02  0.91188000000E+02 0.  0.
    9900012    2    3    3    0    0 -0.12684551884E+02  0.11160821330E+02 -0.41757055712E+02  0.46142317732E+02  0.99999997366E+01 0.  0.
         12    1    3    3    0    0  0.12684551884E+02 -0.11160821330E+02  0.41757055712E+02  0.45045682268E+02  0.00000000000E+00 0. -1.
         11    1    4    4    0    0 -0.57892477942E+01 -0.28531982963E+00 -0.93366445551E+01  0.10989528163E+02  0.51100000000E-03 0. -1.
        -11    1    4    4    0    0 -0.32545245449E+01  0.48554921317E+01 -0.11154212677E+02  0.12593021661E+02  0.51100000000E-03 0.  1.
         12    1    4    4    0    0 -0.36407795444E+01  0.65906490277E+01 -0.21266198480E+02  0.22559767908E+02  0.00000000000E+00 0. -1.
</event>
<event>
 8    1  0.2882335E-009  0.9118800E+02  0.7816164E-02  0.1184000E+00
        -11   -1    0    0    0    0  0.00000000000E+00  0.00000000000E+00  0.45593999997E+02  0.45594000000E+02  0.51100000000E-03 0. -1.
         11   -1    0    0    0    0 -0.00000000000E+00 -0.00000000000E+00 -0.45593999997E+02  0.45594000000E+02  0.51100000000E-03 0.  1.
         23    2    1    2    0    0  0.00000000000E+00  0.88817841970E-15  0.00000000000E+00  0.91188000000E+02  0.91188000000E+02 0.  0.
    9900012    2    3    3    0    0 -0.26582777887E+02  0.65056112822E+01 -0.35779133781E+02  0.46142317938E+02  0.10000001613E+02 0.  0.
         12    1    3    3    0    0  0.26582777887E+02 -0.65056112822E+01  0.35779133781E+02  0.45045682062E+02  0.00000000000E+00 0. -1.
         11    1    4    4    0    0 -0.35966091456E+01  0.20752019985E+01 -0.34169285917E+01  0.53774958803E+01  0.51100000000E-03 0. -1.
        -11    1    4    4    0    0 -0.11833370949E+02 -0.11039193119E+01 -0.19696722162E+02  0.23004524991E+02  0.51100000000E-03 0.  1.
        -12    1    4    4    0    0 -0.11152797792E+02  0.55343285956E+01 -0.12665483027E+02  0.17760297066E+02  0.00000000000E+00 0.  1.
</event>
<event>
 8    1  0.2882335E-009  0.9118800E+02  0.7816164E-02  0.1184000E+00
        -11   -1    0    0    0    0  0.00000000000E+00  0.00000000000E+00  0.45593999997E+02  0.45594000000E+02  0.51100000000E-03 0. -1.
         11   -1    0    0    0    0 -0.00000000000E+00 -0.00000000000E+00 -0.45593999997E+02  0.45594000000E+02  0.51100000000E-03 0.  1.
         23    2    1    2    0    0 -0.17763568394E-14  0.35527136788E-14  0.00000000000E+00  0.91188000000E+02  0.91188000000E+02 0.  0.
    9900012    2    3    3    0    0  0.14666343834E+02  0.26074101029E+02 -0.33677188785E+02  0.46142318405E+02  0.10000005873E+02 0.  0.
         12    1    3    3    0    0 -0.14666343834E+02 -0.26074101029E+02  0.33677188785E+02  0.45045681595E+02  0.00000000000E+00 0. -1.
         11    1    4    4    0    0  0.23226992835E+01  0.11658577424E+02 -0.90627550454E+01  0.14948273773E+02  0.51100000000E-03 0. -1.
        -11    1    4    4    0    0  0.83196061581E+01  0.78595926203E+01 -0.13933800034E+02  0.18031634048E+02  0.51100000000E-03 0.  1.
         12    1    4    4    0    0  0.40240383921E+01  0.65559309847E+01 -0.10680633705E+02  0.13162410585E+02  0.00000000000E+00 0. -1.
</event>
<event>
 8    1  0.2882335E-009  0.9118800E+02  0.7816164E-02  0.1184000E+00
        -11   -1    0    0    0    0  0.00000000000E+00  0.00000000000E+00  0.45593999997E+02  0.45594000000E+02  0.51100000000E-03 0. -1.
         11   -1    0    0    0    0 -0.00000000000E+00 -0.00000000000E+00 -0.45593999997E+02  0.45594000000E+02  0.51100000000E-03 0.  1.
         23    2    1    2    0    0  0.00000000000E+00  0.00000000000E+00  0.71054273576E-14  0.91188000000E+02  0.91188000000E+02 0.  0.
    9900012    2    3    3    0    0 -0.16853424611E+02 -0.58289961555E+01  0.41365421781E+02  0.46142320558E+02  0.10000025502E+02 0.  0.
        -12    1    3    3    0    0  0.16853424611E+02  0.58289961555E+01 -0.41365421781E+02  0.45045679442E+02  0.00000000000E+00 0.  1.
         11    1    4    4    0    0 -0.75854968430E+01 -0.50748074959E+01  0.12624557805E+02  0.15577961789E+02  0.51100000000E-03 0. -1.
        -11    1    4    4    0    0 -0.81924399601E+01  0.97500808057E+00  0.24662318527E+02  0.26005704541E+02  0.51100000000E-03 0.  1.
        -12    1    4    4    0    0 -0.10754878080E+01 -0.17291967402E+01  0.40785454487E+01  0.45586542278E+01  0.00000000000E+00 0.  1.
</event>
<event>
 8    1  0.2882335E-009  0.9118800E+02  0.7816164E-02  0.1184000E+00
        -11   -1    0    0    0    0  0.00000000000E+00  0.00000000000E+00  0.45593999997E+02  0.45594000000E+02  0.51100000000E-03 0. -1.
         11   -1    0    0    0    0 -0.00000000000E+00 -0.00000000000E+00 -0.45593999997E+02  0.45594000000E+02  0.51100000000E-03 0.  1.
         23    2    1    2    0    0  0.88817841970E-15 -0.35527136788E-14  0.71054273576E-14  0.91188000000E+02  0.91188000000E+02 0.  0.
    9900012    2    3    3    0    0 -0.29453166395E+01  0.26744847978E+02 -0.36126885872E+02  0.46142315786E+02  0.99999819920E+01 0.  0.
         12    1    3    3    0    0  0.29453166395E+01 -0.26744847978E+02  0.36126885872E+02  0.45045684214E+02  0.00000000000E+00 0. -1.
         11    1    4    4    0    0 -0.46197961796E+01  0.86160908852E+01 -0.12908557604E+02  0.16192911985E+02  0.51100000000E-03 0. -1.
        -11    1    4    4    0    0  0.36348201771E-01  0.15214019971E+02 -0.16491214238E+02  0.22437198403E+02  0.51100000000E-03 0.  1.
         12    1    4    4    0    0  0.16381313383E+01  0.29147371219E+01 -0.67271140306E+01  0.75122053987E+01  0.00000000000E+00 0. -1.
</event>
<event>
 8    1  0.2882335E-009  0.9118800E+02  0.7816164E-02  0.1184000E+00
        -11   -1    0    0    0    0  0.00000000000E+00  0.00000000000E+00  0.45593999997E+02  0.45594000000E+02  0.51100000000E-03 0. -1.
         11   -1    0    0    0    0 -0.00000000000E+00 -0.00000000000E+00 -0.45593999997E+02  0.45594000000E+02  0.51100000000E-03 0.  1.
         23    2    1    2    0    0  0.00000000000E+00 -0.71054273576E-14  0.35527136788E-14  0.91188000000E+02  0.91188000000E+02 0.  0.
    9900012    2    3    3    0    0 -0.24778529104E+01  0.37260521786E+02 -0.25191809615E+02  0.46142317516E+02  0.99999977613E+01 0.  0.
         12    1    3    3    0    0  0.24778529104E+01 -0.37260521786E+02  0.25191809615E+02  0.45045682484E+02  0.00000000000E+00 0. -1.
         11    1    4    4    0    0  0.90912993518E+00  0.14570702653E+02 -0.10088996755E+02  0.17745978385E+02  0.51100000000E-03 0. -1.
        -11    1    4    4    0    0 -0.51355273334E+01  0.18460086578E+02 -0.13876185283E+02  0.23657915287E+02  0.51100000000E-03 0.  1.
        -12    1    4    4    0    0  0.17485444879E+01  0.42297325552E+01 -0.12266275769E+01  0.47384238442E+01  0.00000000000E+00 0.  1.
</event>
<event>
 8    1  0.2882335E-009  0.9118800E+02  0.7816164E-02  0.1184000E+00
        -11   -1    0    0    0    0  0.00000000000E+00  0.00000000000E+00  0.45593999997E+02  0.45594000000E+02  0.51100000000E-03 0. -1.
         11   -1    0    0    0    0 -0.00000000000E+00 -0.00000000000E+00 -0.45593999997E+02  0.45594000000E+02  0.51100000000E-03 0.  1.
         23    2    1    2    0    0  0.00000000000E+00  0.00000000000E+00  0.00000000000E+00  0.91188000000E+02  0.91188000000E+02 0.  0.
    9900012    2    3    3    0    0  0.31876181934E+01 -0.26122269588E+02 -0.36559261343E+02  0.46142317986E+02  0.10000002049E+02 0.  0.
         12    1    3    3    0    0 -0.31876181934E+01  0.26122269588E+02  0.36559261343E+02  0.45045682014E+02  0.00000000000E+00 0. -1.
         11    1    4    4    0    0  0.27324769994E+01 -0.14555719455E+02 -0.16121874232E+02  0.21891784496E+02  0.51100000000E-03 0. -1.
        -11    1    4    4    0    0  0.18561185904E+00 -0.29582274261E+00  0.41694852527E+00  0.54388343522E+00  0.51100000000E-03 0.  1.
        -12    1    4    4    0    0  0.26952933499E+00 -0.11270727390E+02 -0.20854335637E+02  0.23706650054E+02  0.00000000000E+00 0.  1.
</event>
<event>
 8    1  0.2882335E-009  0.9118800E+02  0.7816164E-02  0.1184000E+00
        -11   -1    0    0    0    0  0.00000000000E+00  0.00000000000E+00  0.45593999997E+02  0.45594000000E+02  0.51100000000E-03 0. -1.
         11   -1    0    0    0    0 -0.00000000000E+00 -0.00000000000E+00 -0.45593999997E+02  0.45594000000E+02  0.51100000000E-03 0.  1.
         23    2    1    2    0    0  0.22204460493E-15  0.00000000000E+00  0.00000000000E+00  0.91188000000E+02  0.91188000000E+02 0.  0.
    9900012    2    3    3    0    0 -0.10465535149E+01 -0.29328259508E+02  0.34174133705E+02  0.46142317693E+02  0.99999993780E+01 0.  0.
        -12    1    3    3    0    0  0.10465535149E+01  0.29328259508E+02 -0.34174133705E+02  0.45045682307E+02  0.00000000000E+00 0.  1.
         11    1    4    4    0    0 -0.81442990436E-01 -0.41487030213E+01  0.46435063031E+01  0.62274008035E+01  0.51100000000E-03 0. -1.
        -11    1    4    4    0    0  0.27621674385E+01 -0.10127034635E+02  0.16991786834E+02  0.19972661804E+02  0.51100000000E-03 0.  1.
        -12    1    4    4    0    0 -0.37272779630E+01 -0.15052521852E+02  0.12538840568E+02  0.19942255086E+02  0.00000000000E+00 0.  1.
</event>
<event>
 8    1  0.2882335E-009  0.9118800E+02  0.7816164E-02  0.1184000E+00
        -11   -1    0    0    0    0  0.00000000000E+00  0.00000000000E+00  0.45593999997E+02  0.45594000000E+02  0.51100000000E-03 0. -1.
         11   -1    0    0    0    0 -0.00000000000E+00 -0.00000000000E+00 -0.45593999997E+02  0.45594000000E+02  0.51100000000E-03 0.  1.
         23    2    1    2    0    0 -0.17763568394E-14  0.00000000000E+00 -0.71054273576E-14  0.91188000000E+02  0.91188000000E+02 0.  0.
    9900012    2    3    3    0    0  0.80003878434E+01 -0.18472150568E+02  0.40297481110E+02  0.46142317231E+02  0.99999951698E+01 0.  0.
        -12    1    3    3    0    0 -0.80003878434E+01  0.18472150568E+02 -0.40297481110E+02  0.45045682769E+02  0.00000000000E+00 0.  1.
         11    1    4    4    0    0  0.36834357946E+01 -0.33408123330E+01  0.69325271539E+01  0.85316270018E+01  0.51100000000E-03 0. -1.
        -11    1    4    4    0    0 -0.10082377015E+01 -0.30314913864E+00  0.50255259999E+00  0.11666199209E+01  0.51100000000E-03 0.  1.
        -12    1    4    4    0    0  0.53251897504E+01 -0.14828189096E+02  0.32862401356E+02  0.36444070309E+02  0.00000000000E+00 0.  1.
</event>
<event>
 8    1  0.2882335E-009  0.9118800E+02  0.7816164E-02  0.1184000E+00
        -11   -1    0    0    0    0  0.00000000000E+00  0.00000000000E+00  0.45593999997E+02  0.45594000000E+02  0.51100000000E-03 0. -1.
         11   -1    0    0    0    0 -0.00000000000E+00 -0.00000000000E+00 -0.45593999997E+02  0.45594000000E+02  0.51100000000E-03 0.  1.
         23    2    1    2    0    0  0.00000000000E+00  0.00000000000E+00 -0.44408920985E-15  0.91188000000E+02  0.91188000000E+02 0.  0.
    9900012    2    3    3    0    0  0.42266994645E+02 -0.15061592796E+02  0.39702715249E+01  0.46142317967E+02  0.10000001875E+02 0.  0.
        -12    1    3    3    0    0 -0.42266994645E+02  0.15061592796E+02 -0.39702715249E+01  0.45045682033E+02  0.00000000000E+00 0.  1.
         11    1    4    4    0    0  0.19851381270E+02 -0.99145538884E+01  0.41462787911E+01  0.22573598411E+02  0.51100000000E-03 0. -1.
        -11    1    4    4    0    0  0.85237789370E+01 -0.99998996002E+00  0.22433970837E+01  0.88706041521E+01  0.51100000000E-03 0.  1.
         12    1    4    4    0    0  0.13891834437E+02 -0.41470489480E+01 -0.24194043499E+01  0.14698115404E+02  0.00000000000E+00 0. -1.
</event>
<event>
 8    1  0.2882335E-009  0.9118800E+02  0.7816164E-02  0.1184000E+00
        -11   -1    0    0    0    0  0.00000000000E+00  0.00000000000E+00  0.45593999997E+02  0.45594000000E+02  0.51100000000E-03 0. -1.
         11   -1    0    0    0    0 -0.00000000000E+00 -0.00000000000E+00 -0.45593999997E+02  0.45594000000E+02  0.51100000000E-03 0.  1.
         23    2    1    2    0    0  0.00000000000E+00  0.00000000000E+00 -0.35527136788E-14  0.91188000000E+02  0.91188000000E+02 0.  0.
    9900012    2    3    3    0    0 -0.87057685277E+01 -0.37461887034E+02 -0.23450593571E+02  0.46142315138E+02  0.99999760844E+01 0.  0.
         12    1    3    3    0    0  0.87057685277E+01  0.37461887034E+02  0.23450593571E+02  0.45045684862E+02  0.00000000000E+00 0. -1.
         11    1    4    4    0    0  0.20291529096E+01 -0.41804722947E+01 -0.28278734069E+01  0.54397314643E+01  0.51100000000E-03 0. -1.
        -11    1    4    4    0    0 -0.77001605585E+01 -0.21835099045E+02 -0.15053842314E+02  0.27616701316E+02  0.51100000000E-03 0.  1.
         12    1    4    4    0    0 -0.30347608787E+01 -0.11446315695E+02 -0.55688778504E+01  0.13085882358E+02  0.00000000000E+00 0. -1.
</event>
<event>
 8    1  0.2882335E-009  0.9118800E+02  0.7816164E-02  0.1184000E+00
        -11   -1    0    0    0    0  0.00000000000E+00  0.00000000000E+00  0.45593999997E+02  0.45594000000E+02  0.51100000000E-03 0. -1.
         11   -1    0    0    0    0 -0.00000000000E+00 -0.00000000000E+00 -0.45593999997E+02  0.45594000000E+02  0.51100000000E-03 0.  1.
         23    2    1    2    0    0  0.00000000000E+00  0.00000000000E+00  0.00000000000E+00  0.91188000000E+02  0.91188000000E+02 0.  0.
    9900012    2    3    3    0    0  0.42924025002E+02 -0.10285807343E+02  0.89913113568E+01  0.46142318353E+02  0.10000005400E+02 0.  0.
        -12    1    3    3    0    0 -0.42924025002E+02  0.10285807343E+02 -0.89913113568E+01  0.45045681647E+02  0.00000000000E+00 0.  1.
         11    1    4    4    0    0  0.18560868864E+01 -0.13685707351E+01  0.22021527689E+00  0.23165792488E+01  0.51100000000E-03 0. -1.
        -11    1    4    4    0    0  0.77210860059E+01 -0.30948423945E+01 -0.14958957103E+01  0.84516816548E+01  0.51100000000E-03 0.  1.
        -12    1    4    4    0    0  0.33346852110E+02 -0.58223942138E+01  0.10266991790E+02  0.35374057450E+02  0.00000000000E+00 0.  1.
</event>
<event>
 8    1  0.2882335E-009  0.9118800E+02  0.7816164E-02  0.1184000E+00
        -11   -1    0    0    0    0  0.00000000000E+00  0.00000000000E+00  0.45593999997E+02  0.45594000000E+02  0.51100000000E-03 0. -1.
         11   -1    0    0    0    0 -0.00000000000E+00 -0.00000000000E+00 -0.45593999997E+02  0.45594000000E+02  0.51100000000E-03 0.  1.
         23    2    1    2    0    0  0.00000000000E+00  0.88817841970E-15  0.00000000000E+00  0.91188000000E+02  0.91188000000E+02 0.  0.
    9900012    2    3    3    0    0  0.22867305489E+02  0.59294298045E+01 -0.38354158996E+02  0.46142319736E+02  0.10000018009E+02 0.  0.
         12    1    3    3    0    0 -0.22867305489E+02 -0.59294298045E+01  0.38354158996E+02  0.45045680264E+02  0.00000000000E+00 0. -1.
         11    1    4    4    0    0  0.34998039549E+01  0.24477586421E+01 -0.42587042762E+01  0.60313110072E+01  0.51100000000E-03 0. -1.
        -11    1    4    4    0    0 -0.78668116273E-01  0.15437506223E+01 -0.31982116090E+01  0.35521700991E+01  0.51100000000E-03 0.  1.
        -12    1    4    4    0    0  0.19446169650E+02  0.19379205402E+01 -0.30897243111E+02  0.36558838630E+02  0.00000000000E+00 0.  1.
</event>
<event>
 8    1  0.2882335E-009  0.9118800E+02  0.7816164E-02  0.1184000E+00
        -11   -1    0    0    0    0  0.00000000000E+00  0.00000000000E+00  0.45593999997E+02  0.45594000000E+02  0.51100000000E-03 0. -1.
         11   -1    0    0    0    0 -0.00000000000E+00 -0.00000000000E+00 -0.45593999997E+02  0.45594000000E+02  0.51100000000E-03 0.  1.
         23    2    1    2    0    0  0.00000000000E+00  0.00000000000E+00 -0.71054273576E-14  0.91188000000E+02  0.91188000000E+02 0.  0.
    9900012    2    3    3    0    0 -0.10366588636E+02 -0.21716685406E+02 -0.38079297259E+02  0.46142318024E+02  0.10000002398E+02 0.  0.
         12    1    3    3    0    0  0.10366588636E+02  0.21716685406E+02  0.38079297259E+02  0.45045681976E+02  0.00000000000E+00 0. -1.
         11    1    4    4    0    0 -0.10746186528E+01 -0.93749110266E-01 -0.28181979846E+01  0.30175874944E+01  0.51100000000E-03 0. -1.
        -11    1    4    4    0    0 -0.68300882036E+01 -0.20631112523E+02 -0.33526694150E+02  0.39954125315E+02  0.51100000000E-03 0.  1.
        -12    1    4    4    0    0 -0.24618817797E+01 -0.99182377289E+00 -0.17344051241E+01  0.31706052148E+01  0.00000000000E+00 0.  1.
</event>
<event>
 8    1  0.2882335E-009  0.9118800E+02  0.7816164E-02  0.1184000E+00
        -11   -1    0    0    0    0  0.00000000000E+00  0.00000000000E+00  0.45593999997E+02  0.45594000000E+02  0.51100000000E-03 0. -1.
         11   -1    0    0    0    0 -0.00000000000E+00 -0.00000000000E+00 -0.45593999997E+02  0.45594000000E+02  0.51100000000E-03 0.  1.
         23    2    1    2    0    0  0.00000000000E+00  0.17763568394E-14  0.00000000000E+00  0.91188000000E+02  0.91188000000E+02 0.  0.
    9900012    2    3    3    0    0  0.45461120044E+01 -0.15929244079E+02 -0.41889205091E+02  0.46142318138E+02  0.10000003436E+02 0.  0.
         12    1    3    3    0    0 -0.45461120044E+01  0.15929244079E+02  0.41889205091E+02  0.45045681862E+02  0.00000000000E+00 0. -1.
         11    1    4    4    0    0  0.51943252115E+01 -0.13327477004E+02 -0.28898625155E+02  0.32244894074E+02  0.51100000000E-03 0.  1.
        -11    1    4    4    0    0 -0.19882761985E+01 -0.78131630064E+00 -0.95116374198E+01  0.97485867730E+01  0.51100000000E-03 0. -1.
         12    1    4    4    0    0  0.13400629913E+01 -0.18204507746E+01 -0.34789425156E+01  0.41488372913E+01  0.00000000000E+00 0. -1.
</event>
<event>
 8    1  0.2882335E-009  0.9118800E+02  0.7816164E-02  0.1184000E+00
        -11   -1    0    0    0    0  0.00000000000E+00  0.00000000000E+00  0.45593999997E+02  0.45594000000E+02  0.51100000000E-03 0. -1.
         11   -1    0    0    0    0 -0.00000000000E+00 -0.00000000000E+00 -0.45593999997E+02  0.45594000000E+02  0.51100000000E-03 0.  1.
         23    2    1    2    0    0  0.00000000000E+00  0.00000000000E+00  0.00000000000E+00  0.91188000000E+02  0.91188000000E+02 0.  0.
    9900012    2    3    3    0    0  0.39458087186E+01 -0.38338161477E+02  0.23318007820E+02  0.46142317404E+02  0.99999967399E+01 0.  0.
        -12    1    3    3    0    0 -0.39458087186E+01  0.38338161477E+02 -0.23318007820E+02  0.45045682596E+02  0.00000000000E+00 0.  1.
         11    1    4    4    0    0  0.28698659166E+01 -0.17201290520E+02  0.12563533453E+02  0.21493322196E+02  0.51100000000E-03 0. -1.
        -11    1    4    4    0    0  0.24207003240E+01 -0.11879499476E+02  0.90773353940E+01  0.15145306731E+02  0.51100000000E-03 0.  1.
        -12    1    4    4    0    0 -0.13447575221E+01 -0.92573714806E+01  0.16771389734E+01  0.95036884766E+01  0.00000000000E+00 0.  1.
</event>
<event>
 8    1  0.2882335E-009  0.9118800E+02  0.7816164E-02  0.1184000E+00
        -11   -1    0    0    0    0  0.00000000000E+00  0.00000000000E+00  0.45593999997E+02  0.45594000000E+02  0.51100000000E-03 0.  1.
         11   -1    0    0    0    0 -0.00000000000E+00 -0.00000000000E+00 -0.45593999997E+02  0.45594000000E+02  0.51100000000E-03 0. -1.
         23    2    1    2    0    0  0.71054273576E-14  0.00000000000E+00  0.00000000000E+00  0.91188000000E+02  0.91188000000E+02 0.  0.
    9900012    2    3    3    0    0  0.39512578971E+02 -0.21491257642E+02  0.24485381729E+01  0.46142318840E+02  0.10000009840E+02 0.  0.
         12    1    3    3    0    0 -0.39512578971E+02  0.21491257642E+02 -0.24485381729E+01  0.45045681160E+02  0.00000000000E+00 0. -1.
         11    1    4    4    0    0  0.30257391005E+02 -0.19496430138E+02  0.83522982500E+00  0.36004417891E+02  0.51100000000E-03 0. -1.
        -11    1    4    4    0    0  0.66626849357E+01 -0.28327148997E+01  0.74378353043E+00  0.72779707650E+01  0.51100000000E-03 0.  1.
         12    1    4    4    0    0  0.25925030301E+01  0.83788739573E+00  0.86952481750E+00  0.28599301840E+01  0.00000000000E+00 0. -1.
</event>
<event>
 8    1  0.2882335E-009  0.9118800E+02  0.7816164E-02  0.1184000E+00
        -11   -1    0    0    0    0  0.00000000000E+00  0.00000000000E+00  0.45593999997E+02  0.45594000000E+02  0.51100000000E-03 0.  1.
         11   -1    0    0    0    0 -0.00000000000E+00 -0.00000000000E+00 -0.45593999997E+02  0.45594000000E+02  0.51100000000E-03 0. -1.
         23    2    1    2    0    0  0.35527136788E-14  0.00000000000E+00  0.35527136788E-14  0.91188000000E+02  0.91188000000E+02 0.  0.
    9900012    2    3    3    0    0 -0.30652814932E+02  0.19491759324E+02 -0.26638124919E+02  0.46142318253E+02  0.10000004487E+02 0.  0.
         12    1    3    3    0    0  0.30652814932E+02 -0.19491759324E+02  0.26638124919E+02  0.45045681747E+02  0.00000000000E+00 0. -1.
         11    1    4    4    0    0 -0.13288659088E+02  0.12933752563E+02 -0.13890632319E+02  0.23169378114E+02  0.51100000000E-03 0. -1.
        -11    1    4    4    0    0 -0.40085163167E+01  0.10490300624E+01 -0.78771090056E+00  0.42177192720E+01  0.51100000000E-03 0.  1.
         12    1    4    4    0    0 -0.13355639527E+02  0.55089766980E+01 -0.11959781700E+02  0.18755220867E+02  0.00000000000E+00 0. -1.
</event>
<event>
 8    1  0.2882335E-009  0.9118800E+02  0.7816164E-02  0.1184000E+00
        -11   -1    0    0    0    0  0.00000000000E+00  0.00000000000E+00  0.45593999997E+02  0.45594000000E+02  0.51100000000E-03 0. -1.
         11   -1    0    0    0    0 -0.00000000000E+00 -0.00000000000E+00 -0.45593999997E+02  0.45594000000E+02  0.51100000000E-03 0.  1.
         23    2    1    2    0    0  0.00000000000E+00 -0.71054273576E-14 -0.22204460493E-15  0.91188000000E+02  0.91188000000E+02 0.  0.
    9900012    2    3    3    0    0 -0.20507763205E+02  0.40067506555E+02 -0.17720788133E+01  0.46142315450E+02  0.99999789280E+01 0.  0.
         12    1    3    3    0    0  0.20507763205E+02 -0.40067506555E+02  0.17720788133E+01  0.45045684550E+02  0.00000000000E+00 0. -1.
         11    1    4    4    0    0 -0.20538446726E+01  0.13360309277E+01 -0.13363981356E+01  0.27909168416E+01  0.51100000000E-03 0. -1.
        -11    1    4    4    0    0 -0.13262284120E+02  0.33142176381E+02 -0.90295187330E+00  0.35708645420E+02  0.51100000000E-03 0.  1.
        -12    1    4    4    0    0 -0.51916344124E+01  0.55892992465E+01  0.46727119558E+00  0.76427531891E+01  0.00000000000E+00 0.  1.
</event>
<event>
 8    1  0.2882335E-009  0.9118800E+02  0.7816164E-02  0.1184000E+00
        -11   -1    0    0    0    0  0.00000000000E+00  0.00000000000E+00  0.45593999997E+02  0.45594000000E+02  0.51100000000E-03 0. -1.
         11   -1    0    0    0    0 -0.00000000000E+00 -0.00000000000E+00 -0.45593999997E+02  0.45594000000E+02  0.51100000000E-03 0.  1.
         23    2    1    2    0    0  0.71054273576E-14  0.00000000000E+00  0.00000000000E+00  0.91188000000E+02  0.91188000000E+02 0.  0.
    9900012    2    3    3    0    0  0.40880138676E+02  0.56707764445E+01 -0.18049106249E+02  0.46142315633E+02  0.99999805985E+01 0.  0.
         12    1    3    3    0    0 -0.40880138676E+02 -0.56707764445E+01  0.18049106249E+02  0.45045684367E+02  0.00000000000E+00 0. -1.
         11    1    4    4    0    0  0.87941888880E+01  0.18907309134E+01 -0.75130549336E+01  0.11720009227E+02  0.51100000000E-03 0. -1.
        -11    1    4    4    0    0  0.12339320410E+02  0.33842446694E+01 -0.21916667579E+01  0.12981345986E+02  0.51100000000E-03 0.  1.
         12    1    4    4    0    0  0.19746629378E+02  0.39580086181E+00 -0.83443845573E+01  0.21440960420E+02  0.00000000000E+00 0. -1.
</event>
<event>
 8    1  0.2882335E-009  0.9118800E+02  0.7816164E-02  0.1184000E+00
        -11   -1    0    0    0    0  0.00000000000E+00  0.00000000000E+00  0.45593999997E+02  0.45594000000E+02  0.51100000000E-03 0. -1.
         11   -1    0    0    0    0 -0.00000000000E+00 -0.00000000000E+00 -0.45593999997E+02  0.45594000000E+02  0.51100000000E-03 0.  1.
         23    2    1    2    0    0 -0.35527136788E-14  0.00000000000E+00  0.71054273576E-14  0.91188000000E+02  0.91188000000E+02 0.  0.
    9900012    2    3    3    0    0 -0.20848202303E+02  0.18080036410E+02  0.35603064675E+02  0.46142317964E+02  0.10000001848E+02 0.  0.
        -12    1    3    3    0    0  0.20848202303E+02 -0.18080036410E+02 -0.35603064675E+02  0.45045682036E+02  0.00000000000E+00 0.  1.
         11    1    4    4    0    0 -0.99307646636E+01  0.92856511073E+01  0.17487648274E+02  0.22150874604E+02  0.51100000000E-03 0. -1.
        -11    1    4    4    0    0 -0.69096502124E+01  0.11340337332E+01  0.68989869189E+01  0.98298178688E+01  0.51100000000E-03 0.  1.
        -12    1    4    4    0    0 -0.40077874270E+01  0.76603515693E+01  0.11216429482E+02  0.14161625491E+02  0.00000000000E+00 0.  1.
</event>
<event>
 8    1  0.2882335E-009  0.9118800E+02  0.7816164E-02  0.1184000E+00
        -11   -1    0    0    0    0  0.00000000000E+00  0.00000000000E+00  0.45593999997E+02  0.45594000000E+02  0.51100000000E-03 0. -1.
         11   -1    0    0    0    0 -0.00000000000E+00 -0.00000000000E+00 -0.45593999997E+02  0.45594000000E+02  0.51100000000E-03 0.  1.
         23    2    1    2    0    0  0.00000000000E+00  0.00000000000E+00 -0.35527136788E-14  0.91188000000E+02  0.91188000000E+02 0.  0.
    9900012    2    3    3    0    0  0.25748033395E+01 -0.39323817819E+02  0.21820201684E+02  0.46142318058E+02  0.10000002708E+02 0.  0.
        -12    1    3    3    0    0 -0.25748033395E+01  0.39323817819E+02 -0.21820201684E+02  0.45045681942E+02  0.00000000000E+00 0.  1.
         11    1    4    4    0    0  0.44337269881E+01 -0.22254281040E+02  0.16649351379E+02  0.28144481897E+02  0.51100000000E-03 0. -1.
        -11    1    4    4    0    0 -0.62626375856E+00 -0.17768440484E+01  0.78489144679E+00  0.20409399580E+01  0.51100000000E-03 0.  1.
         12    1    4    4    0    0 -0.12326598900E+01 -0.15292692730E+02  0.43859588581E+01  0.15956896203E+02  0.00000000000E+00 0. -1.
</event>
<event>
 8    1  0.2882335E-009  0.9118800E+02  0.7816164E-02  0.1184000E+00
        -11   -1    0    0    0    0  0.00000000000E+00  0.00000000000E+00  0.45593999997E+02  0.45594000000E+02  0.51100000000E-03 0. -1.
         11   -1    0    0    0    0 -0.00000000000E+00 -0.00000000000E+00 -0.45593999997E+02  0.45594000000E+02  0.51100000000E-03 0.  1.
         23    2    1    2    0    0  0.00000000000E+00  0.17763568394E-14 -0.35527136788E-14  0.91188000000E+02  0.91188000000E+02 0.  0.
    9900012    2    3    3    0    0  0.29114530182E+02  0.15018052995E+02 -0.30917886236E+02  0.46142317934E+02  0.10000001576E+02 0.  0.
         12    1    3    3    0    0 -0.29114530182E+02 -0.15018052995E+02  0.30917886236E+02  0.45045682066E+02  0.00000000000E+00 0. -1.
         11    1    4    4    0    0  0.60555563927E+00 -0.11464611884E+01 -0.17294481022E+01  0.21614952899E+01  0.51100000000E-03 0. -1.
        -11    1    4    4    0    0  0.23595291132E+02  0.12681451336E+02 -0.22527805195E+02  0.35000842544E+02  0.51100000000E-03 0.  1.
        -12    1    4    4    0    0  0.49136834112E+01  0.34830628466E+01 -0.66606329388E+01  0.89799801004E+01  0.00000000000E+00 0.  1.
</event>
<event>
 8    1  0.2882335E-009  0.9118800E+02  0.7816164E-02  0.1184000E+00
        -11   -1    0    0    0    0  0.00000000000E+00  0.00000000000E+00  0.45593999997E+02  0.45594000000E+02  0.51100000000E-03 0. -1.
         11   -1    0    0    0    0 -0.00000000000E+00 -0.00000000000E+00 -0.45593999997E+02  0.45594000000E+02  0.51100000000E-03 0.  1.
         23    2    1    2    0    0 -0.35527136788E-14  0.17763568394E-14 -0.71054273576E-14  0.91188000000E+02  0.91188000000E+02 0.  0.
    9900012    2    3    3    0    0 -0.21770889789E+02  0.10983759903E+02 -0.37874783178E+02  0.46142314029E+02  0.99999659708E+01 0.  0.
         12    1    3    3    0    0  0.21770889789E+02 -0.10983759903E+02  0.37874783178E+02  0.45045685971E+02  0.00000000000E+00 0. -1.
         11    1    4    4    0    0 -0.19433492550E+01 -0.80842274508E-01 -0.76795125297E+00  0.20911459032E+01  0.51100000000E-03 0. -1.
        -11    1    4    4    0    0 -0.92975084203E+01  0.33411711434E+01 -0.10528711186E+02  0.14438173255E+02  0.51100000000E-03 0.  1.
        -12    1    4    4    0    0 -0.10530032113E+02  0.77234310340E+01 -0.26578120738E+02  0.29612994871E+02  0.00000000000E+00 0.  1.
</event>
<event>
 8    1  0.2882335E-009  0.9118800E+02  0.7816164E-02  0.1184000E+00
        -11   -1    0    0    0    0  0.00000000000E+00  0.00000000000E+00  0.45593999997E+02  0.45594000000E+02  0.51100000000E-03 0. -1.
         11   -1    0    0    0    0 -0.00000000000E+00 -0.00000000000E+00 -0.45593999997E+02  0.45594000000E+02  0.51100000000E-03 0.  1.
         23    2    1    2    0    0  0.00000000000E+00  0.00000000000E+00 -0.71054273576E-14  0.91188000000E+02  0.91188000000E+02 0.  0.
    9900012    2    3    3    0    0  0.19171634977E+01  0.20981632177E+02 -0.39814685143E+02  0.46142316991E+02  0.99999929764E+01 0.  0.
         12    1    3    3    0    0 -0.19171634977E+01 -0.20981632177E+02  0.39814685143E+02  0.45045683009E+02  0.00000000000E+00 0. -1.
         11    1    4    4    0    0  0.31480723945E+01  0.12764029281E+02 -0.29049010640E+02  0.31885354361E+02  0.51100000000E-03 0. -1.
        -11    1    4    4    0    0 -0.24592580855E+01  0.57579094495E+01 -0.90885633316E+01  0.11036460268E+02  0.51100000000E-03 0.  1.
         12    1    4    4    0    0  0.12283491888E+01  0.24596934465E+01 -0.16771111721E+01  0.32205023620E+01  0.00000000000E+00 0. -1.
</event>
<event>
 8    1  0.2882335E-009  0.9118800E+02  0.7816164E-02  0.1184000E+00
        -11   -1    0    0    0    0  0.00000000000E+00  0.00000000000E+00  0.45593999997E+02  0.45594000000E+02  0.51100000000E-03 0.  1.
         11   -1    0    0    0    0 -0.00000000000E+00 -0.00000000000E+00 -0.45593999997E+02  0.45594000000E+02  0.51100000000E-03 0. -1.
         23    2    1    2    0    0  0.00000000000E+00 -0.35527136788E-14 -0.17763568394E-14  0.91188000000E+02  0.91188000000E+02 0.  0.
    9900012    2    3    3    0    0 -0.40690723284E+02 -0.16798967689E+02 -0.95484669564E+01  0.46142317654E+02  0.99999990216E+01 0.  0.
         12    1    3    3    0    0  0.40690723284E+02  0.16798967689E+02  0.95484669564E+01  0.45045682346E+02  0.00000000000E+00 0. -1.
         11    1    4    4    0    0 -0.69604944268E+01 -0.25060252784E+01  0.17711095395E+01  0.76069359550E+01  0.51100000000E-03 0. -1.
        -11    1    4    4    0    0 -0.27503220632E+02 -0.10507642720E+02 -0.10220950096E+02  0.31165774847E+02  0.51100000000E-03 0.  1.
         12    1    4    4    0    0 -0.62270082257E+01 -0.37852996906E+01 -0.10986263995E+01  0.73696068522E+01  0.00000000000E+00 0. -1.
</event>
<event>
 8    1  0.2882335E-009  0.9118800E+02  0.7816164E-02  0.1184000E+00
        -11   -1    0    0    0    0  0.00000000000E+00  0.00000000000E+00  0.45593999997E+02  0.45594000000E+02  0.51100000000E-03 0. -1.
         11   -1    0    0    0    0 -0.00000000000E+00 -0.00000000000E+00 -0.45593999997E+02  0.45594000000E+02  0.51100000000E-03 0.  1.
         23    2    1    2    0    0  0.00000000000E+00  0.00000000000E+00  0.00000000000E+00  0.91188000000E+02  0.91188000000E+02 0.  0.
    9900012    2    3    3    0    0 -0.36468255750E+02 -0.17366264212E+02 -0.19939717222E+02  0.46142321705E+02  0.10000035963E+02 0.  0.
         12    1    3    3    0    0  0.36468255750E+02  0.17366264212E+02  0.19939717222E+02  0.45045678295E+02  0.00000000000E+00 0. -1.
         11    1    4    4    0    0 -0.10980150246E+01 -0.76332991909E-01 -0.11345043212E+01  0.15806846731E+01  0.51100000000E-03 0. -1.
        -11    1    4    4    0    0  0.37984524277E+00  0.24671814996E+00 -0.66523426073E+00  0.80479136225E+00  0.51100000000E-03 0.  1.
        -12    1    4    4    0    0 -0.35750085969E+02 -0.17536649370E+02 -0.18139978641E+02  0.43756845670E+02  0.00000000000E+00 0.  1.
</event>
<event>
 8    1  0.3065966E-009  0.9118800E+02  0.7816164E-02  0.1184000E+00
        -11   -1    0    0    0    0  0.00000000000E+00  0.00000000000E+00  0.45593999997E+02  0.45594000000E+02  0.51100000000E-03 0. -1.
         11   -1    0    0    0    0 -0.00000000000E+00 -0.00000000000E+00 -0.45593999997E+02  0.45594000000E+02  0.51100000000E-03 0.  1.
         23    2    1    2    0    0 -0.44408920985E-15 -0.22204460493E-15 -0.71054273576E-14  0.91188000000E+02  0.91188000000E+02 0.  0.
    9900012    2    3    3    0    0  0.37899483433E+01 -0.86112229007E+00  0.44877702082E+02  0.46142318917E+02  0.10000010541E+02 0.  0.
        -12    1    3    3    0    0 -0.37899483433E+01  0.86112229007E+00 -0.44877702082E+02  0.45045681083E+02  0.00000000000E+00 0.  1.
         11    1    4    4    0    0 -0.74236876571E+00 -0.12450125857E+01  0.36013432242E+02  0.36042592440E+02  0.51100000000E-03 0. -1.
        -11    1    4    4    0    0  0.23321728340E+01 -0.17863366346E-01  0.28473820542E+01  0.36806159880E+01  0.51100000000E-03 0.  1.
         12    1    4    4    0    0  0.22001442750E+01  0.40175366194E+00  0.60168877864E+01  0.64191104890E+01  0.00000000000E+00 0. -1.
</event>
<event>
 8    1  0.2882335E-009  0.9118800E+02  0.7816164E-02  0.1184000E+00
        -11   -1    0    0    0    0  0.00000000000E+00  0.00000000000E+00  0.45593999997E+02  0.45594000000E+02  0.51100000000E-03 0.  1.
         11   -1    0    0    0    0 -0.00000000000E+00 -0.00000000000E+00 -0.45593999997E+02  0.45594000000E+02  0.51100000000E-03 0. -1.
         23    2    1    2    0    0  0.00000000000E+00  0.00000000000E+00  0.00000000000E+00  0.91188000000E+02  0.91188000000E+02 0.  0.
    9900012    2    3    3    0    0  0.44469657027E+02 -0.55688071783E+01 -0.45333772903E+01  0.46142317419E+02  0.99999968818E+01 0.  0.
         12    1    3    3    0    0 -0.44469657027E+02  0.55688071783E+01  0.45333772903E+01  0.45045682581E+02  0.00000000000E+00 0. -1.
         11    1    4    4    0    0  0.10337510573E+02 -0.46642681568E+01 -0.20885118481E+00  0.11342977623E+02  0.51100000000E-03 0. -1.
        -11    1    4    4    0    0  0.14697725816E+02  0.12132565197E+01  0.13216469903E+00  0.14748308490E+02  0.51100000000E-03 0.  1.
        -12    1    4    4    0    0  0.19434420639E+02 -0.21177955412E+01 -0.44566908045E+01  0.20051031306E+02  0.00000000000E+00 0.  1.
</event>
<event>
 8    1  0.2882335E-009  0.9118800E+02  0.7816164E-02  0.1184000E+00
        -11   -1    0    0    0    0  0.00000000000E+00  0.00000000000E+00  0.45593999997E+02  0.45594000000E+02  0.51100000000E-03 0. -1.
         11   -1    0    0    0    0 -0.00000000000E+00 -0.00000000000E+00 -0.45593999997E+02  0.45594000000E+02  0.51100000000E-03 0.  1.
         23    2    1    2    0    0  0.00000000000E+00  0.00000000000E+00  0.00000000000E+00  0.91188000000E+02  0.91188000000E+02 0.  0.
    9900012    2    3    3    0    0 -0.15941706779E+02 -0.15989622000E+01  0.42100101732E+02  0.46142320285E+02  0.10000023013E+02 0.  0.
        -12    1    3    3    0    0  0.15941706779E+02  0.15989622000E+01 -0.42100101732E+02  0.45045679715E+02  0.00000000000E+00 0.  1.
         11    1    4    4    0    0 -0.57902441969E+01 -0.35963009941E+00  0.17095224749E+02  0.18052782920E+02  0.51100000000E-03 0. -1.
        -11    1    4    4    0    0 -0.57522856245E+01 -0.23516056498E+01  0.21430086391E+02  0.22312943375E+02  0.51100000000E-03 0.  1.
        -12    1    4    4    0    0 -0.43991769578E+01  0.11122735492E+01  0.35747905918E+01  0.57765939903E+01  0.00000000000E+00 0.  1.
</event>
<event>
 8    1  0.2882335E-009  0.9118800E+02  0.7816164E-02  0.1184000E+00
        -11   -1    0    0    0    0  0.00000000000E+00  0.00000000000E+00  0.45593999997E+02  0.45594000000E+02  0.51100000000E-03 0. -1.
         11   -1    0    0    0    0 -0.00000000000E+00 -0.00000000000E+00 -0.45593999997E+02  0.45594000000E+02  0.51100000000E-03 0.  1.
         23    2    1    2    0    0 -0.88817841970E-15  0.00000000000E+00 -0.14210854715E-13  0.91188000000E+02  0.91188000000E+02 0.  0.
    9900012    2    3    3    0    0  0.63764392667E+01  0.11078419747E+02  0.43194017529E+02  0.46142317497E+02  0.99999975951E+01 0.  0.
        -12    1    3    3    0    0 -0.63764392667E+01 -0.11078419747E+02 -0.43194017529E+02  0.45045682503E+02  0.00000000000E+00 0.  1.
         11    1    4    4    0    0  0.20558623827E+01  0.19872184135E+01  0.76534111512E+01  0.81700862707E+01  0.51100000000E-03 0. -1.
        -11    1    4    4    0    0  0.56348409948E+01  0.72864922268E+01  0.34083578973E+02  0.35306299125E+02  0.51100000000E-03 0.  1.
        -12    1    4    4    0    0 -0.13142641108E+01  0.18047091071E+01  0.14570274049E+01  0.26659321021E+01  0.00000000000E+00 0.  1.
</event>
<event>
 8    1  0.2882335E-009  0.9118800E+02  0.7816164E-02  0.1184000E+00
        -11   -1    0    0    0    0  0.00000000000E+00  0.00000000000E+00  0.45593999997E+02  0.45594000000E+02  0.51100000000E-03 0. -1.
         11   -1    0    0    0    0 -0.00000000000E+00 -0.00000000000E+00 -0.45593999997E+02  0.45594000000E+02  0.51100000000E-03 0.  1.
         23    2    1    2    0    0 -0.35527136788E-14  0.22204460493E-15  0.00000000000E+00  0.91188000000E+02  0.91188000000E+02 0.  0.
    9900012    2    3    3    0    0 -0.22860755686E+02  0.13978685527E+01 -0.38788471016E+02  0.46142315736E+02  0.99999815339E+01 0.  0.
         12    1    3    3    0    0  0.22860755686E+02 -0.13978685527E+01  0.38788471016E+02  0.45045684264E+02  0.00000000000E+00 0. -1.
         11    1    4    4    0    0 -0.11673541521E+02  0.31458742163E+01 -0.19459139001E+02  0.22909085253E+02  0.51100000000E-03 0. -1.
        -11    1    4    4    0    0 -0.86641170303E+01 -0.18438188997E+01 -0.18605545526E+02  0.20606623125E+02  0.51100000000E-03 0.  1.
        -12    1    4    4    0    0 -0.25230971352E+01  0.95813236152E-01 -0.72378648971E+00  0.26266073579E+01  0.00000000000E+00 0.  1.
</event>
<event>
 8    1  0.4401300E-009  0.9118800E+02  0.7816164E-02  0.1184000E+00
        -11   -1    0    0    0    0  0.00000000000E+00  0.00000000000E+00  0.45593999997E+02  0.45594000000E+02  0.51100000000E-03 0. -1.
         11   -1    0    0    0    0 -0.00000000000E+00 -0.00000000000E+00 -0.45593999997E+02  0.45594000000E+02  0.51100000000E-03 0.  1.
         23    2    1    2    0    0 -0.17347234760E-16 -0.88817841970E-15  0.00000000000E+00  0.91188000000E+02  0.91188000000E+02 0.  0.
    9900012    2    3    3    0    0  0.27142441639E-01  0.55262878141E+01  0.44705401239E+02  0.46142317702E+02  0.99999994647E+01 0.  0.
        -12    1    3    3    0    0 -0.27142441639E-01 -0.55262878141E+01 -0.44705401239E+02  0.45045682298E+02  0.00000000000E+00 0.  1.
         11    1    4    4    0    0  0.60487573829E+00  0.75177502763E+01  0.33552991912E+02  0.34390197882E+02  0.51100000000E-03 0. -1.
        -11    1    4    4    0    0  0.39320969547E+00 -0.93063520349E+00  0.76918335856E+00  0.12697791331E+01  0.51100000000E-03 0.  1.
         12    1    4    4    0    0 -0.97094299212E+00 -0.10608272588E+01  0.10383225969E+02  0.10482340687E+02  0.00000000000E+00 0. -1.
</event>
<event>
 8    1  0.2882335E-009  0.9118800E+02  0.7816164E-02  0.1184000E+00
        -11   -1    0    0    0    0  0.00000000000E+00  0.00000000000E+00  0.45593999997E+02  0.45594000000E+02  0.51100000000E-03 0. -1.
         11   -1    0    0    0    0 -0.00000000000E+00 -0.00000000000E+00 -0.45593999997E+02  0.45594000000E+02  0.51100000000E-03 0.  1.
         23    2    1    2    0    0  0.00000000000E+00 -0.88817841970E-15  0.00000000000E+00  0.91188000000E+02  0.91188000000E+02 0.  0.
    9900012    2    3    3    0    0 -0.32607216794E+02  0.62291309740E+01  0.30448001757E+02  0.46142317957E+02  0.10000001785E+02 0.  0.
        -12    1    3    3    0    0  0.32607216794E+02 -0.62291309740E+01 -0.30448001757E+02  0.45045682043E+02  0.00000000000E+00 0.  1.
         11    1    4    4    0    0 -0.13142984245E+02  0.48286588102E+01  0.14145043547E+02  0.19903171556E+02  0.51100000000E-03 0.  1.
        -11    1    4    4    0    0 -0.64833525533E+01  0.13968356894E+01  0.94934435809E+01  0.11580607996E+02  0.51100000000E-03 0. -1.
        -12    1    4    4    0    0 -0.12980879996E+02  0.36364744366E-02  0.68095146289E+01  0.14658538405E+02  0.00000000000E+00 0.  1.
</event>
<event>
 8    1  0.2882335E-009  0.9118800E+02  0.7816164E-02  0.1184000E+00
        -11   -1    0    0    0    0  0.00000000000E+00  0.00000000000E+00  0.45593999997E+02  0.45594000000E+02  0.51100000000E-03 0. -1.
         11   -1    0    0    0    0 -0.00000000000E+00 -0.00000000000E+00 -0.45593999997E+02  0.45594000000E+02  0.51100000000E-03 0.  1.
         23    2    1    2    0    0  0.71054273576E-14  0.00000000000E+00  0.35527136788E-14  0.91188000000E+02  0.91188000000E+02 0.  0.
    9900012    2    3    3    0    0  0.37216345692E+02  0.42564289935E+01 -0.25018790580E+02  0.46142318115E+02  0.10000003225E+02 0.  0.
         12    1    3    3    0    0 -0.37216345692E+02 -0.42564289935E+01  0.25018790580E+02  0.45045681885E+02  0.00000000000E+00 0. -1.
         11    1    4    4    0    0  0.11720330800E+02 -0.19288887550E+01 -0.75224652624E+01  0.14059667485E+02  0.51100000000E-03 0. -1.
        -11    1    4    4    0    0  0.14578995689E+02  0.53858843570E+01 -0.74926525213E+01  0.17253831681E+02  0.51100000000E-03 0.  1.
         12    1    4    4    0    0  0.10917019203E+02  0.79943339143E+00 -0.10003672796E+02  0.14828818949E+02  0.00000000000E+00 0. -1.
</event>
<event>
 8    1  0.2882335E-009  0.9118800E+02  0.7816164E-02  0.1184000E+00
        -11   -1    0    0    0    0  0.00000000000E+00  0.00000000000E+00  0.45593999997E+02  0.45594000000E+02  0.51100000000E-03 0. -1.
         11   -1    0    0    0    0 -0.00000000000E+00 -0.00000000000E+00 -0.45593999997E+02  0.45594000000E+02  0.51100000000E-03 0.  1.
         23    2    1    2    0    0  0.88817841970E-15 -0.35527136788E-14 -0.71054273576E-14  0.91188000000E+02  0.91188000000E+02 0.  0.
    9900012    2    3    3    0    0 -0.49682192097E+01  0.27315651701E+02  0.35472319168E+02  0.46142318108E+02  0.10000003160E+02 0.  0.
        -12    1    3    3    0    0  0.49682192097E+01 -0.27315651701E+02 -0.35472319168E+02  0.45045681892E+02  0.00000000000E+00 0.  1.
         11    1    4    4    0    0 -0.21294977325E+01  0.10824329795E+01  0.13574635484E+01  0.27475678871E+01  0.51100000000E-03 0. -1.
        -11    1    4    4    0    0 -0.62414342776E-01 -0.16796412420E+00  0.14995109154E-01  0.17981271263E+00  0.51100000000E-03 0.  1.
         12    1    4    4    0    0 -0.27763071344E+01  0.26401182846E+02  0.34099860511E+02  0.43214937508E+02  0.00000000000E+00 0. -1.
</event>
<event>
 8    1  0.2895223E-009  0.9118800E+02  0.7816164E-02  0.1184000E+00
        -11   -1    0    0    0    0  0.00000000000E+00  0.00000000000E+00  0.45593999997E+02  0.45594000000E+02  0.51100000000E-03 0. -1.
         11   -1    0    0    0    0 -0.00000000000E+00 -0.00000000000E+00 -0.45593999997E+02  0.45594000000E+02  0.51100000000E-03 0.  1.
         23    2    1    2    0    0  0.00000000000E+00  0.17763568394E-14 -0.71054273576E-14  0.91188000000E+02  0.91188000000E+02 0.  0.
    9900012    2    3    3    0    0  0.40149607419E+01  0.11056982462E+02  0.43482603896E+02  0.46142316384E+02  0.99999874390E+01 0.  0.
        -12    1    3    3    0    0 -0.40149607419E+01 -0.11056982462E+02 -0.43482603896E+02  0.45045683616E+02  0.00000000000E+00 0.  1.
         11    1    4    4    0    0 -0.21857745869E+01  0.13947380761E+01  0.64859110636E+01  0.69849801311E+01  0.51100000000E-03 0. -1.
        -11    1    4    4    0    0  0.29980122254E+00 -0.64856869937E+00  0.86073521764E+00  0.11186543286E+01  0.51100000000E-03 0.  1.
         12    1    4    4    0    0  0.59009341062E+01  0.10310813085E+02  0.36135957614E+02  0.38038681924E+02  0.00000000000E+00 0. -1.
</event>
<event>
 8    1  0.2882335E-009  0.9118800E+02  0.7816164E-02  0.1184000E+00
        -11   -1    0    0    0    0  0.00000000000E+00  0.00000000000E+00  0.45593999997E+02  0.45594000000E+02  0.51100000000E-03 0. -1.
         11   -1    0    0    0    0 -0.00000000000E+00 -0.00000000000E+00 -0.45593999997E+02  0.45594000000E+02  0.51100000000E-03 0.  1.
         23    2    1    2    0    0  0.35527136788E-14  0.00000000000E+00  0.35527136788E-14  0.91188000000E+02  0.91188000000E+02 0.  0.
    9900012    2    3    3    0    0 -0.31846684781E+02 -0.22694349495E+02  0.22357741855E+02  0.46142318171E+02  0.10000003740E+02 0.  0.
        -12    1    3    3    0    0  0.31846684781E+02  0.22694349495E+02 -0.22357741855E+02  0.45045681829E+02  0.00000000000E+00 0.  1.
         11    1    4    4    0    0 -0.95133600829E+01 -0.28686817039E+01  0.90246990849E+01  0.13423060330E+02  0.51100000000E-03 0. -1.
        -11    1    4    4    0    0 -0.13238151500E+02 -0.12081791006E+02  0.75535474655E+01  0.19449277843E+02  0.51100000000E-03 0.  1.
         12    1    4    4    0    0 -0.90951731982E+01 -0.77438767858E+01  0.57794953049E+01  0.13269979998E+02  0.00000000000E+00 0. -1.
</event>
<event>
 8    1  0.2882335E-009  0.9118800E+02  0.7816164E-02  0.1184000E+00
        -11   -1    0    0    0    0  0.00000000000E+00  0.00000000000E+00  0.45593999997E+02  0.45594000000E+02  0.51100000000E-03 0. -1.
         11   -1    0    0    0    0 -0.00000000000E+00 -0.00000000000E+00 -0.45593999997E+02  0.45594000000E+02  0.51100000000E-03 0.  1.
         23    2    1    2    0    0  0.35527136788E-14  0.00000000000E+00  0.00000000000E+00  0.91188000000E+02  0.91188000000E+02 0.  0.
    9900012    2    3    3    0    0  0.23824890486E+02  0.82665467570E+01  0.37324954436E+02  0.46142318458E+02  0.10000006354E+02 0.  0.
        -12    1    3    3    0    0 -0.23824890486E+02 -0.82665467570E+01 -0.37324954436E+02  0.45045681542E+02  0.00000000000E+00 0.  1.
         11    1    4    4    0    0  0.56170523873E+01  0.42963935343E+00  0.11604194068E+02  0.12899348345E+02  0.51100000000E-03 0. -1.
        -11    1    4    4    0    0  0.93439075198E+01  0.39888207450E+00  0.13394327084E+02  0.16336331074E+02  0.51100000000E-03 0.  1.
        -12    1    4    4    0    0  0.88639305790E+01  0.74380253291E+01  0.12326433283E+02  0.16906639039E+02  0.00000000000E+00 0.  1.
</event>
<event>
 8    1  0.2882335E-009  0.9118800E+02  0.7816164E-02  0.1184000E+00
        -11   -1    0    0    0    0  0.00000000000E+00  0.00000000000E+00  0.45593999997E+02  0.45594000000E+02  0.51100000000E-03 0. -1.
         11   -1    0    0    0    0 -0.00000000000E+00 -0.00000000000E+00 -0.45593999997E+02  0.45594000000E+02  0.51100000000E-03 0.  1.
         23    2    1    2    0    0  0.88817841970E-15  0.00000000000E+00 -0.35527136788E-14  0.91188000000E+02  0.91188000000E+02 0.  0.
    9900012    2    3    3    0    0 -0.48568476544E+01  0.32516655481E+02  0.30792720782E+02  0.46142317566E+02  0.99999982174E+01 0.  0.
        -12    1    3    3    0    0  0.48568476544E+01 -0.32516655481E+02 -0.30792720782E+02  0.45045682434E+02  0.00000000000E+00 0.  1.
         11    1    4    4    0    0 -0.10784068258E+01  0.61882128573E+01  0.49115727892E+01  0.79737373404E+01  0.51100000000E-03 0. -1.
        -11    1    4    4    0    0 -0.19228050444E+01  0.62308227715E+01  0.12049637125E+02  0.13700879050E+02  0.51100000000E-03 0.  1.
        -12    1    4    4    0    0 -0.18556357842E+01  0.20097619852E+02  0.13831510868E+02  0.24467701175E+02  0.00000000000E+00 0.  1.
</event>
<event>
 8    1  0.2882335E-009  0.9118800E+02  0.7816164E-02  0.1184000E+00
        -11   -1    0    0    0    0  0.00000000000E+00  0.00000000000E+00  0.45593999997E+02  0.45594000000E+02  0.51100000000E-03 0. -1.
         11   -1    0    0    0    0 -0.00000000000E+00 -0.00000000000E+00 -0.45593999997E+02  0.45594000000E+02  0.51100000000E-03 0.  1.
         23    2    1    2    0    0  0.00000000000E+00  0.71054273576E-14  0.44408920985E-15  0.91188000000E+02  0.91188000000E+02 0.  0.
    9900012    2    3    3    0    0  0.38493490159E+01 -0.44777750132E+02  0.30412403778E+01  0.46142317213E+02  0.99999950010E+01 0.  0.
        -12    1    3    3    0    0 -0.38493490159E+01  0.44777750132E+02 -0.30412403778E+01  0.45045682787E+02  0.00000000000E+00 0.  1.
         11    1    4    4    0    0  0.45386262795E+01 -0.31701081221E+02  0.37363700122E+01  0.32241559209E+02  0.51100000000E-03 0. -1.
        -11    1    4    4    0    0  0.49331305939E+00 -0.35464334576E+01 -0.21670390456E+01  0.41852845220E+01  0.51100000000E-03 0.  1.
         12    1    4    4    0    0 -0.11825903230E+01 -0.95302354535E+01  0.14719094112E+01  0.97154734823E+01  0.00000000000E+00 0. -1.
</event>
<event>
 8    1  0.2882335E-009  0.9118800E+02  0.7816164E-02  0.1184000E+00
        -11   -1    0    0    0    0  0.00000000000E+00  0.00000000000E+00  0.45593999997E+02  0.45594000000E+02  0.51100000000E-03 0. -1.
         11   -1    0    0    0    0 -0.00000000000E+00 -0.00000000000E+00 -0.45593999997E+02  0.45594000000E+02  0.51100000000E-03 0.  1.
         23    2    1    2    0    0  0.88817841970E-15  0.17763568394E-14 -0.71054273576E-14  0.91188000000E+02  0.91188000000E+02 0.  0.
    9900012    2    3    3    0    0  0.39551676406E+01  0.12249321255E+02 -0.43167398304E+02  0.46142317647E+02  0.99999989623E+01 0.  0.
         12    1    3    3    0    0 -0.39551676406E+01 -0.12249321255E+02  0.43167398304E+02  0.45045682353E+02  0.00000000000E+00 0. -1.
         11    1    4    4    0    0  0.33555407242E+01  0.37921011656E+01 -0.59733048665E+01  0.78307123617E+01  0.51100000000E-03 0. -1.
        -11    1    4    4    0    0 -0.34270685174E+00  0.62053474279E+01 -0.19950483998E+02  0.20896066537E+02  0.51100000000E-03 0.  1.
         12    1    4    4    0    0  0.94233376807E+00  0.22518726617E+01 -0.17243609439E+02  0.17415538749E+02  0.00000000000E+00 0. -1.
</event>
<event>
 8    1  0.2882335E-009  0.9118800E+02  0.7816164E-02  0.1184000E+00
        -11   -1    0    0    0    0  0.00000000000E+00  0.00000000000E+00  0.45593999997E+02  0.45594000000E+02  0.51100000000E-03 0. -1.
         11   -1    0    0    0    0 -0.00000000000E+00 -0.00000000000E+00 -0.45593999997E+02  0.45594000000E+02  0.51100000000E-03 0.  1.
         23    2    1    2    0    0  0.00000000000E+00  0.00000000000E+00 -0.35527136788E-14  0.91188000000E+02  0.91188000000E+02 0.  0.
    9900012    2    3    3    0    0  0.35550283162E+02 -0.29313609797E+01 -0.27508146576E+02  0.46142316099E+02  0.99999848443E+01 0.  0.
         12    1    3    3    0    0 -0.35550283162E+02  0.29313609797E+01  0.27508146576E+02  0.45045683901E+02  0.00000000000E+00 0. -1.
         11    1    4    4    0    0  0.17807645459E+02 -0.14575163496E+01 -0.76695100659E+01  0.19443713010E+02  0.51100000000E-03 0. -1.
        -11    1    4    4    0    0  0.17612517481E+01 -0.42505390822E-01 -0.26745575735E+01  0.32026665302E+01  0.51100000000E-03 0.  1.
         12    1    4    4    0    0  0.15981385955E+02 -0.14313392393E+01 -0.17164078936E+02  0.23495936559E+02  0.00000000000E+00 0. -1.
</event>
<event>
 8    1  0.2882335E-009  0.9118800E+02  0.7816164E-02  0.1184000E+00
        -11   -1    0    0    0    0  0.00000000000E+00  0.00000000000E+00  0.45593999997E+02  0.45594000000E+02  0.51100000000E-03 0. -1.
         11   -1    0    0    0    0 -0.00000000000E+00 -0.00000000000E+00 -0.45593999997E+02  0.45594000000E+02  0.51100000000E-03 0.  1.
         23    2    1    2    0    0 -0.17763568394E-14  0.00000000000E+00  0.00000000000E+00  0.91188000000E+02  0.91188000000E+02 0.  0.
    9900012    2    3    3    0    0 -0.78667907586E+01 -0.63128854645E+01 -0.43901873941E+02  0.46142318129E+02  0.10000003351E+02 0.  0.
         12    1    3    3    0    0  0.78667907586E+01  0.63128854645E+01  0.43901873941E+02  0.45045681871E+02  0.00000000000E+00 0. -1.
         11    1    4    4    0    0 -0.50092989323E+01 -0.51359986800E+01 -0.14565784350E+02  0.16236798706E+02  0.51100000000E-03 0. -1.
        -11    1    4    4    0    0 -0.33951904798E+01 -0.12637704860E+01 -0.29077974982E+02  0.29302782522E+02  0.51100000000E-03 0.  1.
         12    1    4    4    0    0  0.53769865356E+00  0.86883701575E-01 -0.25811460963E+00  0.60273690060E+00  0.00000000000E+00 0. -1.
</event>
<event>
 8    1  0.2882335E-009  0.9118800E+02  0.7816164E-02  0.1184000E+00
        -11   -1    0    0    0    0  0.00000000000E+00  0.00000000000E+00  0.45593999997E+02  0.45594000000E+02  0.51100000000E-03 0. -1.
         11   -1    0    0    0    0 -0.00000000000E+00 -0.00000000000E+00 -0.45593999997E+02  0.45594000000E+02  0.51100000000E-03 0.  1.
         23    2    1    2    0    0  0.88817841970E-15  0.00000000000E+00  0.00000000000E+00  0.91188000000E+02  0.91188000000E+02 0.  0.
    9900012    2    3    3    0    0  0.72157150506E+01 -0.22162212530E+02  0.38547155473E+02  0.46142318709E+02  0.10000008640E+02 0.  0.
        -12    1    3    3    0    0 -0.72157150506E+01  0.22162212530E+02 -0.38547155473E+02  0.45045681291E+02  0.00000000000E+00 0.  1.
         11    1    4    4    0    0  0.45581459451E+00  0.32001626493E+00 -0.10143128332E+00  0.56609709481E+00  0.51100000000E-03 0. -1.
        -11    1    4    4    0    0  0.26252343904E+01 -0.89098306456E+01  0.10262789985E+02  0.13842030064E+02  0.51100000000E-03 0.  1.
         12    1    4    4    0    0  0.41346660658E+01 -0.13572398149E+02  0.28385796772E+02  0.31734191550E+02  0.00000000000E+00 0. -1.
</event>
<event>
 8    1  0.3601187E-009  0.9118800E+02  0.7816164E-02  0.1184000E+00
        -11   -1    0    0    0    0  0.00000000000E+00  0.00000000000E+00  0.45593999997E+02  0.45594000000E+02  0.51100000000E-03 0. -1.
         11   -1    0    0    0    0 -0.00000000000E+00 -0.00000000000E+00 -0.45593999997E+02  0.45594000000E+02  0.51100000000E-03 0.  1.
         23    2    1    2    0    0 -0.88817841970E-15  0.00000000000E+00  0.00000000000E+00  0.91188000000E+02  0.91188000000E+02 0.  0.
    9900012    2    3    3    0    0  0.61408616310E+01  0.24292597518E+02  0.37433585257E+02  0.46142314513E+02  0.99999703839E+01 0.  0.
        -12    1    3    3    0    0 -0.61408616310E+01 -0.24292597518E+02 -0.37433585257E+02  0.45045685487E+02  0.00000000000E+00 0.  1.
         11    1    4    4    0    0  0.50736431748E+01  0.15107580988E+02  0.16507013583E+02  0.22944767510E+02  0.51100000000E-03 0. -1.
        -11    1    4    4    0    0  0.14865517852E+01  0.11336071576E+01  0.51794900110E+01  0.55065432382E+01  0.51100000000E-03 0.  1.
         12    1    4    4    0    0 -0.41933332903E+00  0.80514093719E+01  0.15747081663E+02  0.17691003765E+02  0.00000000000E+00 0. -1.
</event>
<event>
 8    1  0.2882335E-009  0.9118800E+02  0.7816164E-02  0.1184000E+00
        -11   -1    0    0    0    0  0.00000000000E+00  0.00000000000E+00  0.45593999997E+02  0.45594000000E+02  0.51100000000E-03 0. -1.
         11   -1    0    0    0    0 -0.00000000000E+00 -0.00000000000E+00 -0.45593999997E+02  0.45594000000E+02  0.51100000000E-03 0.  1.
         23    2    1    2    0    0  0.00000000000E+00  0.00000000000E+00  0.00000000000E+00  0.91188000000E+02  0.91188000000E+02 0.  0.
    9900012    2    3    3    0    0 -0.27609613590E+01  0.25637365341E+02 -0.36935295721E+02  0.46142317862E+02  0.10000000924E+02 0.  0.
         12    1    3    3    0    0  0.27609613590E+01 -0.25637365341E+02  0.36935295721E+02  0.45045682138E+02  0.00000000000E+00 0. -1.
         11    1    4    4    0    0 -0.34616398523E+01  0.14656379736E+02 -0.16515456044E+02  0.22350675740E+02  0.51100000000E-03 0.  1.
        -11    1    4    4    0    0  0.18911834931E+01  0.84302491909E+01 -0.18398762745E+02  0.20326341216E+02  0.51100000000E-03 0. -1.
         12    1    4    4    0    0 -0.11905049998E+01  0.25507364134E+01 -0.20210769323E+01  0.34653009063E+01  0.00000000000E+00 0. -1.
</event>
<event>
 8    1  0.2882335E-009  0.9118800E+02  0.7816164E-02  0.1184000E+00
        -11   -1    0    0    0    0  0.00000000000E+00  0.00000000000E+00  0.45593999997E+02  0.45594000000E+02  0.51100000000E-03 0. -1.
         11   -1    0    0    0    0 -0.00000000000E+00 -0.00000000000E+00 -0.45593999997E+02  0.45594000000E+02  0.51100000000E-03 0.  1.
         23    2    1    2    0    0 -0.35527136788E-14  0.00000000000E+00  0.00000000000E+00  0.91188000000E+02  0.91188000000E+02 0.  0.
    9900012    2    3    3    0    0  0.23011641276E+02 -0.11849802938E+02 -0.36866787853E+02  0.46142317516E+02  0.99999977628E+01 0.  0.
         12    1    3    3    0    0 -0.23011641276E+02  0.11849802938E+02  0.36866787853E+02  0.45045682484E+02  0.00000000000E+00 0. -1.
         11    1    4    4    0    0 -0.58280972434E+00  0.32896432458E+00 -0.11913208455E+00  0.67976276474E+00  0.51100000000E-03 0. -1.
        -11    1    4    4    0    0  0.17157194048E+02 -0.71146586568E+01 -0.25222708446E+02  0.31323676301E+02  0.51100000000E-03 0.  1.
        -12    1    4    4    0    0  0.64372569526E+01 -0.50641086055E+01 -0.11524947322E+02  0.14138878450E+02  0.00000000000E+00 0.  1.
</event>
<event>
 8    1  0.2882335E-009  0.9118800E+02  0.7816164E-02  0.1184000E+00
        -11   -1    0    0    0    0  0.00000000000E+00  0.00000000000E+00  0.45593999997E+02  0.45594000000E+02  0.51100000000E-03 0. -1.
         11   -1    0    0    0    0 -0.00000000000E+00 -0.00000000000E+00 -0.45593999997E+02  0.45594000000E+02  0.51100000000E-03 0.  1.
         23    2    1    2    0    0  0.00000000000E+00 -0.35527136788E-14  0.00000000000E+00  0.91188000000E+02  0.91188000000E+02 0.  0.
    9900012    2    3    3    0    0 -0.32770196267E+02  0.28308745257E+02 -0.12403334921E+02  0.46142317204E+02  0.99999949178E+01 0.  0.
         12    1    3    3    0    0  0.32770196267E+02 -0.28308745257E+02  0.12403334921E+02  0.45045682796E+02  0.00000000000E+00 0. -1.
         11    1    4    4    0    0 -0.29226213124E+01  0.16467195238E+01  0.57093461236E+00  0.34028469138E+01  0.51100000000E-03 0. -1.
        -11    1    4    4    0    0 -0.24369291598E+02  0.17426022759E+02 -0.10211366056E+02  0.31651234402E+02  0.51100000000E-03 0.  1.
         12    1    4    4    0    0 -0.54782833566E+01  0.92360029749E+01 -0.27629034769E+01  0.11088235888E+02  0.00000000000E+00 0. -1.
</event>
<event>
 8    1  0.2882335E-009  0.9118800E+02  0.7816164E-02  0.1184000E+00
        -11   -1    0    0    0    0  0.00000000000E+00  0.00000000000E+00  0.45593999997E+02  0.45594000000E+02  0.51100000000E-03 0.  1.
         11   -1    0    0    0    0 -0.00000000000E+00 -0.00000000000E+00 -0.45593999997E+02  0.45594000000E+02  0.51100000000E-03 0. -1.
         23    2    1    2    0    0  0.00000000000E+00 -0.88817841970E-15  0.00000000000E+00  0.91188000000E+02  0.91188000000E+02 0.  0.
    9900012    2    3    3    0    0 -0.40265716741E+02  0.51240819690E+01 -0.19532775794E+02  0.46142317733E+02  0.99999997451E+01 0.  0.
         12    1    3    3    0    0  0.40265716741E+02 -0.51240819690E+01  0.19532775794E+02  0.45045682267E+02  0.00000000000E+00 0. -1.
         11    1    4    4    0    0 -0.73106625398E+01  0.35352759414E+01 -0.16776803991E+01  0.82920790237E+01  0.51100000000E-03 0. -1.
        -11    1    4    4    0    0 -0.18145815227E+02  0.24907857063E+00 -0.12542109427E+02  0.22059854023E+02  0.51100000000E-03 0.  1.
        -12    1    4    4    0    0 -0.14809238974E+02  0.13397274570E+01 -0.53129859679E+01  0.15790384686E+02  0.00000000000E+00 0.  1.
</event>
<event>
 8    1  0.2882335E-009  0.9118800E+02  0.7816164E-02  0.1184000E+00
        -11   -1    0    0    0    0  0.00000000000E+00  0.00000000000E+00  0.45593999997E+02  0.45594000000E+02  0.51100000000E-03 0. -1.
         11   -1    0    0    0    0 -0.00000000000E+00 -0.00000000000E+00 -0.45593999997E+02  0.45594000000E+02  0.51100000000E-03 0.  1.
         23    2    1    2    0    0 -0.88817841970E-15  0.00000000000E+00  0.00000000000E+00  0.91188000000E+02  0.91188000000E+02 0.  0.
    9900012    2    3    3    0    0  0.68690410886E+01 -0.53010344408E+01 -0.44202146122E+02  0.46142307494E+02  0.99999063717E+01 0.  0.
         12    1    3    3    0    0 -0.68690410886E+01  0.53010344408E+01  0.44202146122E+02  0.45045692506E+02  0.00000000000E+00 0. -1.
         11    1    4    4    0    0  0.17332291255E+01  0.11097201439E+00 -0.23797581560E+01  0.29461240862E+01  0.51100000000E-03 0. -1.
        -11    1    4    4    0    0  0.61651683589E+00 -0.19044732852E+01 -0.29955928782E+02  0.30022737733E+02  0.51100000000E-03 0.  1.
        -12    1    4    4    0    0  0.45192951272E+01 -0.35075331700E+01 -0.11866459183E+02  0.13173445674E+02  0.00000000000E+00 0.  1.
</event>
<event>
 8    1  0.2882335E-009  0.9118800E+02  0.7816164E-02  0.1184000E+00
        -11   -1    0    0    0    0  0.00000000000E+00  0.00000000000E+00  0.45593999997E+02  0.45594000000E+02  0.51100000000E-03 0. -1.
         11   -1    0    0    0    0 -0.00000000000E+00 -0.00000000000E+00 -0.45593999997E+02  0.45594000000E+02  0.51100000000E-03 0.  1.
         23    2    1    2    0    0 -0.17763568394E-14 -0.88817841970E-15  0.00000000000E+00  0.91188000000E+02  0.91188000000E+02 0.  0.
    9900012    2    3    3    0    0 -0.14848263782E+02 -0.25795107292E+01  0.42449837517E+02  0.46142317430E+02  0.99999969844E+01 0.  0.
        -12    1    3    3    0    0  0.14848263782E+02  0.25795107292E+01 -0.42449837517E+02  0.45045682570E+02  0.00000000000E+00 0.  1.
         11    1    4    4    0    0 -0.96529578371E+01 -0.48663583978E+01  0.24299819076E+02  0.26595906573E+02  0.51100000000E-03 0. -1.
        -11    1    4    4    0    0 -0.40823815761E+01  0.24390199453E+01  0.77981161781E+01  0.91337436911E+01  0.51100000000E-03 0.  1.
         12    1    4    4    0    0 -0.11129243689E+01 -0.15217227671E+00  0.10351902263E+02  0.10412667166E+02  0.00000000000E+00 0. -1.
</event>
<event>
 8    1  0.2882335E-009  0.9118800E+02  0.7816164E-02  0.1184000E+00
        -11   -1    0    0    0    0  0.00000000000E+00  0.00000000000E+00  0.45593999997E+02  0.45594000000E+02  0.51100000000E-03 0. -1.
         11   -1    0    0    0    0 -0.00000000000E+00 -0.00000000000E+00 -0.45593999997E+02  0.45594000000E+02  0.51100000000E-03 0.  1.
         23    2    1    2    0    0 -0.44408920985E-15  0.00000000000E+00 -0.71054273576E-14  0.91188000000E+02  0.91188000000E+02 0.  0.
    9900012    2    3    3    0    0 -0.29648541183E+01  0.71309213195E+01 -0.44378745181E+02  0.46142318491E+02  0.10000006654E+02 0.  0.
         12    1    3    3    0    0  0.29648541183E+01 -0.71309213195E+01  0.44378745181E+02  0.45045681509E+02  0.00000000000E+00 0. -1.
         11    1    4    4    0    0 -0.48053986171E+00 -0.53064318256E+00 -0.82433710523E+00  0.10918024867E+01  0.51100000000E-03 0. -1.
        -11    1    4    4    0    0  0.20459570933E+01  0.56594249814E+01 -0.30501384570E+02  0.31089379094E+02  0.51100000000E-03 0.  1.
        -12    1    4    4    0    0 -0.45302713498E+01  0.20021395207E+01 -0.13053023506E+02  0.13961136910E+02  0.00000000000E+00 0.  1.
</event>
<event>
 8    1  0.2882335E-009  0.9118800E+02  0.7816164E-02  0.1184000E+00
        -11   -1    0    0    0    0  0.00000000000E+00  0.00000000000E+00  0.45593999997E+02  0.45594000000E+02  0.51100000000E-03 0. -1.
         11   -1    0    0    0    0 -0.00000000000E+00 -0.00000000000E+00 -0.45593999997E+02  0.45594000000E+02  0.51100000000E-03 0.  1.
         23    2    1    2    0    0  0.00000000000E+00  0.35527136788E-14  0.00000000000E+00  0.91188000000E+02  0.91188000000E+02 0.  0.
    9900012    2    3    3    0    0 -0.90516394323E+01  0.21763758393E+02 -0.38386456768E+02  0.46142318531E+02  0.10000007024E+02 0.  0.
         12    1    3    3    0    0  0.90516394323E+01 -0.21763758393E+02  0.38386456768E+02  0.45045681469E+02  0.00000000000E+00 0. -1.
         11    1    4    4    0    0 -0.46328140945E+01  0.88606056694E+01 -0.11622515807E+02  0.15331541775E+02  0.51100000000E-03 0. -1.
        -11    1    4    4    0    0  0.10711433938E+01  0.72001700253E+01 -0.11367307942E+02  0.13498351258E+02  0.51100000000E-03 0.  1.
        -12    1    4    4    0    0 -0.54899687315E+01  0.57029826982E+01 -0.15396633018E+02  0.17312425498E+02  0.00000000000E+00 0.  1.
</event>
<event>
 8    1  0.2882335E-009  0.9118800E+02  0.7816164E-02  0.1184000E+00
        -11   -1    0    0    0    0  0.00000000000E+00  0.00000000000E+00  0.45593999997E+02  0.45594000000E+02  0.51100000000E-03 0. -1.
         11   -1    0    0    0    0 -0.00000000000E+00 -0.00000000000E+00 -0.45593999997E+02  0.45594000000E+02  0.51100000000E-03 0.  1.
         23    2    1    2    0    0  0.88817841970E-15  0.00000000000E+00  0.00000000000E+00  0.91188000000E+02  0.91188000000E+02 0.  0.
    9900012    2    3    3    0    0 -0.42040549161E+01 -0.40414232767E+02  0.19445547062E+02  0.46142316650E+02  0.99999898709E+01 0.  0.
        -12    1    3    3    0    0  0.42040549161E+01  0.40414232767E+02 -0.19445547062E+02  0.45045683350E+02  0.00000000000E+00 0.  1.
         11    1    4    4    0    0  0.15133445492E+01 -0.20731779165E+02  0.83508397962E+01  0.22401638436E+02  0.51100000000E-03 0. -1.
        -11    1    4    4    0    0 -0.34223121797E+01 -0.46045224663E+01  0.30037889124E+01  0.64758471176E+01  0.51100000000E-03 0.  1.
         12    1    4    4    0    0 -0.22950872855E+01 -0.15077931136E+02  0.80909183531E+01  0.17264831096E+02  0.00000000000E+00 0. -1.
</event>
<event>
 8    1  0.2882335E-009  0.9118800E+02  0.7816164E-02  0.1184000E+00
        -11   -1    0    0    0    0  0.00000000000E+00  0.00000000000E+00  0.45593999997E+02  0.45594000000E+02  0.51100000000E-03 0. -1.
         11   -1    0    0    0    0 -0.00000000000E+00 -0.00000000000E+00 -0.45593999997E+02  0.45594000000E+02  0.51100000000E-03 0.  1.
         23    2    1    2    0    0 -0.35527136788E-14  0.17763568394E-14  0.00000000000E+00  0.91188000000E+02  0.91188000000E+02 0.  0.
    9900012    2    3    3    0    0  0.16841239572E+02 -0.12512260882E+02  0.39861378325E+02  0.46142317580E+02  0.99999983527E+01 0.  0.
        -12    1    3    3    0    0 -0.16841239572E+02  0.12512260882E+02 -0.39861378325E+02  0.45045682420E+02  0.00000000000E+00 0.  1.
         11    1    4    4    0    0  0.55339858322E+01 -0.39258003764E+01  0.15078846189E+02  0.16535069109E+02  0.51100000000E-03 0. -1.
        -11    1    4    4    0    0 -0.91794855435E-01 -0.25361716222E+01  0.13963477117E+01  0.28966152637E+01  0.51100000000E-03 0.  1.
        -12    1    4    4    0    0  0.11399048595E+02 -0.60502888831E+01  0.23386184424E+02  0.26710633208E+02  0.00000000000E+00 0.  1.
</event>
<event>
 8    1  0.2882335E-009  0.9118800E+02  0.7816164E-02  0.1184000E+00
        -11   -1    0    0    0    0  0.00000000000E+00  0.00000000000E+00  0.45593999997E+02  0.45594000000E+02  0.51100000000E-03 0. -1.
         11   -1    0    0    0    0 -0.00000000000E+00 -0.00000000000E+00 -0.45593999997E+02  0.45594000000E+02  0.51100000000E-03 0.  1.
         23    2    1    2    0    0  0.00000000000E+00  0.00000000000E+00  0.00000000000E+00  0.91188000000E+02  0.91188000000E+02 0.  0.
    9900012    2    3    3    0    0 -0.31834609100E+02 -0.54223613636E+01  0.31404924642E+02  0.46142316177E+02  0.99999855533E+01 0.  0.
        -12    1    3    3    0    0  0.31834609100E+02  0.54223613636E+01 -0.31404924642E+02  0.45045683823E+02  0.00000000000E+00 0.  1.
         11    1    4    4    0    0 -0.20023442865E+02 -0.45490619122E+01  0.18585384001E+02  0.27695644552E+02  0.51100000000E-03 0. -1.
        -11    1    4    4    0    0 -0.66263331506E+01 -0.25977588925E+01  0.42693086222E+01  0.82996167778E+01  0.51100000000E-03 0.  1.
         12    1    4    4    0    0 -0.51848330844E+01  0.17244594411E+01  0.85502320196E+01  0.10147054847E+02  0.00000000000E+00 0. -1.
</event>
<event>
 8    1  0.2882335E-009  0.9118800E+02  0.7816164E-02  0.1184000E+00
        -11   -1    0    0    0    0  0.00000000000E+00  0.00000000000E+00  0.45593999997E+02  0.45594000000E+02  0.51100000000E-03 0.  1.
         11   -1    0    0    0    0 -0.00000000000E+00 -0.00000000000E+00 -0.45593999997E+02  0.45594000000E+02  0.51100000000E-03 0. -1.
         23    2    1    2    0    0  0.00000000000E+00 -0.17763568394E-14 -0.11102230246E-15  0.91188000000E+02  0.91188000000E+02 0.  0.
    9900012    2    3    3    0    0 -0.42519744863E+02 -0.14871496901E+02  0.15255231226E+00  0.46142318792E+02  0.10000009398E+02 0.  0.
        -12    1    3    3    0    0  0.42519744863E+02  0.14871496901E+02 -0.15255231226E+00  0.45045681208E+02  0.00000000000E+00 0.  1.
         11    1    4    4    0    0 -0.19077923830E+02 -0.91899079488E+01  0.44503273385E+01  0.21638553543E+02  0.51100000000E-03 0. -1.
        -11    1    4    4    0    0 -0.15315660259E+02 -0.38791172302E+01 -0.27094569163E+01  0.16029914432E+02  0.51100000000E-03 0.  1.
         12    1    4    4    0    0 -0.81261607740E+01 -0.18024717223E+01 -0.15883181100E+01  0.84738508160E+01  0.00000000000E+00 0. -1.
</event>
<event>
 8    1  0.2882335E-009  0.9118800E+02  0.7816164E-02  0.1184000E+00
        -11   -1    0    0    0    0  0.00000000000E+00  0.00000000000E+00  0.45593999997E+02  0.45594000000E+02  0.51100000000E-03 0. -1.
         11   -1    0    0    0    0 -0.00000000000E+00 -0.00000000000E+00 -0.45593999997E+02  0.45594000000E+02  0.51100000000E-03 0.  1.
         23    2    1    2    0    0  0.00000000000E+00  0.00000000000E+00 -0.71054273576E-14  0.91188000000E+02  0.91188000000E+02 0.  0.
    9900012    2    3    3    0    0 -0.91006627835E+01  0.17379328042E+02  0.40549357975E+02  0.46142317205E+02  0.99999949306E+01 0.  0.
        -12    1    3    3    0    0  0.91006627835E+01 -0.17379328042E+02 -0.40549357975E+02  0.45045682795E+02  0.00000000000E+00 0.  1.
         11    1    4    4    0    0 -0.95300867613E+00  0.81601563395E+01  0.12350303743E+02  0.14833286212E+02  0.51100000000E-03 0. -1.
        -11    1    4    4    0    0 -0.68068520663E+01  0.78952445236E+01  0.27297391188E+02  0.29220124693E+02  0.51100000000E-03 0.  1.
         12    1    4    4    0    0 -0.13408020410E+01  0.13239271787E+01  0.90166304294E+00  0.20889063001E+01  0.00000000000E+00 0. -1.
</event>
<event>
 8    1  0.2882335E-009  0.9118800E+02  0.7816164E-02  0.1184000E+00
        -11   -1    0    0    0    0  0.00000000000E+00  0.00000000000E+00  0.45593999997E+02  0.45594000000E+02  0.51100000000E-03 0. -1.
         11   -1    0    0    0    0 -0.00000000000E+00 -0.00000000000E+00 -0.45593999997E+02  0.45594000000E+02  0.51100000000E-03 0.  1.
         23    2    1    2    0    0  0.00000000000E+00 -0.44408920985E-15  0.00000000000E+00  0.91188000000E+02  0.91188000000E+02 0.  0.
    9900012    2    3    3    0    0  0.35176743817E+02 -0.26273274710E+01  0.28014413470E+02  0.46142317440E+02  0.99999970745E+01 0.  0.
        -12    1    3    3    0    0 -0.35176743817E+02  0.26273274710E+01 -0.28014413470E+02  0.45045682560E+02  0.00000000000E+00 0.  1.
         11    1    4    4    0    0  0.21001326489E+02 -0.25175528988E+01  0.10645993105E+02  0.23679758368E+02  0.51100000000E-03 0. -1.
        -11    1    4    4    0    0  0.10885794463E+02 -0.24343709830E+00  0.14191425765E+02  0.17887323674E+02  0.51100000000E-03 0.  1.
         12    1    4    4    0    0  0.32896228643E+01  0.13366252608E+00  0.31769946004E+01  0.45752353985E+01  0.00000000000E+00 0. -1.
</event>
<event>
 8    1  0.2882335E-009  0.9118800E+02  0.7816164E-02  0.1184000E+00
        -11   -1    0    0    0    0  0.00000000000E+00  0.00000000000E+00  0.45593999997E+02  0.45594000000E+02  0.51100000000E-03 0. -1.
         11   -1    0    0    0    0 -0.00000000000E+00 -0.00000000000E+00 -0.45593999997E+02  0.45594000000E+02  0.51100000000E-03 0.  1.
         23    2    1    2    0    0 -0.35527136788E-14 -0.71054273576E-14  0.35527136788E-14  0.91188000000E+02  0.91188000000E+02 0.  0.
    9900012    2    3    3    0    0 -0.18041592924E+02 -0.37497921918E+02  0.17248776215E+02  0.46142317584E+02  0.99999983841E+01 0.  0.
        -12    1    3    3    0    0  0.18041592924E+02  0.37497921918E+02 -0.17248776215E+02  0.45045682416E+02  0.00000000000E+00 0.  1.
         11    1    4    4    0    0 -0.11542989230E+02 -0.26050200657E+02  0.14961433144E+02  0.32182262764E+02  0.51100000000E-03 0. -1.
        -11    1    4    4    0    0 -0.53284168447E+01 -0.56061992196E+01  0.54828492881E+00  0.77538450065E+01  0.51100000000E-03 0.  1.
         12    1    4    4    0    0 -0.11701868488E+01 -0.58415220419E+01  0.17390581428E+01  0.62062098136E+01  0.00000000000E+00 0. -1.
</event>
<event>
 8    1  0.2882335E-009  0.9118800E+02  0.7816164E-02  0.1184000E+00
        -11   -1    0    0    0    0  0.00000000000E+00  0.00000000000E+00  0.45593999997E+02  0.45594000000E+02  0.51100000000E-03 0. -1.
         11   -1    0    0    0    0 -0.00000000000E+00 -0.00000000000E+00 -0.45593999997E+02  0.45594000000E+02  0.51100000000E-03 0.  1.
         23    2    1    2    0    0  0.00000000000E+00  0.00000000000E+00  0.00000000000E+00  0.91188000000E+02  0.91188000000E+02 0.  0.
    9900012    2    3    3    0    0  0.52756554810E+01  0.88210709798E+00 -0.44726981865E+02  0.46142316961E+02  0.99999927068E+01 0.  0.
         12    1    3    3    0    0 -0.52756554810E+01 -0.88210709798E+00  0.44726981865E+02  0.45045683039E+02  0.00000000000E+00 0. -1.
         11    1    4    4    0    0  0.38065583595E+01 -0.97821836176E+00 -0.76961461241E+01  0.86416122993E+01  0.51100000000E-03 0. -1.
        -11    1    4    4    0    0 -0.24874004607E+00  0.27311584591E+01 -0.91179986476E+01  0.95215018635E+01  0.51100000000E-03 0.  1.
         12    1    4    4    0    0  0.17178371676E+01 -0.87083299932E+00 -0.27912837093E+02  0.27979202798E+02  0.00000000000E+00 0. -1.
</event>
<event>
 8    1  0.2882335E-009  0.9118800E+02  0.7816164E-02  0.1184000E+00
        -11   -1    0    0    0    0  0.00000000000E+00  0.00000000000E+00  0.45593999997E+02  0.45594000000E+02  0.51100000000E-03 0.  1.
         11   -1    0    0    0    0 -0.00000000000E+00 -0.00000000000E+00 -0.45593999997E+02  0.45594000000E+02  0.51100000000E-03 0. -1.
         23    2    1    2    0    0 -0.35527136788E-14  0.00000000000E+00  0.33306690739E-15  0.91188000000E+02  0.91188000000E+02 0.  0.
    9900012    2    3    3    0    0  0.24421825187E+02  0.37844028259E+02 -0.71930446837E+00  0.46142318528E+02  0.10000006994E+02 0.  0.
         12    1    3    3    0    0 -0.24421825187E+02 -0.37844028259E+02  0.71930446837E+00  0.45045681472E+02  0.00000000000E+00 0. -1.
         11    1    4    4    0    0  0.19422818843E+02  0.32116128858E+02 -0.30241958375E+00  0.37533759237E+02  0.51100000000E-03 0. -1.
        -11    1    4    4    0    0  0.41559404611E+01  0.37580754540E+01 -0.19947611859E+01  0.59476083163E+01  0.51100000000E-03 0.  1.
         12    1    4    4    0    0  0.84306588328E+00  0.19698239473E+01  0.15778763013E+01  0.26609509746E+01  0.00000000000E+00 0. -1.
</event>
<event>
 8    1  0.2882335E-009  0.9118800E+02  0.7816164E-02  0.1184000E+00
        -11   -1    0    0    0    0  0.00000000000E+00  0.00000000000E+00  0.45593999997E+02  0.45594000000E+02  0.51100000000E-03 0. -1.
         11   -1    0    0    0    0 -0.00000000000E+00 -0.00000000000E+00 -0.45593999997E+02  0.45594000000E+02  0.51100000000E-03 0.  1.
         23    2    1    2    0    0  0.71054273576E-14  0.22204460493E-15  0.00000000000E+00  0.91188000000E+02  0.91188000000E+02 0.  0.
    9900012    2    3    3    0    0 -0.30152495506E+02 -0.92704418476E+00  0.33452668846E+02  0.46142318197E+02  0.10000003973E+02 0.  0.
        -12    1    3    3    0    0  0.30152495506E+02  0.92704418476E+00 -0.33452668846E+02  0.45045681803E+02  0.00000000000E+00 0.  1.
         11    1    4    4    0    0 -0.18774089830E+02 -0.58130530136E+00  0.26643615358E+02  0.32598874281E+02  0.51100000000E-03 0. -1.
        -11    1    4    4    0    0 -0.10901179462E+02  0.74489454978E-01  0.68992586751E+01  0.12901202768E+02  0.51100000000E-03 0.  1.
        -12    1    4    4    0    0 -0.47722621487E+00 -0.42022833838E+00 -0.90205186417E-01  0.64224114801E+00  0.00000000000E+00 0.  1.
</event>
<event>
 8    1  0.2882335E-009  0.9118800E+02  0.7816164E-02  0.1184000E+00
        -11   -1    0    0    0    0  0.00000000000E+00  0.00000000000E+00  0.45593999997E+02  0.45594000000E+02  0.51100000000E-03 0. -1.
         11   -1    0    0    0    0 -0.00000000000E+00 -0.00000000000E+00 -0.45593999997E+02  0.45594000000E+02  0.51100000000E-03 0.  1.
         23    2    1    2    0    0  0.00000000000E+00  0.00000000000E+00  0.00000000000E+00  0.91188000000E+02  0.91188000000E+02 0.  0.
    9900012    2    3    3    0    0 -0.17733616204E+02  0.15592205643E+02  0.38360336134E+02  0.46142318645E+02  0.10000008056E+02 0.  0.
        -12    1    3    3    0    0  0.17733616204E+02 -0.15592205643E+02 -0.38360336134E+02  0.45045681355E+02  0.00000000000E+00 0.  1.
         11    1    4    4    0    0  0.53051106239E+00  0.21291526072E+01  0.24916016114E+01  0.33200619968E+01  0.51100000000E-03 0. -1.
        -11    1    4    4    0    0 -0.56070285793E+01  0.30950558650E+01  0.14956469564E+02  0.16270037565E+02  0.51100000000E-03 0.  1.
         12    1    4    4    0    0 -0.12657098687E+02  0.10367997171E+02  0.20912264958E+02  0.26552219082E+02  0.00000000000E+00 0. -1.
</event>
<event>
 8    1  0.2882335E-009  0.9118800E+02  0.7816164E-02  0.1184000E+00
        -11   -1    0    0    0    0  0.00000000000E+00  0.00000000000E+00  0.45593999997E+02  0.45594000000E+02  0.51100000000E-03 0. -1.
         11   -1    0    0    0    0 -0.00000000000E+00 -0.00000000000E+00 -0.45593999997E+02  0.45594000000E+02  0.51100000000E-03 0.  1.
         23    2    1    2    0    0  0.00000000000E+00  0.00000000000E+00  0.71054273576E-14  0.91188000000E+02  0.91188000000E+02 0.  0.
    9900012    2    3    3    0    0  0.83966882352E+01 -0.98189578163E+01  0.43153182129E+02  0.46142318367E+02  0.10000005526E+02 0.  0.
        -12    1    3    3    0    0 -0.83966882352E+01  0.98189578163E+01 -0.43153182129E+02  0.45045681633E+02  0.00000000000E+00 0.  1.
         11    1    4    4    0    0  0.61619942661E+01 -0.41300344996E+01  0.10572850844E+02  0.12915592651E+02  0.51100000000E-03 0. -1.
        -11    1    4    4    0    0  0.23774496377E+01 -0.46624706121E+01  0.22867332923E+02  0.23458597875E+02  0.51100000000E-03 0.  1.
         12    1    4    4    0    0 -0.14275566858E+00 -0.10264527046E+01  0.97129983625E+01  0.97681278414E+01  0.00000000000E+00 0. -1.
</event>
<event>
 8    1  0.2882335E-009  0.9118800E+02  0.7816164E-02  0.1184000E+00
        -11   -1    0    0    0    0  0.00000000000E+00  0.00000000000E+00  0.45593999997E+02  0.45594000000E+02  0.51100000000E-03 0. -1.
         11   -1    0    0    0    0 -0.00000000000E+00 -0.00000000000E+00 -0.45593999997E+02  0.45594000000E+02  0.51100000000E-03 0.  1.
         23    2    1    2    0    0  0.00000000000E+00  0.00000000000E+00 -0.71054273576E-14  0.91188000000E+02  0.91188000000E+02 0.  0.
    9900012    2    3    3    0    0  0.16393234938E+02 -0.20496202905E+02 -0.36609848961E+02  0.46142317341E+02  0.99999961679E+01 0.  0.
         12    1    3    3    0    0 -0.16393234938E+02  0.20496202905E+02  0.36609848961E+02  0.45045682659E+02  0.00000000000E+00 0. -1.
         11    1    4    4    0    0  0.11420212254E+02 -0.10688184658E+02 -0.14521095884E+02  0.21342932440E+02  0.51100000000E-03 0. -1.
        -11    1    4    4    0    0  0.48589496755E+01 -0.83175463844E+01 -0.17536634913E+02  0.20008111708E+02  0.51100000000E-03 0.  1.
         12    1    4    4    0    0  0.11407300864E+00 -0.14904718634E+01 -0.45521181640E+01  0.47912731926E+01  0.00000000000E+00 0. -1.
</event>
<event>
 8    1  0.2882335E-009  0.9118800E+02  0.7816164E-02  0.1184000E+00
        -11   -1    0    0    0    0  0.00000000000E+00  0.00000000000E+00  0.45593999997E+02  0.45594000000E+02  0.51100000000E-03 0.  1.
         11   -1    0    0    0    0 -0.00000000000E+00 -0.00000000000E+00 -0.45593999997E+02  0.45594000000E+02  0.51100000000E-03 0. -1.
         23    2    1    2    0    0  0.00000000000E+00  0.00000000000E+00  0.00000000000E+00  0.91188000000E+02  0.91188000000E+02 0.  0.
    9900012    2    3    3    0    0 -0.36301873155E+02 -0.24161274028E+02  0.11292495035E+02  0.46142316507E+02  0.99999885605E+01 0.  0.
        -12    1    3    3    0    0  0.36301873155E+02  0.24161274028E+02 -0.11292495035E+02  0.45045683493E+02  0.00000000000E+00 0.  1.
         11    1    4    4    0    0 -0.19070190172E+02 -0.14461926990E+02  0.81377267856E+01  0.25279281693E+02  0.51100000000E-03 0. -1.
        -11    1    4    4    0    0 -0.14401793824E+02 -0.55201441733E+01  0.12709462314E+01  0.15475753992E+02  0.51100000000E-03 0.  1.
        -12    1    4    4    0    0 -0.28298891596E+01 -0.41792028654E+01  0.18838220184E+01  0.53872808208E+01  0.00000000000E+00 0.  1.
</event>
<event>
 8    1  0.2882335E-009  0.9118800E+02  0.7816164E-02  0.1184000E+00
        -11   -1    0    0    0    0  0.00000000000E+00  0.00000000000E+00  0.45593999997E+02  0.45594000000E+02  0.51100000000E-03 0.  1.
         11   -1    0    0    0    0 -0.00000000000E+00 -0.00000000000E+00 -0.45593999997E+02  0.45594000000E+02  0.51100000000E-03 0. -1.
         23    2    1    2    0    0  0.00000000000E+00  0.00000000000E+00  0.00000000000E+00  0.91188000000E+02  0.91188000000E+02 0.  0.
    9900012    2    3    3    0    0 -0.84828495898E+01 -0.30875107761E+02 -0.31684108860E+02  0.46142314628E+02  0.99999714268E+01 0.  0.
         12    1    3    3    0    0  0.84828495898E+01  0.30875107761E+02  0.31684108860E+02  0.45045685372E+02  0.00000000000E+00 0. -1.
         11    1    4    4    0    0 -0.20410614255E+01 -0.81767113267E+00 -0.23518554984E+01  0.32195872982E+01  0.51100000000E-03 0. -1.
        -11    1    4    4    0    0 -0.66053862193E+01 -0.21555861963E+02 -0.23773729500E+02  0.32763951634E+02  0.51100000000E-03 0.  1.
        -12    1    4    4    0    0  0.16359805501E+00 -0.85015746651E+01 -0.55585238615E+01  0.10158775695E+02  0.00000000000E+00 0.  1.
</event>
<event>
 8    1  0.2882335E-009  0.9118800E+02  0.7816164E-02  0.1184000E+00
        -11   -1    0    0    0    0  0.00000000000E+00  0.00000000000E+00  0.45593999997E+02  0.45594000000E+02  0.51100000000E-03 0. -1.
         11   -1    0    0    0    0 -0.00000000000E+00 -0.00000000000E+00 -0.45593999997E+02  0.45594000000E+02  0.51100000000E-03 0.  1.
         23    2    1    2    0    0  0.00000000000E+00  0.00000000000E+00  0.00000000000E+00  0.91188000000E+02  0.91188000000E+02 0.  0.
    9900012    2    3    3    0    0  0.25957151029E+02 -0.27253357643E+02  0.24750645631E+02  0.46142315950E+02  0.99999834849E+01 0.  0.
        -12    1    3    3    0    0 -0.25957151029E+02  0.27253357643E+02 -0.24750645631E+02  0.45045684050E+02  0.00000000000E+00 0.  1.
         11    1    4    4    0    0  0.15140978666E+02 -0.15768910992E+02  0.11033899337E+02  0.24487848490E+02  0.51100000000E-03 0. -1.
        -11    1    4    4    0    0 -0.48025413059E+00  0.84260972224E-01  0.89243286125E+00  0.10169467117E+01  0.51100000000E-03 0.  1.
        -12    1    4    4    0    0  0.11296426494E+02 -0.11568707623E+02  0.12824313433E+02  0.20637520748E+02  0.00000000000E+00 0.  1.
</event>
<event>
 8    1  0.2882335E-009  0.9118800E+02  0.7816164E-02  0.1184000E+00
        -11   -1    0    0    0    0  0.00000000000E+00  0.00000000000E+00  0.45593999997E+02  0.45594000000E+02  0.51100000000E-03 0.  1.
         11   -1    0    0    0    0 -0.00000000000E+00 -0.00000000000E+00 -0.45593999997E+02  0.45594000000E+02  0.51100000000E-03 0. -1.
         23    2    1    2    0    0  0.00000000000E+00 -0.14210854715E-13 -0.35527136788E-14  0.91188000000E+02  0.91188000000E+02 0.  0.
    9900012    2    3    3    0    0 -0.12437373972E+02  0.40409403701E+02  0.15540434773E+02  0.46142319944E+02  0.10000019903E+02 0.  0.
         12    1    3    3    0    0  0.12437373972E+02 -0.40409403701E+02 -0.15540434773E+02  0.45045680056E+02  0.00000000000E+00 0. -1.
         11    1    4    4    0    0 -0.74820245636E+01  0.27098516480E+02  0.72705457072E+01  0.29037409012E+02  0.51100000000E-03 0. -1.
        -11    1    4    4    0    0 -0.51962264068E+01  0.12391056647E+02  0.61409804619E+01  0.14773310224E+02  0.51100000000E-03 0.  1.
         12    1    4    4    0    0  0.24087699827E+00  0.91983057407E+00  0.21289086040E+01  0.23316007071E+01  0.00000000000E+00 0. -1.
</event>
<event>
 8    1  0.2882335E-009  0.9118800E+02  0.7816164E-02  0.1184000E+00
        -11   -1    0    0    0    0  0.00000000000E+00  0.00000000000E+00  0.45593999997E+02  0.45594000000E+02  0.51100000000E-03 0. -1.
         11   -1    0    0    0    0 -0.00000000000E+00 -0.00000000000E+00 -0.45593999997E+02  0.45594000000E+02  0.51100000000E-03 0.  1.
         23    2    1    2    0    0  0.00000000000E+00 -0.22204460493E-15  0.00000000000E+00  0.91188000000E+02  0.91188000000E+02 0.  0.
    9900012    2    3    3    0    0 -0.11212839251E+02 -0.11207198403E+01 -0.43613413667E+02  0.46142316203E+02  0.99999857939E+01 0.  0.
         12    1    3    3    0    0  0.11212839251E+02  0.11207198403E+01  0.43613413667E+02  0.45045683797E+02  0.00000000000E+00 0. -1.
         11    1    4    4    0    0 -0.90136869798E+01  0.34753556931E+01 -0.30970518497E+02  0.32442220429E+02  0.51100000000E-03 0. -1.
        -11    1    4    4    0    0 -0.10874254756E+01 -0.20961771139E+01 -0.41193436018E+01  0.47482043583E+01  0.51100000000E-03 0.  1.
         12    1    4    4    0    0 -0.11117267953E+01 -0.24998984195E+01 -0.85235515684E+01  0.89518914155E+01  0.00000000000E+00 0. -1.
</event>
<event>
 8    1  0.2882335E-009  0.9118800E+02  0.7816164E-02  0.1184000E+00
        -11   -1    0    0    0    0  0.00000000000E+00  0.00000000000E+00  0.45593999997E+02  0.45594000000E+02  0.51100000000E-03 0.  1.
         11   -1    0    0    0    0 -0.00000000000E+00 -0.00000000000E+00 -0.45593999997E+02  0.45594000000E+02  0.51100000000E-03 0. -1.
         23    2    1    2    0    0  0.00000000000E+00  0.00000000000E+00  0.00000000000E+00  0.91188000000E+02  0.91188000000E+02 0.  0.
    9900012    2    3    3    0    0  0.42655567749E+02 -0.10691726116E+02  0.97623406004E+01  0.46142314732E+02  0.99999723765E+01 0.  0.
        -12    1    3    3    0    0 -0.42655567749E+02  0.10691726116E+02 -0.97623406004E+01  0.45045685268E+02  0.00000000000E+00 0.  1.
         11    1    4    4    0    0  0.16709201871E+02 -0.41548237763E+01  0.85218499960E+01  0.19211504767E+02  0.51100000000E-03 0. -1.
        -11    1    4    4    0    0  0.15081223890E+02 -0.49608307251E+01 -0.50897375783E-01  0.15876263613E+02  0.51100000000E-03 0.  1.
         12    1    4    4    0    0  0.10865141987E+02 -0.15760716143E+01  0.12913879802E+01  0.11054546352E+02  0.00000000000E+00 0. -1.
</event>
<event>
 8    1  0.2882335E-009  0.9118800E+02  0.7816164E-02  0.1184000E+00
        -11   -1    0    0    0    0  0.00000000000E+00  0.00000000000E+00  0.45593999997E+02  0.45594000000E+02  0.51100000000E-03 0. -1.
         11   -1    0    0    0    0 -0.00000000000E+00 -0.00000000000E+00 -0.45593999997E+02  0.45594000000E+02  0.51100000000E-03 0.  1.
         23    2    1    2    0    0  0.00000000000E+00  0.00000000000E+00 -0.88817841970E-15  0.91188000000E+02  0.91188000000E+02 0.  0.
    9900012    2    3    3    0    0  0.44171833543E+02 -0.41446464245E+01  0.77964415418E+01  0.46142317929E+02  0.10000001534E+02 0.  0.
        -12    1    3    3    0    0 -0.44171833543E+02  0.41446464245E+01 -0.77964415418E+01  0.45045682071E+02  0.00000000000E+00 0.  1.
         11    1    4    4    0    0  0.10565377633E+02 -0.73528703237E+00  0.14183757335E+01  0.10685487426E+02  0.51100000000E-03 0. -1.
        -11    1    4    4    0    0  0.19070706424E+02 -0.32134398699E+01  0.77939145630E+01  0.20850974649E+02  0.51100000000E-03 0.  1.
        -12    1    4    4    0    0  0.14535749485E+02 -0.19591952226E+00 -0.14158487547E+01  0.14605855855E+02  0.00000000000E+00 0.  1.
</event>
<event>
 8    1  0.2882335E-009  0.9118800E+02  0.7816164E-02  0.1184000E+00
        -11   -1    0    0    0    0  0.00000000000E+00  0.00000000000E+00  0.45593999997E+02  0.45594000000E+02  0.51100000000E-03 0.  1.
         11   -1    0    0    0    0 -0.00000000000E+00 -0.00000000000E+00 -0.45593999997E+02  0.45594000000E+02  0.51100000000E-03 0. -1.
         23    2    1    2    0    0  0.00000000000E+00  0.17763568394E-14  0.00000000000E+00  0.91188000000E+02  0.91188000000E+02 0.  0.
    9900012    2    3    3    0    0  0.42699000925E+02 -0.12957316330E+02  0.61657679304E+01  0.46142318513E+02  0.10000006854E+02 0.  0.
        -12    1    3    3    0    0 -0.42699000925E+02  0.12957316330E+02 -0.61657679304E+01  0.45045681487E+02  0.00000000000E+00 0.  1.
         11    1    4    4    0    0  0.30103783650E+02 -0.72899410951E+01  0.37015890996E+01  0.31194275009E+02  0.51100000000E-03 0. -1.
        -11    1    4    4    0    0  0.66016134937E+01 -0.36225924218E+01  0.38619592329E+01  0.84628131229E+01  0.51100000000E-03 0.  1.
         12    1    4    4    0    0  0.59936037818E+01 -0.20447828132E+01 -0.13977804021E+01  0.64852303813E+01  0.00000000000E+00 0. -1.
</event>
<event>
 8    1  0.2882335E-009  0.9118800E+02  0.7816164E-02  0.1184000E+00
        -11   -1    0    0    0    0  0.00000000000E+00  0.00000000000E+00  0.45593999997E+02  0.45594000000E+02  0.51100000000E-03 0. -1.
         11   -1    0    0    0    0 -0.00000000000E+00 -0.00000000000E+00 -0.45593999997E+02  0.45594000000E+02  0.51100000000E-03 0.  1.
         23    2    1    2    0    0  0.00000000000E+00  0.17763568394E-14  0.00000000000E+00  0.91188000000E+02  0.91188000000E+02 0.  0.
    9900012    2    3    3    0    0 -0.26550910899E+02 -0.11989506274E+02  0.34357160792E+02  0.46142316212E+02  0.99999858737E+01 0.  0.
        -12    1    3    3    0    0  0.26550910899E+02  0.11989506274E+02 -0.34357160792E+02  0.45045683788E+02  0.00000000000E+00 0.  1.
         11    1    4    4    0    0 -0.73652970102E+01 -0.12720276817E+01  0.90881738031E+01  0.11766926438E+02  0.51100000000E-03 0. -1.
        -11    1    4    4    0    0 -0.18112076488E+02 -0.77874973791E+01  0.19038916152E+02  0.27407531057E+02  0.51100000000E-03 0.  1.
        -12    1    4    4    0    0 -0.10735374004E+01 -0.29299812132E+01  0.62300708369E+01  0.69678587165E+01  0.00000000000E+00 0.  1.
</event>
<event>
 8    1  0.2882335E-009  0.9118800E+02  0.7816164E-02  0.1184000E+00
        -11   -1    0    0    0    0  0.00000000000E+00  0.00000000000E+00  0.45593999997E+02  0.45594000000E+02  0.51100000000E-03 0. -1.
         11   -1    0    0    0    0 -0.00000000000E+00 -0.00000000000E+00 -0.45593999997E+02  0.45594000000E+02  0.51100000000E-03 0.  1.
         23    2    1    2    0    0  0.00000000000E+00  0.00000000000E+00  0.00000000000E+00  0.91188000000E+02  0.91188000000E+02 0.  0.
    9900012    2    3    3    0    0  0.26393293459E+02 -0.20861719294E+02  0.29954901914E+02  0.46142318518E+02  0.10000006898E+02 0.  0.
        -12    1    3    3    0    0 -0.26393293459E+02  0.20861719294E+02 -0.29954901914E+02  0.45045681482E+02  0.00000000000E+00 0.  1.
         11    1    4    4    0    0  0.90816099715E+01 -0.97020504139E+01  0.82828752086E+01  0.15659228713E+02  0.51100000000E-03 0. -1.
        -11    1    4    4    0    0  0.13396733332E+01  0.22158174995E+00  0.34683821139E+01  0.37247144670E+01  0.51100000000E-03 0.  1.
         12    1    4    4    0    0  0.15972010155E+02 -0.11381250630E+02  0.18203644592E+02  0.26758375337E+02  0.00000000000E+00 0. -1.
</event>
<event>
 8    1  0.2882335E-009  0.9118800E+02  0.7816164E-02  0.1184000E+00
        -11   -1    0    0    0    0  0.00000000000E+00  0.00000000000E+00  0.45593999997E+02  0.45594000000E+02  0.51100000000E-03 0.  1.
         11   -1    0    0    0    0 -0.00000000000E+00 -0.00000000000E+00 -0.45593999997E+02  0.45594000000E+02  0.51100000000E-03 0. -1.
         23    2    1    2    0    0  0.35527136788E-14  0.00000000000E+00  0.00000000000E+00  0.91188000000E+02  0.91188000000E+02 0.  0.
    9900012    2    3    3    0    0  0.20433591339E+02  0.39128056818E+02 -0.89764582624E+01  0.46142319982E+02  0.10000020252E+02 0.  0.
         12    1    3    3    0    0 -0.20433591339E+02 -0.39128056818E+02  0.89764582624E+01  0.45045680018E+02  0.00000000000E+00 0. -1.
         11    1    4    4    0    0  0.10837688906E+02  0.17127163952E+02 -0.84832561889E+01  0.21971820172E+02  0.51100000000E-03 0. -1.
        -11    1    4    4    0    0  0.30323832862E+01  0.10080811760E+02  0.38978956728E+00  0.10534232308E+02  0.51100000000E-03 0.  1.
        -12    1    4    4    0    0  0.65635191464E+01  0.11920081106E+02 -0.88299164071E+00  0.13636267502E+02  0.00000000000E+00 0.  1.
</event>
<event>
 8    1  0.2882335E-009  0.9118800E+02  0.7816164E-02  0.1184000E+00
        -11   -1    0    0    0    0  0.00000000000E+00  0.00000000000E+00  0.45593999997E+02  0.45594000000E+02  0.51100000000E-03 0. -1.
         11   -1    0    0    0    0 -0.00000000000E+00 -0.00000000000E+00 -0.45593999997E+02  0.45594000000E+02  0.51100000000E-03 0.  1.
         23    2    1    2    0    0 -0.17763568394E-14  0.17763568394E-14  0.00000000000E+00  0.91188000000E+02  0.91188000000E+02 0.  0.
    9900012    2    3    3    0    0 -0.11414189272E+02  0.10214625548E+02  0.42361435657E+02  0.46142317380E+02  0.99999965241E+01 0.  0.
        -12    1    3    3    0    0  0.11414189272E+02 -0.10214625548E+02 -0.42361435657E+02  0.45045682620E+02  0.00000000000E+00 0.  1.
         11    1    4    4    0    0 -0.77323059535E+01  0.71172107350E+01  0.20174460442E+02  0.22747573461E+02  0.51100000000E-03 0. -1.
        -11    1    4    4    0    0 -0.13765000053E+01 -0.13708273283E+01  0.31147864080E+01  0.36709419033E+01  0.51100000000E-03 0.  1.
         12    1    4    4    0    0 -0.23053833133E+01  0.44682421412E+01  0.19072188807E+02  0.19723802015E+02  0.00000000000E+00 0. -1.
</event>
<event>
 8    1  0.2882335E-009  0.9118800E+02  0.7816164E-02  0.1184000E+00
        -11   -1    0    0    0    0  0.00000000000E+00  0.00000000000E+00  0.45593999997E+02  0.45594000000E+02  0.51100000000E-03 0. -1.
         11   -1    0    0    0    0 -0.00000000000E+00 -0.00000000000E+00 -0.45593999997E+02  0.45594000000E+02  0.51100000000E-03 0.  1.
         23    2    1    2    0    0 -0.17763568394E-14  0.88817841970E-15 -0.14210854715E-13  0.91188000000E+02  0.91188000000E+02 0.  0.
    9900012    2    3    3    0    0  0.87887868465E+01 -0.62737430480E+01  0.43732263584E+02  0.46142317584E+02  0.99999983891E+01 0.  0.
        -12    1    3    3    0    0 -0.87887868465E+01  0.62737430480E+01 -0.43732263584E+02  0.45045682416E+02  0.00000000000E+00 0.  1.
         11    1    4    4    0    0  0.55733208143E+01 -0.11913925684E+01  0.33244368318E+02  0.33729354371E+02  0.51100000000E-03 0.  1.
        -11    1    4    4    0    0  0.22502481378E+01 -0.38362034818E+01  0.49472481880E+01  0.66524686193E+01  0.51100000000E-03 0. -1.
        -12    1    4    4    0    0  0.96521789437E+00 -0.12461469978E+01  0.55406470787E+01  0.57604945946E+01  0.00000000000E+00 0.  1.
</event>
<event>
 8    1  0.2882335E-009  0.9118800E+02  0.7816164E-02  0.1184000E+00
        -11   -1    0    0    0    0  0.00000000000E+00  0.00000000000E+00  0.45593999997E+02  0.45594000000E+02  0.51100000000E-03 0. -1.
         11   -1    0    0    0    0 -0.00000000000E+00 -0.00000000000E+00 -0.45593999997E+02  0.45594000000E+02  0.51100000000E-03 0.  1.
         23    2    1    2    0    0  0.00000000000E+00  0.00000000000E+00  0.00000000000E+00  0.91188000000E+02  0.91188000000E+02 0.  0.
    9900012    2    3    3    0    0 -0.21875442952E+02  0.12635506677E+02 -0.37295073029E+02  0.46142317570E+02  0.99999982574E+01 0.  0.
         12    1    3    3    0    0  0.21875442952E+02 -0.12635506677E+02  0.37295073029E+02  0.45045682430E+02  0.00000000000E+00 0. -1.
         11    1    4    4    0    0 -0.22552719222E+01 -0.48574471510E+00 -0.52822821855E+01  0.57640875011E+01  0.51100000000E-03 0. -1.
        -11    1    4    4    0    0 -0.83113869311E+01  0.21493632469E+01 -0.14230292950E+02  0.16619270525E+02  0.51100000000E-03 0.  1.
        -12    1    4    4    0    0 -0.11308784098E+02  0.10971888146E+02 -0.17782497894E+02  0.23758959544E+02  0.00000000000E+00 0.  1.
</event>
<event>
 8    1  0.2882335E-009  0.9118800E+02  0.7816164E-02  0.1184000E+00
        -11   -1    0    0    0    0  0.00000000000E+00  0.00000000000E+00  0.45593999997E+02  0.45594000000E+02  0.51100000000E-03 0. -1.
         11   -1    0    0    0    0 -0.00000000000E+00 -0.00000000000E+00 -0.45593999997E+02  0.45594000000E+02  0.51100000000E-03 0.  1.
         23    2    1    2    0    0 -0.35527136788E-14  0.00000000000E+00  0.35527136788E-14  0.91188000000E+02  0.91188000000E+02 0.  0.
    9900012    2    3    3    0    0  0.29801614065E+02 -0.22636806693E+02 -0.25070947955E+02  0.46142315973E+02  0.99999836904E+01 0.  0.
         12    1    3    3    0    0 -0.29801614065E+02  0.22636806693E+02  0.25070947955E+02  0.45045684027E+02  0.00000000000E+00 0. -1.
         11    1    4    4    0    0  0.77448644691E+01 -0.10553584868E+02 -0.93222098215E+01  0.16070615278E+02  0.51100000000E-03 0. -1.
        -11    1    4    4    0    0  0.20503513042E+02 -0.94884524779E+01 -0.13987989975E+02  0.26572328488E+02  0.51100000000E-03 0.  1.
        -12    1    4    4    0    0  0.15532365540E+01 -0.25947693472E+01 -0.17607481584E+01  0.34993722058E+01  0.00000000000E+00 0.  1.
</event>
<event>
 8    1  0.2882335E-009  0.9118800E+02  0.7816164E-02  0.1184000E+00
        -11   -1    0    0    0    0  0.00000000000E+00  0.00000000000E+00  0.45593999997E+02  0.45594000000E+02  0.51100000000E-03 0. -1.
         11   -1    0    0    0    0 -0.00000000000E+00 -0.00000000000E+00 -0.45593999997E+02  0.45594000000E+02  0.51100000000E-03 0.  1.
         23    2    1    2    0    0  0.00000000000E+00  0.88817841970E-15 -0.71054273576E-14  0.91188000000E+02  0.91188000000E+02 0.  0.
    9900012    2    3    3    0    0 -0.41947836652E+01 -0.73333026324E+01  0.44246354904E+02  0.46142318079E+02  0.10000002894E+02 0.  0.
        -12    1    3    3    0    0  0.41947836652E+01  0.73333026324E+01 -0.44246354904E+02  0.45045681921E+02  0.00000000000E+00 0.  1.
         11    1    4    4    0    0 -0.28835259612E+01 -0.55187315850E+00  0.19171873827E+02  0.19395361101E+02  0.51100000000E-03 0. -1.
        -11    1    4    4    0    0  0.76368599554E+00 -0.18238018494E+01  0.16563928671E+02  0.16681522795E+02  0.51100000000E-03 0.  1.
        -12    1    4    4    0    0 -0.20749436996E+01 -0.49576276246E+01  0.85105524056E+01  0.10065434182E+02  0.00000000000E+00 0.  1.
</event>
<event>
 8    1  0.2882335E-009  0.9118800E+02  0.7816164E-02  0.1184000E+00
        -11   -1    0    0    0    0  0.00000000000E+00  0.00000000000E+00  0.45593999997E+02  0.45594000000E+02  0.51100000000E-03 0.  1.
         11   -1    0    0    0    0 -0.00000000000E+00 -0.00000000000E+00 -0.45593999997E+02  0.45594000000E+02  0.51100000000E-03 0. -1.
         23    2    1    2    0    0  0.00000000000E+00  0.00000000000E+00  0.00000000000E+00  0.91188000000E+02  0.91188000000E+02 0.  0.
    9900012    2    3    3    0    0  0.37168208691E+02  0.16378220574E+02 -0.19477978370E+02  0.46142317767E+02  0.10000000053E+02 0.  0.
        -12    1    3    3    0    0 -0.37168208691E+02 -0.16378220574E+02  0.19477978370E+02  0.45045682233E+02  0.00000000000E+00 0.  1.
         11    1    4    4    0    0  0.22997839673E+02  0.13552603732E+02 -0.13423970626E+02  0.29879368888E+02  0.51100000000E-03 0.  1.
        -11    1    4    4    0    0  0.39388483843E+01 -0.76636072972E+00 -0.39691983222E+00  0.40322922732E+01  0.51100000000E-03 0. -1.
         12    1    4    4    0    0  0.10231520633E+02  0.35919775717E+01 -0.56570879126E+01  0.12230656605E+02  0.00000000000E+00 0. -1.
</event>
<event>
 8    1  0.2882335E-009  0.9118800E+02  0.7816164E-02  0.1184000E+00
        -11   -1    0    0    0    0  0.00000000000E+00  0.00000000000E+00  0.45593999997E+02  0.45594000000E+02  0.51100000000E-03 0. -1.
         11   -1    0    0    0    0 -0.00000000000E+00 -0.00000000000E+00 -0.45593999997E+02  0.45594000000E+02  0.51100000000E-03 0.  1.
         23    2    1    2    0    0 -0.71054273576E-14  0.44408920985E-15  0.00000000000E+00  0.91188000000E+02  0.91188000000E+02 0.  0.
    9900012    2    3    3    0    0  0.33429122028E+02 -0.29600470641E+01  0.30047381016E+02  0.46142321138E+02  0.10000030798E+02 0.  0.
        -12    1    3    3    0    0 -0.33429122028E+02  0.29600470641E+01 -0.30047381016E+02  0.45045678862E+02  0.00000000000E+00 0.  1.
         11    1    4    4    0    0  0.22330035148E+02  0.18491045826E+01  0.17774687481E+02  0.28600510009E+02  0.51100000000E-03 0. -1.
        -11    1    4    4    0    0  0.48656405328E+01 -0.15326510185E+01  0.73615031946E+01  0.89562942384E+01  0.51100000000E-03 0.  1.
         12    1    4    4    0    0  0.62334463470E+01 -0.32765006282E+01  0.49111903407E+01  0.85855168912E+01  0.00000000000E+00 0. -1.
</event>
<event>
 8    1  0.2882335E-009  0.9118800E+02  0.7816164E-02  0.1184000E+00
        -11   -1    0    0    0    0  0.00000000000E+00  0.00000000000E+00  0.45593999997E+02  0.45594000000E+02  0.51100000000E-03 0. -1.
         11   -1    0    0    0    0 -0.00000000000E+00 -0.00000000000E+00 -0.45593999997E+02  0.45594000000E+02  0.51100000000E-03 0.  1.
         23    2    1    2    0    0 -0.44408920985E-15  0.71054273576E-14  0.00000000000E+00  0.91188000000E+02  0.91188000000E+02 0.  0.
    9900012    2    3    3    0    0 -0.24839739882E+01  0.43423156638E+02  0.11720616726E+02  0.46142317459E+02  0.99999972444E+01 0.  0.
        -12    1    3    3    0    0  0.24839739882E+01 -0.43423156638E+02 -0.11720616726E+02  0.45045682541E+02  0.00000000000E+00 0.  1.
         11    1    4    4    0    0 -0.44197413466E+01  0.25997049371E+02  0.10158546985E+02  0.28259100599E+02  0.51100000000E-03 0. -1.
        -11    1    4    4    0    0  0.12914662205E+00  0.47998992382E+01 -0.92046163012E+00  0.48890654956E+01  0.51100000000E-03 0.  1.
         12    1    4    4    0    0  0.18066207364E+01  0.12626208029E+02  0.24825313712E+01  0.12994151364E+02  0.00000000000E+00 0. -1.
</event>
<event>
 8    1  0.2882335E-009  0.9118800E+02  0.7816164E-02  0.1184000E+00
        -11   -1    0    0    0    0  0.00000000000E+00  0.00000000000E+00  0.45593999997E+02  0.45594000000E+02  0.51100000000E-03 0. -1.
         11   -1    0    0    0    0 -0.00000000000E+00 -0.00000000000E+00 -0.45593999997E+02  0.45594000000E+02  0.51100000000E-03 0.  1.
         23    2    1    2    0    0  0.00000000000E+00  0.35527136788E-14  0.00000000000E+00  0.91188000000E+02  0.91188000000E+02 0.  0.
    9900012    2    3    3    0    0 -0.17111487511E+02 -0.26779464742E+02 -0.31924454959E+02  0.46142316953E+02  0.99999926346E+01 0.  0.
         12    1    3    3    0    0  0.17111487511E+02  0.26779464742E+02  0.31924454959E+02  0.45045683047E+02  0.00000000000E+00 0. -1.
         11    1    4    4    0    0  0.26667755572E+00 -0.41720638505E+01 -0.41295736140E+01  0.58762753668E+01  0.51100000000E-03 0. -1.
        -11    1    4    4    0    0 -0.16317263687E+02 -0.18504885922E+02 -0.25350164610E+02  0.35373927450E+02  0.51100000000E-03 0.  1.
        -12    1    4    4    0    0 -0.10609013800E+01 -0.41025149696E+01 -0.24447167350E+01  0.48921141369E+01  0.00000000000E+00 0.  1.
</event>
<event>
 8    1  0.2882335E-009  0.9118800E+02  0.7816164E-02  0.1184000E+00
        -11   -1    0    0    0    0  0.00000000000E+00  0.00000000000E+00  0.45593999997E+02  0.45594000000E+02  0.51100000000E-03 0. -1.
         11   -1    0    0    0    0 -0.00000000000E+00 -0.00000000000E+00 -0.45593999997E+02  0.45594000000E+02  0.51100000000E-03 0.  1.
         23    2    1    2    0    0  0.00000000000E+00  0.00000000000E+00  0.00000000000E+00  0.91188000000E+02  0.91188000000E+02 0.  0.
    9900012    2    3    3    0    0 -0.12344228852E+02  0.29704047844E+02  0.31534156969E+02  0.46142317632E+02  0.99999988205E+01 0.  0.
        -12    1    3    3    0    0  0.12344228852E+02 -0.29704047844E+02 -0.31534156969E+02  0.45045682368E+02  0.00000000000E+00 0.  1.
         11    1    4    4    0    0 -0.35880580464E+01  0.67990977155E+01  0.55720720051E+01  0.94947289051E+01  0.51100000000E-03 0. -1.
        -11    1    4    4    0    0 -0.85403151171E+01  0.19281983969E+02  0.25336496246E+02  0.32964677009E+02  0.51100000000E-03 0.  1.
        -12    1    4    4    0    0 -0.21585568807E+00  0.36229661597E+01  0.62558871857E+00  0.36829117173E+01  0.00000000000E+00 0.  1.
</event>
<event>
 8    1  0.2882335E-009  0.9118800E+02  0.7816164E-02  0.1184000E+00
        -11   -1    0    0    0    0  0.00000000000E+00  0.00000000000E+00  0.45593999997E+02  0.45594000000E+02  0.51100000000E-03 0. -1.
         11   -1    0    0    0    0 -0.00000000000E+00 -0.00000000000E+00 -0.45593999997E+02  0.45594000000E+02  0.51100000000E-03 0.  1.
         23    2    1    2    0    0  0.00000000000E+00  0.00000000000E+00 -0.71054273576E-14  0.91188000000E+02  0.91188000000E+02 0.  0.
    9900012    2    3    3    0    0 -0.87929234188E+01 -0.26157925050E+02 -0.35602822349E+02  0.46142317583E+02  0.99999983795E+01 0.  0.
         12    1    3    3    0    0  0.87929234188E+01  0.26157925050E+02  0.35602822349E+02  0.45045682417E+02  0.00000000000E+00 0. -1.
         11    1    4    4    0    0 -0.22733230033E+01 -0.33163950612E+01 -0.11192476842E+01  0.41736302326E+01  0.51100000000E-03 0. -1.
        -11    1    4    4    0    0 -0.51949484271E+01 -0.16540969352E+02 -0.27109891655E+02  0.32179766656E+02  0.51100000000E-03 0.  1.
         12    1    4    4    0    0 -0.13246519884E+01 -0.63005606373E+01 -0.73736830095E+01  0.97889206943E+01  0.00000000000E+00 0. -1.
</event>
<event>
 8    1  0.2882335E-009  0.9118800E+02  0.7816164E-02  0.1184000E+00
        -11   -1    0    0    0    0  0.00000000000E+00  0.00000000000E+00  0.45593999997E+02  0.45594000000E+02  0.51100000000E-03 0. -1.
         11   -1    0    0    0    0 -0.00000000000E+00 -0.00000000000E+00 -0.45593999997E+02  0.45594000000E+02  0.51100000000E-03 0.  1.
         23    2    1    2    0    0  0.44408920985E-15  0.00000000000E+00 -0.14210854715E-13  0.91188000000E+02  0.91188000000E+02 0.  0.
    9900012    2    3    3    0    0 -0.23207048543E+01  0.16264882543E+01  0.44956448628E+02  0.46142318649E+02  0.10000008101E+02 0.  0.
        -12    1    3    3    0    0  0.23207048543E+01 -0.16264882543E+01 -0.44956448628E+02  0.45045681351E+02  0.00000000000E+00 0.  1.
         11    1    4    4    0    0 -0.19773675812E+01  0.33942614614E+01  0.38085807693E+02  0.38287853704E+02  0.51100000000E-03 0. -1.
        -11    1    4    4    0    0  0.22540969353E-01 -0.78516272333E+00 -0.11209616338E+00  0.79344464732E+00  0.51100000000E-03 0.  1.
        -12    1    4    4    0    0 -0.36587824250E+00 -0.98261048381E+00  0.69827370989E+01  0.70610202976E+01  0.00000000000E+00 0.  1.
</event>
<event>
 8    1  0.2882335E-009  0.9118800E+02  0.7816164E-02  0.1184000E+00
        -11   -1    0    0    0    0  0.00000000000E+00  0.00000000000E+00  0.45593999997E+02  0.45594000000E+02  0.51100000000E-03 0.  1.
         11   -1    0    0    0    0 -0.00000000000E+00 -0.00000000000E+00 -0.45593999997E+02  0.45594000000E+02  0.51100000000E-03 0. -1.
         23    2    1    2    0    0  0.00000000000E+00 -0.71054273576E-14  0.17763568394E-14  0.91188000000E+02  0.91188000000E+02 0.  0.
    9900012    2    3    3    0    0  0.29805106270E+02  0.32099736934E+02 -0.10506002454E+02  0.46142316982E+02  0.99999928956E+01 0.  0.
        -12    1    3    3    0    0 -0.29805106270E+02 -0.32099736934E+02  0.10506002454E+02  0.45045683018E+02  0.00000000000E+00 0.  1.
         11    1    4    4    0    0  0.16208776106E+02  0.21383055765E+02 -0.37552317970E+01  0.27093564971E+02  0.51100000000E-03 0. -1.
        -11    1    4    4    0    0  0.31711821459E+01  0.41045462813E+01 -0.35814695637E+01  0.63032230545E+01  0.51100000000E-03 0.  1.
         12    1    4    4    0    0  0.10425148018E+02  0.66121348872E+01 -0.31693010936E+01  0.12745528957E+02  0.00000000000E+00 0. -1.
</event>
<event>
 8    1  0.2882335E-009  0.9118800E+02  0.7816164E-02  0.1184000E+00
        -11   -1    0    0    0    0  0.00000000000E+00  0.00000000000E+00  0.45593999997E+02  0.45594000000E+02  0.51100000000E-03 0. -1.
         11   -1    0    0    0    0 -0.00000000000E+00 -0.00000000000E+00 -0.45593999997E+02  0.45594000000E+02  0.51100000000E-03 0.  1.
         23    2    1    2    0    0  0.00000000000E+00  0.00000000000E+00  0.00000000000E+00  0.91188000000E+02  0.91188000000E+02 0.  0.
    9900012    2    3    3    0    0 -0.16548249052E+02  0.11189441496E+02 -0.40374067677E+02  0.46142317760E+02  0.99999999919E+01 0.  0.
         12    1    3    3    0    0  0.16548249052E+02 -0.11189441496E+02  0.40374067677E+02  0.45045682240E+02  0.00000000000E+00 0. -1.
         11    1    4    4    0    0 -0.34016164791E+01  0.71774126987E+01 -0.17580226303E+02  0.19291205376E+02  0.51100000000E-03 0. -1.
        -11    1    4    4    0    0 -0.77857345927E+01  0.24444462345E+01 -0.16685424555E+02  0.18574077996E+02  0.51100000000E-03 0.  1.
         12    1    4    4    0    0 -0.53608979802E+01  0.15675825624E+01 -0.61084168184E+01  0.82770343886E+01  0.00000000000E+00 0. -1.
</event>
<event>
 8    1  0.2882335E-009  0.9118800E+02  0.7816164E-02  0.1184000E+00
        -11   -1    0    0    0    0  0.00000000000E+00  0.00000000000E+00  0.45593999997E+02  0.45594000000E+02  0.51100000000E-03 0. -1.
         11   -1    0    0    0    0 -0.00000000000E+00 -0.00000000000E+00 -0.45593999997E+02  0.45594000000E+02  0.51100000000E-03 0.  1.
         23    2    1    2    0    0  0.17763568394E-14 -0.88817841970E-15  0.00000000000E+00  0.91188000000E+02  0.91188000000E+02 0.  0.
    9900012    2    3    3    0    0  0.89029460554E+01 -0.28934314211E+01  0.44062218787E+02  0.46142317429E+02  0.99999969753E+01 0.  0.
        -12    1    3    3    0    0 -0.89029460554E+01  0.28934314211E+01 -0.44062218787E+02  0.45045682571E+02  0.00000000000E+00 0.  1.
         11    1    4    4    0    0  0.62800263748E+01 -0.47843096357E+01  0.19799136027E+02  0.21315115238E+02  0.51100000000E-03 0.  1.
        -11    1    4    4    0    0  0.35540420133E+00 -0.64367460842E+00  0.13919214854E+02  0.13938621580E+02  0.51100000000E-03 0. -1.
        -12    1    4    4    0    0  0.22675154793E+01  0.25345528230E+01  0.10343867906E+02  0.10888580611E+02  0.00000000000E+00 0.  1.
</event>
<event>
 8    1  0.2882335E-009  0.9118800E+02  0.7816164E-02  0.1184000E+00
        -11   -1    0    0    0    0  0.00000000000E+00  0.00000000000E+00  0.45593999997E+02  0.45594000000E+02  0.51100000000E-03 0.  1.
         11   -1    0    0    0    0 -0.00000000000E+00 -0.00000000000E+00 -0.45593999997E+02  0.45594000000E+02  0.51100000000E-03 0. -1.
         23    2    1    2    0    0  0.71054273576E-14  0.00000000000E+00  0.00000000000E+00  0.91188000000E+02  0.91188000000E+02 0.  0.
    9900012    2    3    3    0    0  0.33554671685E+02 -0.29977585967E+02  0.21309723725E+01  0.46142326561E+02  0.10000080243E+02 0.  0.
        -12    1    3    3    0    0 -0.33554671685E+02  0.29977585967E+02 -0.21309723725E+01  0.45045673439E+02  0.00000000000E+00 0.  1.
         11    1    4    4    0    0  0.23706772287E+02 -0.17601983555E+02  0.19515335113E+01  0.29591373078E+02  0.51100000000E-03 0. -1.
        -11    1    4    4    0    0  0.28439423877E+01 -0.58796268008E+01 -0.18434206590E+01  0.67864732821E+01  0.51100000000E-03 0.  1.
        -12    1    4    4    0    0  0.70039570101E+01 -0.64959756117E+01  0.20228595202E+01  0.97644802004E+01  0.00000000000E+00 0.  1.
</event>
<event>
 8    1  0.4234395E-009  0.9118800E+02  0.7816164E-02  0.1184000E+00
        -11   -1    0    0    0    0  0.00000000000E+00  0.00000000000E+00  0.45593999997E+02  0.45594000000E+02  0.51100000000E-03 0. -1.
         11   -1    0    0    0    0 -0.00000000000E+00 -0.00000000000E+00 -0.45593999997E+02  0.45594000000E+02  0.51100000000E-03 0.  1.
         23    2    1    2    0    0  0.00000000000E+00 -0.71054273576E-14  0.00000000000E+00  0.91188000000E+02  0.91188000000E+02 0.  0.
    9900012    2    3    3    0    0  0.22319261150E+02 -0.32917168161E+02 -0.21152402248E+02  0.46142317644E+02  0.99999989360E+01 0.  0.
         12    1    3    3    0    0 -0.22319261150E+02  0.32917168161E+02  0.21152402248E+02  0.45045682356E+02  0.00000000000E+00 0. -1.
         11    1    4    4    0    0 -0.13146840638E+00 -0.12119892807E+01  0.17247383567E+00  0.12312389872E+01  0.51100000000E-03 0. -1.
        -11    1    4    4    0    0  0.14589392342E+02 -0.21289059279E+02 -0.10157555814E+02  0.27735362884E+02  0.51100000000E-03 0.  1.
        -12    1    4    4    0    0  0.78613372146E+01 -0.10416119601E+02 -0.11167320269E+02  0.17175715773E+02  0.00000000000E+00 0.  1.
</event>
<event>
 8    1  0.2882335E-009  0.9118800E+02  0.7816164E-02  0.1184000E+00
        -11   -1    0    0    0    0  0.00000000000E+00  0.00000000000E+00  0.45593999997E+02  0.45594000000E+02  0.51100000000E-03 0.  1.
         11   -1    0    0    0    0 -0.00000000000E+00 -0.00000000000E+00 -0.45593999997E+02  0.45594000000E+02  0.51100000000E-03 0. -1.
         23    2    1    2    0    0  0.00000000000E+00  0.17763568394E-14  0.00000000000E+00  0.91188000000E+02  0.91188000000E+02 0.  0.
    9900012    2    3    3    0    0  0.41987447369E+02  0.13483348100E+02 -0.91851511841E+01  0.46142318577E+02  0.10000007444E+02 0.  0.
         12    1    3    3    0    0 -0.41987447369E+02 -0.13483348100E+02  0.91851511841E+01  0.45045681423E+02  0.00000000000E+00 0. -1.
         11    1    4    4    0    0  0.61460492196E+01 -0.57734950203E+00 -0.37052188861E+00  0.61842170231E+01  0.51100000000E-03 0. -1.
        -11    1    4    4    0    0  0.31760451459E+02  0.13489915128E+02 -0.61483595149E+01  0.35050055807E+02  0.51100000000E-03 0.  1.
        -12    1    4    4    0    0  0.40809466900E+01  0.57078247425E+00 -0.26662697805E+01  0.49080457478E+01  0.00000000000E+00 0.  1.
</event>
<event>
 8    1  0.2882335E-009  0.9118800E+02  0.7816164E-02  0.1184000E+00
        -11   -1    0    0    0    0  0.00000000000E+00  0.00000000000E+00  0.45593999997E+02  0.45594000000E+02  0.51100000000E-03 0.  1.
         11   -1    0    0    0    0 -0.00000000000E+00 -0.00000000000E+00 -0.45593999997E+02  0.45594000000E+02  0.51100000000E-03 0. -1.
         23    2    1    2    0    0 -0.71054273576E-14 -0.71054273576E-14  0.17763568394E-14  0.91188000000E+02  0.91188000000E+02 0.  0.
    9900012    2    3    3    0    0 -0.25058600404E+02 -0.35335046775E+02  0.12353722827E+02  0.46142318159E+02  0.10000003627E+02 0.  0.
         12    1    3    3    0    0  0.25058600404E+02  0.35335046775E+02 -0.12353722827E+02  0.45045681841E+02  0.00000000000E+00 0. -1.
         11    1    4    4    0    0 -0.84915078308E+01 -0.84181296892E+01  0.31119324856E+00  0.11961080812E+02  0.51100000000E-03 0. -1.
        -11    1    4    4    0    0 -0.12395579380E+02 -0.16709477004E+02  0.94652244143E+01  0.22857110128E+02  0.51100000000E-03 0.  1.
        -12    1    4    4    0    0 -0.41715131933E+01 -0.10207440082E+02  0.25773051641E+01  0.11324127218E+02  0.00000000000E+00 0.  1.
</event>
<event>
 8    1  0.2882335E-009  0.9118800E+02  0.7816164E-02  0.1184000E+00
        -11   -1    0    0    0    0  0.00000000000E+00  0.00000000000E+00  0.45593999997E+02  0.45594000000E+02  0.51100000000E-03 0.  1.
         11   -1    0    0    0    0 -0.00000000000E+00 -0.00000000000E+00 -0.45593999997E+02  0.45594000000E+02  0.51100000000E-03 0. -1.
         23    2    1    2    0    0  0.00000000000E+00  0.71054273576E-14  0.35527136788E-14  0.91188000000E+02  0.91188000000E+02 0.  0.
    9900012    2    3    3    0    0 -0.37997968827E+01 -0.40103346451E+02 -0.20159277643E+02  0.46142319541E+02  0.10000016232E+02 0.  0.
         12    1    3    3    0    0  0.37997968827E+01  0.40103346451E+02  0.20159277643E+02  0.45045680459E+02  0.00000000000E+00 0. -1.
         11    1    4    4    0    0 -0.59088771369E+01 -0.19186169918E+02 -0.74337841131E+01  0.21407594252E+02  0.51100000000E-03 0. -1.
        -11    1    4    4    0    0  0.21549794399E+01 -0.91257448852E+01 -0.48683292200E+01  0.10565215840E+02  0.51100000000E-03 0.  1.
         12    1    4    4    0    0 -0.45899185730E-01 -0.11791431648E+02 -0.78571643099E+01  0.14169509449E+02  0.00000000000E+00 0. -1.
</event>
<event>
 8    1  0.2882335E-009  0.9118800E+02  0.7816164E-02  0.1184000E+00
        -11   -1    0    0    0    0  0.00000000000E+00  0.00000000000E+00  0.45593999997E+02  0.45594000000E+02  0.51100000000E-03 0. -1.
         11   -1    0    0    0    0 -0.00000000000E+00 -0.00000000000E+00 -0.45593999997E+02  0.45594000000E+02  0.51100000000E-03 0.  1.
         23    2    1    2    0    0  0.00000000000E+00  0.00000000000E+00  0.00000000000E+00  0.91188000000E+02  0.91188000000E+02 0.  0.
    9900012    2    3    3    0    0  0.82989418815E+01  0.21582591007E+02 -0.38657893982E+02  0.46142318319E+02  0.10000005089E+02 0.  0.
         12    1    3    3    0    0 -0.82989418815E+01 -0.21582591007E+02  0.38657893982E+02  0.45045681681E+02  0.00000000000E+00 0. -1.
         11    1    4    4    0    0 -0.24009328496E+00  0.34434332831E+01 -0.98265295570E+01  0.10415160150E+02  0.51100000000E-03 0. -1.
        -11    1    4    4    0    0  0.60422543455E+01  0.58042922816E+01 -0.13543406484E+02  0.15925530004E+02  0.51100000000E-03 0.  1.
        -12    1    4    4    0    0  0.24967808210E+01  0.12334865442E+02 -0.15287957942E+02  0.19801628165E+02  0.00000000000E+00 0.  1.
</event>
<event>
 8    1  0.2882335E-009  0.9118800E+02  0.7816164E-02  0.1184000E+00
        -11   -1    0    0    0    0  0.00000000000E+00  0.00000000000E+00  0.45593999997E+02  0.45594000000E+02  0.51100000000E-03 0. -1.
         11   -1    0    0    0    0 -0.00000000000E+00 -0.00000000000E+00 -0.45593999997E+02  0.45594000000E+02  0.51100000000E-03 0.  1.
         23    2    1    2    0    0  0.00000000000E+00 -0.17763568394E-14  0.35527136788E-14  0.91188000000E+02  0.91188000000E+02 0.  0.
    9900012    2    3    3    0    0  0.34935833122E+02 -0.95077101876E+01  0.26799336194E+02  0.46142318638E+02  0.10000007992E+02 0.  0.
        -12    1    3    3    0    0 -0.34935833122E+02  0.95077101876E+01 -0.26799336194E+02  0.45045681362E+02  0.00000000000E+00 0.  1.
         11    1    4    4    0    0  0.50283324640E+01  0.18271588685E+00  0.27899525540E+01  0.57533770933E+01  0.51100000000E-03 0.  1.
        -11    1    4    4    0    0  0.26394279065E+02 -0.61423591844E+01  0.17807020263E+02  0.32426478603E+02  0.51100000000E-03 0. -1.
         12    1    4    4    0    0  0.35132215937E+01 -0.35480668901E+01  0.62023633776E+01  0.79624629413E+01  0.00000000000E+00 0. -1.
</event>
<event>
 8    1  0.2882335E-009  0.9118800E+02  0.7816164E-02  0.1184000E+00
        -11   -1    0    0    0    0  0.00000000000E+00  0.00000000000E+00  0.45593999997E+02  0.45594000000E+02  0.51100000000E-03 0. -1.
         11   -1    0    0    0    0 -0.00000000000E+00 -0.00000000000E+00 -0.45593999997E+02  0.45594000000E+02  0.51100000000E-03 0.  1.
         23    2    1    2    0    0  0.00000000000E+00  0.00000000000E+00  0.44408920985E-15  0.91188000000E+02  0.91188000000E+02 0.  0.
    9900012    2    3    3    0    0  0.96113188375E+01 -0.43914175584E+02  0.28777124136E+01  0.46142317679E+02  0.99999992503E+01 0.  0.
        -12    1    3    3    0    0 -0.96113188375E+01  0.43914175584E+02 -0.28777124136E+01  0.45045682321E+02  0.00000000000E+00 0.  1.
         11    1    4    4    0    0  0.18872319445E+01 -0.13112101338E+02  0.19241924731E+01  0.13386237815E+02  0.51100000000E-03 0. -1.
        -11    1    4    4    0    0 -0.22808609776E+00  0.31388610548E+00 -0.46882393595E+00  0.60855887082E+00  0.51100000000E-03 0.  1.
        -12    1    4    4    0    0  0.79521729908E+01 -0.31115960352E+02  0.14223438764E+01  0.32147520993E+02  0.00000000000E+00 0.  1.
</event>
<event>
 8    1  0.2882335E-009  0.9118800E+02  0.7816164E-02  0.1184000E+00
        -11   -1    0    0    0    0  0.00000000000E+00  0.00000000000E+00  0.45593999997E+02  0.45594000000E+02  0.51100000000E-03 0. -1.
         11   -1    0    0    0    0 -0.00000000000E+00 -0.00000000000E+00 -0.45593999997E+02  0.45594000000E+02  0.51100000000E-03 0.  1.
         23    2    1    2    0    0  0.17763568394E-14 -0.71054273576E-14  0.35527136788E-14  0.91188000000E+02  0.91188000000E+02 0.  0.
    9900012    2    3    3    0    0 -0.11901873040E+02  0.36381447129E+02 -0.23745509462E+02  0.46142317669E+02  0.99999991604E+01 0.  0.
         12    1    3    3    0    0  0.11901873040E+02 -0.36381447129E+02  0.23745509462E+02  0.45045682331E+02  0.00000000000E+00 0. -1.
         11    1    4    4    0    0 -0.35697713863E+01  0.81951454239E+01 -0.94427296580E+01  0.13002646651E+02  0.51100000000E-03 0. -1.
        -11    1    4    4    0    0 -0.78000582360E+01  0.19818710742E+02 -0.11992869363E+02  0.24442813254E+02  0.51100000000E-03 0.  1.
         12    1    4    4    0    0 -0.53204341765E+00  0.83675909629E+01 -0.23099104408E+01  0.86968577639E+01  0.00000000000E+00 0. -1.
</event>
<event>
 8    1  0.2882335E-009  0.9118800E+02  0.7816164E-02  0.1184000E+00
        -11   -1    0    0    0    0  0.00000000000E+00  0.00000000000E+00  0.45593999997E+02  0.45594000000E+02  0.51100000000E-03 0.  1.
         11   -1    0    0    0    0 -0.00000000000E+00 -0.00000000000E+00 -0.45593999997E+02  0.45594000000E+02  0.51100000000E-03 0. -1.
         23    2    1    2    0    0  0.00000000000E+00  0.35527136788E-14  0.00000000000E+00  0.91188000000E+02  0.91188000000E+02 0.  0.
    9900012    2    3    3    0    0 -0.36425721068E+02 -0.17532106895E+02 -0.19872230647E+02  0.46142317871E+02  0.10000001006E+02 0.  0.
         12    1    3    3    0    0  0.36425721068E+02  0.17532106895E+02  0.19872230647E+02  0.45045682129E+02  0.00000000000E+00 0. -1.
         11    1    4    4    0    0 -0.17247422753E+02 -0.13046799045E+02 -0.10813540689E+02  0.24179024369E+02  0.51100000000E-03 0. -1.
        -11    1    4    4    0    0 -0.16320224868E+02 -0.38565950374E+01 -0.90091038263E+01  0.19036465455E+02  0.51100000000E-03 0.  1.
        -12    1    4    4    0    0 -0.28580734481E+01 -0.62871281273E+00 -0.49586132199E-01  0.29268280476E+01  0.00000000000E+00 0.  1.
</event>
<event>
 8    1  0.2882335E-009  0.9118800E+02  0.7816164E-02  0.1184000E+00
        -11   -1    0    0    0    0  0.00000000000E+00  0.00000000000E+00  0.45593999997E+02  0.45594000000E+02  0.51100000000E-03 0. -1.
         11   -1    0    0    0    0 -0.00000000000E+00 -0.00000000000E+00 -0.45593999997E+02  0.45594000000E+02  0.51100000000E-03 0.  1.
         23    2    1    2    0    0  0.00000000000E+00  0.00000000000E+00  0.00000000000E+00  0.91188000000E+02  0.91188000000E+02 0.  0.
    9900012    2    3    3    0    0  0.22021144384E+02 -0.16731043476E+02 -0.35556358370E+02  0.46142320558E+02  0.10000025506E+02 0.  0.
         12    1    3    3    0    0 -0.22021144384E+02  0.16731043476E+02  0.35556358370E+02  0.45045679442E+02  0.00000000000E+00 0. -1.
         11    1    4    4    0    0  0.12019573215E+02 -0.68968139527E+01 -0.12672022323E+02  0.18778081185E+02  0.51100000000E-03 0. -1.
        -11    1    4    4    0    0  0.34142373963E+01 -0.70768309162E+01 -0.12343563142E+02  0.14632228269E+02  0.51100000000E-03 0.  1.
         12    1    4    4    0    0  0.65873337735E+01 -0.27573986073E+01 -0.10540772905E+02  0.12732011104E+02  0.00000000000E+00 0. -1.
</event>
<event>
 8    1  0.2882335E-009  0.9118800E+02  0.7816164E-02  0.1184000E+00
        -11   -1    0    0    0    0  0.00000000000E+00  0.00000000000E+00  0.45593999997E+02  0.45594000000E+02  0.51100000000E-03 0. -1.
         11   -1    0    0    0    0 -0.00000000000E+00 -0.00000000000E+00 -0.45593999997E+02  0.45594000000E+02  0.51100000000E-03 0.  1.
         23    2    1    2    0    0 -0.17763568394E-14 -0.88817841970E-15  0.00000000000E+00  0.91188000000E+02  0.91188000000E+02 0.  0.
    9900012    2    3    3    0    0 -0.92665320412E+01 -0.36730235697E+01  0.43928963073E+02  0.46142317466E+02  0.99999973134E+01 0.  0.
        -12    1    3    3    0    0  0.92665320412E+01  0.36730235697E+01 -0.43928963073E+02  0.45045682534E+02  0.00000000000E+00 0.  1.
         11    1    4    4    0    0 -0.87161330574E+00 -0.83184114382E+00  0.21611412671E+02  0.21644972334E+02  0.51100000000E-03 0. -1.
        -11    1    4    4    0    0 -0.55113308010E+01 -0.23914815752E+01  0.87143530364E+01  0.10584606768E+02  0.51100000000E-03 0.  1.
        -12    1    4    4    0    0 -0.28835879345E+01 -0.44970085071E+00  0.13603197366E+02  0.13912738365E+02  0.00000000000E+00 0.  1.
</event>
<event>
 8    1  0.2882335E-009  0.9118800E+02  0.7816164E-02  0.1184000E+00
        -11   -1    0    0    0    0  0.00000000000E+00  0.00000000000E+00  0.45593999997E+02  0.45594000000E+02  0.51100000000E-03 0.  1.
         11   -1    0    0    0    0 -0.00000000000E+00 -0.00000000000E+00 -0.45593999997E+02  0.45594000000E+02  0.51100000000E-03 0. -1.
         23    2    1    2    0    0 -0.44408920985E-15  0.00000000000E+00  0.00000000000E+00  0.91188000000E+02  0.91188000000E+02 0.  0.
    9900012    2    3    3    0    0 -0.17638171513E+01 -0.43689929340E+02 -0.10825548490E+02  0.46142317890E+02  0.10000001173E+02 0.  0.
         12    1    3    3    0    0  0.17638171513E+01  0.43689929340E+02  0.10825548490E+02  0.45045682110E+02  0.00000000000E+00 0. -1.
         11    1    4    4    0    0 -0.24032816562E+01 -0.45010628270E+01 -0.19492960565E+01  0.54621501873E+01  0.51100000000E-03 0. -1.
        -11    1    4    4    0    0  0.26726228359E+01 -0.23306332073E+02 -0.74075562956E+01  0.24600811329E+02  0.51100000000E-03 0.  1.
        -12    1    4    4    0    0 -0.20331583310E+01 -0.15882534440E+02 -0.14686961379E+01  0.16079356373E+02  0.00000000000E+00 0.  1.
</event>
<event>
 8    1  0.2882335E-009  0.9118800E+02  0.7816164E-02  0.1184000E+00
        -11   -1    0    0    0    0  0.00000000000E+00  0.00000000000E+00  0.45593999997E+02  0.45594000000E+02  0.51100000000E-03 0.  1.
         11   -1    0    0    0    0 -0.00000000000E+00 -0.00000000000E+00 -0.45593999997E+02  0.45594000000E+02  0.51100000000E-03 0. -1.
         23    2    1    2    0    0  0.00000000000E+00  0.00000000000E+00  0.00000000000E+00  0.91188000000E+02  0.91188000000E+02 0.  0.
    9900012    2    3    3    0    0  0.93822980895E+01  0.33794915050E+02 -0.28266405426E+02  0.46142317895E+02  0.10000001217E+02 0.  0.
         12    1    3    3    0    0 -0.93822980895E+01 -0.33794915050E+02  0.28266405426E+02  0.45045682105E+02  0.00000000000E+00 0. -1.
         11    1    4    4    0    0  0.35084149244E+01  0.90484728310E+01 -0.69454386838E+01  0.11934108874E+02  0.51100000000E-03 0. -1.
        -11    1    4    4    0    0  0.68752751082E+01  0.22181504629E+02 -0.15949864225E+02  0.28172446193E+02  0.51100000000E-03 0.  1.
         12    1    4    4    0    0 -0.10013919430E+01  0.25649375895E+01 -0.53711025169E+01  0.60357628274E+01  0.00000000000E+00 0. -1.
</event>
<event>
 8    1  0.2882335E-009  0.9118800E+02  0.7816164E-02  0.1184000E+00
        -11   -1    0    0    0    0  0.00000000000E+00  0.00000000000E+00  0.45593999997E+02  0.45594000000E+02  0.51100000000E-03 0.  1.
         11   -1    0    0    0    0 -0.00000000000E+00 -0.00000000000E+00 -0.45593999997E+02  0.45594000000E+02  0.51100000000E-03 0. -1.
         23    2    1    2    0    0  0.00000000000E+00  0.00000000000E+00 -0.17763568394E-14  0.91188000000E+02  0.91188000000E+02 0.  0.
    9900012    2    3    3    0    0 -0.36075734472E+02 -0.25512171229E+02  0.87626488983E+01  0.46142317474E+02  0.99999973802E+01 0.  0.
        -12    1    3    3    0    0  0.36075734472E+02  0.25512171229E+02 -0.87626488983E+01  0.45045682526E+02  0.00000000000E+00 0.  1.
         11    1    4    4    0    0 -0.21322343627E+02 -0.12787455269E+02  0.28747732232E+01  0.25028497186E+02  0.51100000000E-03 0. -1.
        -11    1    4    4    0    0 -0.11584158770E+02 -0.12550459479E+02  0.45963060580E+01  0.17687079951E+02  0.51100000000E-03 0.  1.
         12    1    4    4    0    0 -0.31692320743E+01 -0.17425648099E+00  0.12915696171E+01  0.34267403371E+01  0.00000000000E+00 0. -1.
</event>
<event>
 8    1  0.2882335E-009  0.9118800E+02  0.7816164E-02  0.1184000E+00
        -11   -1    0    0    0    0  0.00000000000E+00  0.00000000000E+00  0.45593999997E+02  0.45594000000E+02  0.51100000000E-03 0. -1.
         11   -1    0    0    0    0 -0.00000000000E+00 -0.00000000000E+00 -0.45593999997E+02  0.45594000000E+02  0.51100000000E-03 0.  1.
         23    2    1    2    0    0  0.00000000000E+00  0.00000000000E+00  0.71054273576E-14  0.91188000000E+02  0.91188000000E+02 0.  0.
    9900012    2    3    3    0    0  0.21996490274E+01 -0.17587371673E+02 -0.41412068139E+02  0.46142317790E+02  0.10000000262E+02 0.  0.
         12    1    3    3    0    0 -0.21996490274E+01  0.17587371673E+02  0.41412068139E+02  0.45045682210E+02  0.00000000000E+00 0. -1.
         11    1    4    4    0    0  0.21416414537E+01 -0.29512968077E+01 -0.30047775451E+01  0.47249835259E+01  0.51100000000E-03 0. -1.
        -11    1    4    4    0    0  0.14967150881E+01 -0.20793508546E+01 -0.10041786353E+02  0.10363461268E+02  0.51100000000E-03 0.  1.
        -12    1    4    4    0    0 -0.14387075145E+01 -0.12556724011E+02 -0.28365504242E+02  0.31053872996E+02  0.00000000000E+00 0.  1.
</event>
<event>
 8    1  0.2882335E-009  0.9118800E+02  0.7816164E-02  0.1184000E+00
        -11   -1    0    0    0    0  0.00000000000E+00  0.00000000000E+00  0.45593999997E+02  0.45594000000E+02  0.51100000000E-03 0. -1.
         11   -1    0    0    0    0 -0.00000000000E+00 -0.00000000000E+00 -0.45593999997E+02  0.45594000000E+02  0.51100000000E-03 0.  1.
         23    2    1    2    0    0  0.00000000000E+00 -0.35527136788E-14 -0.17763568394E-14  0.91188000000E+02  0.91188000000E+02 0.  0.
    9900012    2    3    3    0    0  0.37533015587E+02 -0.19230195430E+02  0.15829902138E+02  0.46142317887E+02  0.10000001148E+02 0.  0.
        -12    1    3    3    0    0 -0.37533015587E+02  0.19230195430E+02 -0.15829902138E+02  0.45045682113E+02  0.00000000000E+00 0.  1.
         11    1    4    4    0    0  0.18005907026E+02 -0.10162893092E+02  0.49374310714E+01  0.21257358953E+02  0.51100000000E-03 0. -1.
        -11    1    4    4    0    0  0.19867703122E+02 -0.82940880289E+01  0.10493033677E+02  0.23950392055E+02  0.51100000000E-03 0.  1.
        -12    1    4    4    0    0 -0.34059456103E+00 -0.77321430868E+00  0.39943739046E+00  0.93456687885E+00  0.00000000000E+00 0.  1.
</event>
<event>
 8    1  0.3155437E-009  0.9118800E+02  0.7816164E-02  0.1184000E+00
        -11   -1    0    0    0    0  0.00000000000E+00  0.00000000000E+00  0.45593999997E+02  0.45594000000E+02  0.51100000000E-03 0. -1.
         11   -1    0    0    0    0 -0.00000000000E+00 -0.00000000000E+00 -0.45593999997E+02  0.45594000000E+02  0.51100000000E-03 0.  1.
         23    2    1    2    0    0  0.00000000000E+00 -0.17763568394E-14  0.71054273576E-14  0.91188000000E+02  0.91188000000E+02 0.  0.
    9900012    2    3    3    0    0 -0.10830142618E+02  0.10986395167E+02 -0.42321631718E+02  0.46142318973E+02  0.10000011052E+02 0.  0.
         12    1    3    3    0    0  0.10830142618E+02 -0.10986395167E+02  0.42321631718E+02  0.45045681027E+02  0.00000000000E+00 0. -1.
         11    1    4    4    0    0  0.10016938197E+01  0.13422853369E+01 -0.30764923745E+01  0.35028454184E+01  0.51100000000E-03 0. -1.
        -11    1    4    4    0    0 -0.11287887333E+02  0.77880569202E+01 -0.27430997002E+02  0.30668058756E+02  0.51100000000E-03 0.  1.
        -12    1    4    4    0    0 -0.54394910469E+00  0.18560529103E+01 -0.11814142341E+02  0.11971414799E+02  0.00000000000E+00 0.  1.
</event>
<event>
 8    1  0.2882335E-009  0.9118800E+02  0.7816164E-02  0.1184000E+00
        -11   -1    0    0    0    0  0.00000000000E+00  0.00000000000E+00  0.45593999997E+02  0.45594000000E+02  0.51100000000E-03 0. -1.
         11   -1    0    0    0    0 -0.00000000000E+00 -0.00000000000E+00 -0.45593999997E+02  0.45594000000E+02  0.51100000000E-03 0.  1.
         23    2    1    2    0    0  0.00000000000E+00  0.00000000000E+00  0.71054273576E-14  0.91188000000E+02  0.91188000000E+02 0.  0.
    9900012    2    3    3    0    0  0.11839225706E+02  0.24222527653E+02  0.36086221406E+02  0.46142317781E+02  0.10000000182E+02 0.  0.
        -12    1    3    3    0    0 -0.11839225706E+02 -0.24222527653E+02 -0.36086221406E+02  0.45045682219E+02  0.00000000000E+00 0.  1.
         11    1    4    4    0    0  0.78767384854E+01  0.70378306577E+01  0.14935049028E+02  0.18292888215E+02  0.51100000000E-03 0. -1.
        -11    1    4    4    0    0  0.37519487217E+01  0.14570571374E+02  0.15407373367E+02  0.21535222861E+02  0.51100000000E-03 0.  1.
        -12    1    4    4    0    0  0.21053849914E+00  0.26141256217E+01  0.57437990111E+01  0.63142067044E+01  0.00000000000E+00 0.  1.
</event>
<event>
 8    1  0.2882335E-009  0.9118800E+02  0.7816164E-02  0.1184000E+00
        -11   -1    0    0    0    0  0.00000000000E+00  0.00000000000E+00  0.45593999997E+02  0.45594000000E+02  0.51100000000E-03 0.  1.
         11   -1    0    0    0    0 -0.00000000000E+00 -0.00000000000E+00 -0.45593999997E+02  0.45594000000E+02  0.51100000000E-03 0. -1.
         23    2    1    2    0    0 -0.35527136788E-14 -0.71054273576E-14  0.35527136788E-14  0.91188000000E+02  0.91188000000E+02 0.  0.
    9900012    2    3    3    0    0  0.23522550017E+02  0.32203940953E+02 -0.20945391084E+02  0.46142316745E+02  0.99999907364E+01 0.  0.
         12    1    3    3    0    0 -0.23522550017E+02 -0.32203940953E+02  0.20945391084E+02  0.45045683255E+02  0.00000000000E+00 0. -1.
         11    1    4    4    0    0 -0.35939304134E+00  0.22912120284E+01  0.29856388553E+00  0.23383662186E+01  0.51100000000E-03 0. -1.
        -11    1    4    4    0    0  0.17834377819E+02  0.22856399527E+02 -0.15423887837E+02  0.32838641077E+02  0.51100000000E-03 0.  1.
         12    1    4    4    0    0  0.60475652401E+01  0.70563293983E+01 -0.58200671317E+01  0.10965309450E+02  0.00000000000E+00 0. -1.
</event>
<event>
 8    1  0.2882335E-009  0.9118800E+02  0.7816164E-02  0.1184000E+00
        -11   -1    0    0    0    0  0.00000000000E+00  0.00000000000E+00  0.45593999997E+02  0.45594000000E+02  0.51100000000E-03 0. -1.
         11   -1    0    0    0    0 -0.00000000000E+00 -0.00000000000E+00 -0.45593999997E+02  0.45594000000E+02  0.51100000000E-03 0.  1.
         23    2    1    2    0    0  0.00000000000E+00 -0.44408920985E-15  0.00000000000E+00  0.91188000000E+02  0.91188000000E+02 0.  0.
    9900012    2    3    3    0    0  0.44179115427E+02  0.24604961424E+01 -0.84418724844E+01  0.46142317718E+02  0.99999996105E+01 0.  0.
         12    1    3    3    0    0 -0.44179115427E+02 -0.24604961424E+01  0.84418724844E+01  0.45045682282E+02  0.00000000000E+00 0. -1.
         11    1    4    4    0    0  0.27884510726E+01  0.16921571330E+01 -0.20395040863E+01  0.38468730582E+01  0.51100000000E-03 0. -1.
        -11    1    4    4    0    0  0.21213773693E+02 -0.24468340299E+01 -0.25829998490E+01  0.21510069260E+02  0.51100000000E-03 0.  1.
         12    1    4    4    0    0  0.20176890661E+02  0.32151730393E+01 -0.38193685491E+01  0.20785375401E+02  0.00000000000E+00 0. -1.
</event>
<event>
 8    1  0.3475882E-009  0.9118800E+02  0.7816164E-02  0.1184000E+00
        -11   -1    0    0    0    0  0.00000000000E+00  0.00000000000E+00  0.45593999997E+02  0.45594000000E+02  0.51100000000E-03 0. -1.
         11   -1    0    0    0    0 -0.00000000000E+00 -0.00000000000E+00 -0.45593999997E+02  0.45594000000E+02  0.51100000000E-03 0.  1.
         23    2    1    2    0    0  0.00000000000E+00  0.35527136788E-14  0.35527136788E-14  0.91188000000E+02  0.91188000000E+02 0.  0.
    9900012    2    3    3    0    0 -0.31573081277E+02  0.17589412408E+02 -0.26886177619E+02  0.46142318330E+02  0.10000005185E+02 0.  0.
         12    1    3    3    0    0  0.31573081277E+02 -0.17589412408E+02  0.26886177619E+02  0.45045681670E+02  0.00000000000E+00 0. -1.
         11    1    4    4    0    0 -0.36136839250E+01  0.31771360607E+01 -0.58823516702E+01  0.75996688408E+01  0.51100000000E-03 0. -1.
        -11    1    4    4    0    0 -0.80585555561E+01  0.60101063286E+01 -0.32013760795E+01  0.10550379367E+02  0.51100000000E-03 0.  1.
        -12    1    4    4    0    0 -0.19900841795E+02  0.84021700185E+01 -0.17802449870E+02  0.27992270121E+02  0.00000000000E+00 0.  1.
</event>
<event>
 8    1  0.2882335E-009  0.9118800E+02  0.7816164E-02  0.1184000E+00
        -11   -1    0    0    0    0  0.00000000000E+00  0.00000000000E+00  0.45593999997E+02  0.45594000000E+02  0.51100000000E-03 0.  1.
         11   -1    0    0    0    0 -0.00000000000E+00 -0.00000000000E+00 -0.45593999997E+02  0.45594000000E+02  0.51100000000E-03 0. -1.
         23    2    1    2    0    0  0.22204460493E-15  0.00000000000E+00 -0.35527136788E-14  0.91188000000E+02  0.91188000000E+02 0.  0.
    9900012    2    3    3    0    0  0.15875254503E+01  0.36820864558E+02 -0.25900139182E+02  0.46142317482E+02  0.99999974525E+01 0.  0.
         12    1    3    3    0    0 -0.15875254503E+01 -0.36820864558E+02  0.25900139182E+02  0.45045682518E+02  0.00000000000E+00 0. -1.
         11    1    4    4    0    0 -0.25674068930E+01  0.11111648718E+02 -0.91217795588E+01  0.14603670017E+02  0.51100000000E-03 0. -1.
        -11    1    4    4    0    0  0.48747436100E+01  0.17207095122E+02 -0.13460443322E+02  0.22383716904E+02  0.51100000000E-03 0.  1.
        -12    1    4    4    0    0 -0.71981126659E+00  0.85021207188E+01 -0.33179163017E+01  0.91549305601E+01  0.00000000000E+00 0.  1.
</event>
<event>
 8    1  0.2882335E-009  0.9118800E+02  0.7816164E-02  0.1184000E+00
        -11   -1    0    0    0    0  0.00000000000E+00  0.00000000000E+00  0.45593999997E+02  0.45594000000E+02  0.51100000000E-03 0. -1.
         11   -1    0    0    0    0 -0.00000000000E+00 -0.00000000000E+00 -0.45593999997E+02  0.45594000000E+02  0.51100000000E-03 0.  1.
         23    2    1    2    0    0 -0.17763568394E-14 -0.71054273576E-14  0.00000000000E+00  0.91188000000E+02  0.91188000000E+02 0.  0.
    9900012    2    3    3    0    0  0.11923227352E+02  0.32306604427E+02  0.29038484910E+02  0.46142316011E+02  0.99999840448E+01 0.  0.
        -12    1    3    3    0    0 -0.11923227352E+02 -0.32306604427E+02 -0.29038484910E+02  0.45045683989E+02  0.00000000000E+00 0.  1.
         11    1    4    4    0    0  0.54689510337E+01  0.11901598382E+02  0.13336128861E+02  0.18692506593E+02  0.51100000000E-03 0. -1.
        -11    1    4    4    0    0  0.77221234448E+01  0.14093765741E+02  0.11520762269E+02  0.19773552710E+02  0.51100000000E-03 0.  1.
        -12    1    4    4    0    0 -0.12678471262E+01  0.63112403046E+01  0.41815937799E+01  0.76762567087E+01  0.00000000000E+00 0.  1.
</event>
<event>
 8    1  0.2882335E-009  0.9118800E+02  0.7816164E-02  0.1184000E+00
        -11   -1    0    0    0    0  0.00000000000E+00  0.00000000000E+00  0.45593999997E+02  0.45594000000E+02  0.51100000000E-03 0. -1.
         11   -1    0    0    0    0 -0.00000000000E+00 -0.00000000000E+00 -0.45593999997E+02  0.45594000000E+02  0.51100000000E-03 0.  1.
         23    2    1    2    0    0  0.00000000000E+00 -0.17763568394E-14  0.00000000000E+00  0.91188000000E+02  0.91188000000E+02 0.  0.
    9900012    2    3    3    0    0  0.58533460239E+01 -0.11718211770E+02  0.43099132168E+02  0.46142319404E+02  0.10000014982E+02 0.  0.
        -12    1    3    3    0    0 -0.58533460239E+01  0.11718211770E+02 -0.43099132168E+02  0.45045680596E+02  0.00000000000E+00 0.  1.
         11    1    4    4    0    0 -0.45315693311E-01 -0.29892060156E+01  0.12131963093E+02  0.12494876344E+02  0.51100000000E-03 0. -1.
        -11    1    4    4    0    0  0.57609918754E+00 -0.49427774751E+01  0.21986439077E+02  0.22542547394E+02  0.51100000000E-03 0.  1.
        -12    1    4    4    0    0  0.53225625297E+01 -0.37862282791E+01  0.89807299978E+01  0.11104895666E+02  0.00000000000E+00 0.  1.
</event>
<event>
 8    1  0.2882335E-009  0.9118800E+02  0.7816164E-02  0.1184000E+00
        -11   -1    0    0    0    0  0.00000000000E+00  0.00000000000E+00  0.45593999997E+02  0.45594000000E+02  0.51100000000E-03 0. -1.
         11   -1    0    0    0    0 -0.00000000000E+00 -0.00000000000E+00 -0.45593999997E+02  0.45594000000E+02  0.51100000000E-03 0.  1.
         23    2    1    2    0    0  0.00000000000E+00 -0.35527136788E-14  0.00000000000E+00  0.91188000000E+02  0.91188000000E+02 0.  0.
    9900012    2    3    3    0    0 -0.91820802197E+01 -0.23715651370E+02 -0.37180247780E+02  0.46142317165E+02  0.99999945663E+01 0.  0.
         12    1    3    3    0    0  0.91820802197E+01  0.23715651370E+02  0.37180247780E+02  0.45045682835E+02  0.00000000000E+00 0. -1.
         11    1    4    4    0    0 -0.89483349594E+01 -0.11039561882E+02 -0.20390350909E+02  0.24853793183E+02  0.51100000000E-03 0. -1.
        -11    1    4    4    0    0 -0.16937198829E+01 -0.75629733442E+01 -0.93691139763E+01  0.12159257782E+02  0.51100000000E-03 0.  1.
         12    1    4    4    0    0  0.14599746226E+01 -0.51131161438E+01 -0.74207828940E+01  0.91292662005E+01  0.00000000000E+00 0. -1.
</event>
<event>
 8    1  0.2882335E-009  0.9118800E+02  0.7816164E-02  0.1184000E+00
        -11   -1    0    0    0    0  0.00000000000E+00  0.00000000000E+00  0.45593999997E+02  0.45594000000E+02  0.51100000000E-03 0. -1.
         11   -1    0    0    0    0 -0.00000000000E+00 -0.00000000000E+00 -0.45593999997E+02  0.45594000000E+02  0.51100000000E-03 0.  1.
         23    2    1    2    0    0  0.00000000000E+00  0.00000000000E+00  0.00000000000E+00  0.91188000000E+02  0.91188000000E+02 0.  0.
    9900012    2    3    3    0    0 -0.22912693721E+02 -0.34206090690E+02  0.18277453525E+02  0.46142317840E+02  0.10000000722E+02 0.  0.
        -12    1    3    3    0    0  0.22912693721E+02  0.34206090690E+02 -0.18277453525E+02  0.45045682160E+02  0.00000000000E+00 0.  1.
         11    1    4    4    0    0 -0.72431977719E+01 -0.18235968545E+02  0.64522870641E+01  0.20655422323E+02  0.51100000000E-03 0. -1.
        -11    1    4    4    0    0 -0.56824285933E+01 -0.43868011493E+01  0.49404398902E+01  0.87144687510E+01  0.51100000000E-03 0.  1.
         12    1    4    4    0    0 -0.99870673561E+01 -0.11583320996E+02  0.68847265712E+01  0.16772426766E+02  0.00000000000E+00 0. -1.
</event>
<event>
 8    1  0.2882335E-009  0.9118800E+02  0.7816164E-02  0.1184000E+00
        -11   -1    0    0    0    0  0.00000000000E+00  0.00000000000E+00  0.45593999997E+02  0.45594000000E+02  0.51100000000E-03 0. -1.
         11   -1    0    0    0    0 -0.00000000000E+00 -0.00000000000E+00 -0.45593999997E+02  0.45594000000E+02  0.51100000000E-03 0.  1.
         23    2    1    2    0    0 -0.17763568394E-14  0.17763568394E-14  0.71054273576E-14  0.91188000000E+02  0.91188000000E+02 0.  0.
    9900012    2    3    3    0    0 -0.10788412377E+02  0.10759537270E+02  0.42390515060E+02  0.46142320397E+02  0.10000024036E+02 0.  0.
        -12    1    3    3    0    0  0.10788412377E+02 -0.10759537270E+02 -0.42390515060E+02  0.45045679603E+02  0.00000000000E+00 0.  1.
         11    1    4    4    0    0 -0.50923145875E+01  0.23613847183E+01  0.71350243043E+01  0.90783466407E+01  0.51100000000E-03 0. -1.
        -11    1    4    4    0    0 -0.22341988737E+01  0.37479303681E+01  0.24102091094E+02  0.24493864988E+02  0.51100000000E-03 0.  1.
         12    1    4    4    0    0 -0.34618989153E+01  0.46502221836E+01  0.11153399661E+02  0.12570108769E+02  0.00000000000E+00 0. -1.
</event>
<event>
 8    1  0.2882335E-009  0.9118800E+02  0.7816164E-02  0.1184000E+00
        -11   -1    0    0    0    0  0.00000000000E+00  0.00000000000E+00  0.45593999997E+02  0.45594000000E+02  0.51100000000E-03 0.  1.
         11   -1    0    0    0    0 -0.00000000000E+00 -0.00000000000E+00 -0.45593999997E+02  0.45594000000E+02  0.51100000000E-03 0. -1.
         23    2    1    2    0    0  0.00000000000E+00 -0.88817841970E-15  0.00000000000E+00  0.91188000000E+02  0.91188000000E+02 0.  0.
    9900012    2    3    3    0    0  0.39097688545E+02 -0.79527440922E+01  0.20910238862E+02  0.46142317883E+02  0.10000001107E+02 0.  0.
        -12    1    3    3    0    0 -0.39097688545E+02  0.79527440922E+01 -0.20910238862E+02  0.45045682117E+02  0.00000000000E+00 0.  1.
         11    1    4    4    0    0  0.55062319077E+01 -0.77830062287E+00  0.25104060078E+01  0.61013506920E+01  0.51100000000E-03 0. -1.
        -11    1    4    4    0    0  0.51550040194E+01 -0.38423694864E+01  0.91777368894E+00  0.64946268958E+01  0.51100000000E-03 0.  1.
        -12    1    4    4    0    0  0.28436452618E+02 -0.33320739830E+01  0.17482059165E+02  0.33546340295E+02  0.00000000000E+00 0.  1.
</event>
<event>
 8    1  0.2882335E-009  0.9118800E+02  0.7816164E-02  0.1184000E+00
        -11   -1    0    0    0    0  0.00000000000E+00  0.00000000000E+00  0.45593999997E+02  0.45594000000E+02  0.51100000000E-03 0.  1.
         11   -1    0    0    0    0 -0.00000000000E+00 -0.00000000000E+00 -0.45593999997E+02  0.45594000000E+02  0.51100000000E-03 0. -1.
         23    2    1    2    0    0  0.00000000000E+00  0.00000000000E+00  0.00000000000E+00  0.91188000000E+02  0.91188000000E+02 0.  0.
    9900012    2    3    3    0    0 -0.30360844039E+02  0.17856358146E+02  0.28079938002E+02  0.46142319906E+02  0.10000019555E+02 0.  0.
        -12    1    3    3    0    0  0.30360844039E+02 -0.17856358146E+02 -0.28079938002E+02  0.45045680094E+02  0.00000000000E+00 0.  1.
         11    1    4    4    0    0 -0.45360769082E+01  0.21527181049E+01  0.13134463996E+01  0.51899258821E+01  0.51100000000E-03 0. -1.
        -11    1    4    4    0    0 -0.15010427918E+02  0.98742390432E+01  0.11399778767E+02  0.21278357530E+02  0.51100000000E-03 0.  1.
         12    1    4    4    0    0 -0.10814339212E+02  0.58294009979E+01  0.15366712835E+02  0.19674036494E+02  0.00000000000E+00 0. -1.
</event>
<event>
 8    1  0.2882335E-009  0.9118800E+02  0.7816164E-02  0.1184000E+00
        -11   -1    0    0    0    0  0.00000000000E+00  0.00000000000E+00  0.45593999997E+02  0.45594000000E+02  0.51100000000E-03 0. -1.
         11   -1    0    0    0    0 -0.00000000000E+00 -0.00000000000E+00 -0.45593999997E+02  0.45594000000E+02  0.51100000000E-03 0.  1.
         23    2    1    2    0    0  0.00000000000E+00  0.00000000000E+00  0.00000000000E+00  0.91188000000E+02  0.91188000000E+02 0.  0.
    9900012    2    3    3    0    0  0.28149927414E+02  0.76559824736E+01  0.34323184378E+02  0.46142318000E+02  0.10000002177E+02 0.  0.
        -12    1    3    3    0    0 -0.28149927414E+02 -0.76559824736E+01 -0.34323184378E+02  0.45045682000E+02  0.00000000000E+00 0.  1.
         11    1    4    4    0    0  0.42665256147E+01 -0.16773756083E+01  0.64392151561E+01  0.79044494963E+01  0.51100000000E-03 0. -1.
        -11    1    4    4    0    0  0.30791645176E+01 -0.20532234764E+00  0.19557251127E+01  0.36535287560E+01  0.51100000000E-03 0.  1.
         12    1    4    4    0    0  0.20804237282E+02  0.95386804295E+01  0.25928244109E+02  0.34584339748E+02  0.00000000000E+00 0. -1.
</event>
<event>
 8    1  0.2882335E-009  0.9118800E+02  0.7816164E-02  0.1184000E+00
        -11   -1    0    0    0    0  0.00000000000E+00  0.00000000000E+00  0.45593999997E+02  0.45594000000E+02  0.51100000000E-03 0. -1.
         11   -1    0    0    0    0 -0.00000000000E+00 -0.00000000000E+00 -0.45593999997E+02  0.45594000000E+02  0.51100000000E-03 0.  1.
         23    2    1    2    0    0  0.00000000000E+00  0.11102230246E-15  0.00000000000E+00  0.91188000000E+02  0.91188000000E+02 0.  0.
    9900012    2    3    3    0    0  0.43351212596E+02  0.82936969850E+00  0.12210568019E+02  0.46142318087E+02  0.10000002974E+02 0.  0.
        -12    1    3    3    0    0 -0.43351212596E+02 -0.82936969850E+00 -0.12210568019E+02  0.45045681913E+02  0.00000000000E+00 0.  1.
         11    1    4    4    0    0  0.13834564356E+02  0.33044526244E+00  0.10646816652E+01  0.13879406050E+02  0.51100000000E-03 0. -1.
        -11    1    4    4    0    0  0.14416468320E+01 -0.14556743017E+01  0.13950351849E+01  0.24785997436E+01  0.51100000000E-03 0.  1.
         12    1    4    4    0    0  0.28075001408E+02  0.19545987378E+01  0.97508511693E+01  0.29784312294E+02  0.00000000000E+00 0. -1.
</event>
<event>
 8    1  0.2882335E-009  0.9118800E+02  0.7816164E-02  0.1184000E+00
        -11   -1    0    0    0    0  0.00000000000E+00  0.00000000000E+00  0.45593999997E+02  0.45594000000E+02  0.51100000000E-03 0. -1.
         11   -1    0    0    0    0 -0.00000000000E+00 -0.00000000000E+00 -0.45593999997E+02  0.45594000000E+02  0.51100000000E-03 0.  1.
         23    2    1    2    0    0  0.00000000000E+00  0.00000000000E+00  0.71054273576E-14  0.91188000000E+02  0.91188000000E+02 0.  0.
    9900012    2    3    3    0    0 -0.66747117398E+01 -0.13856234732E+02  0.42338712317E+02  0.46142316762E+02  0.99999908877E+01 0.  0.
        -12    1    3    3    0    0  0.66747117398E+01  0.13856234732E+02 -0.42338712317E+02  0.45045683238E+02  0.00000000000E+00 0.  1.
         11    1    4    4    0    0 -0.66237212096E+01 -0.10529702268E+02  0.29063737372E+02  0.31614065585E+02  0.51100000000E-03 0. -1.
        -11    1    4    4    0    0  0.22386643473E+01 -0.57211074615E+00  0.56346717937E+01  0.60900291666E+01  0.51100000000E-03 0.  1.
        -12    1    4    4    0    0 -0.22896548775E+01 -0.27544217175E+01  0.76403031514E+01  0.84382220107E+01  0.00000000000E+00 0.  1.
</event>
<event>
 8    1  0.2882335E-009  0.9118800E+02  0.7816164E-02  0.1184000E+00
        -11   -1    0    0    0    0  0.00000000000E+00  0.00000000000E+00  0.45593999997E+02  0.45594000000E+02  0.51100000000E-03 0. -1.
         11   -1    0    0    0    0 -0.00000000000E+00 -0.00000000000E+00 -0.45593999997E+02  0.45594000000E+02  0.51100000000E-03 0.  1.
         23    2    1    2    0    0 -0.17763568394E-14  0.71054273576E-14  0.71054273576E-14  0.91188000000E+02  0.91188000000E+02 0.  0.
    9900012    2    3    3    0    0 -0.88782911282E+01  0.17190158073E+02  0.40679086287E+02  0.46142315977E+02  0.99999837315E+01 0.  0.
        -12    1    3    3    0    0  0.88782911282E+01 -0.17190158073E+02 -0.40679086287E+02  0.45045684023E+02  0.00000000000E+00 0.  1.
         11    1    4    4    0    0 -0.25132565198E+01  0.22506757629E+01  0.17032862129E+02  0.17363766650E+02  0.51100000000E-03 0.  1.
        -11    1    4    4    0    0 -0.52552040210E+01  0.11664989776E+02  0.20094983244E+02  0.23822206187E+02  0.51100000000E-03 0. -1.
        -12    1    4    4    0    0 -0.11098305873E+01  0.32744925335E+01  0.35512409144E+01  0.49563431395E+01  0.00000000000E+00 0.  1.
</event>
<event>
 8    1  0.2882335E-009  0.9118800E+02  0.7816164E-02  0.1184000E+00
        -11   -1    0    0    0    0  0.00000000000E+00  0.00000000000E+00  0.45593999997E+02  0.45594000000E+02  0.51100000000E-03 0.  1.
         11   -1    0    0    0    0 -0.00000000000E+00 -0.00000000000E+00 -0.45593999997E+02  0.45594000000E+02  0.51100000000E-03 0. -1.
         23    2    1    2    0    0  0.17763568394E-14  0.00000000000E+00 -0.17763568394E-14  0.91188000000E+02  0.91188000000E+02 0.  0.
    9900012    2    3    3    0    0  0.12846188599E+02 -0.41604969816E+02 -0.11537565019E+02  0.46142317838E+02  0.10000000699E+02 0.  0.
        -12    1    3    3    0    0 -0.12846188599E+02  0.41604969816E+02  0.11537565019E+02  0.45045682162E+02  0.00000000000E+00 0.  1.
         11    1    4    4    0    0  0.12427339215E+02 -0.30954875190E+02 -0.96259418545E+01  0.34717456918E+02  0.51100000000E-03 0.  1.
        -11    1    4    4    0    0 -0.10404297662E+01 -0.30101431401E+01 -0.17739071712E+01  0.36455730325E+01  0.51100000000E-03 0. -1.
        -12    1    4    4    0    0  0.14592791503E+01 -0.76399514858E+01 -0.13771599379E+00  0.77792878877E+01  0.00000000000E+00 0.  1.
</event>
<event>
 8    1  0.2882335E-009  0.9118800E+02  0.7816164E-02  0.1184000E+00
        -11   -1    0    0    0    0  0.00000000000E+00  0.00000000000E+00  0.45593999997E+02  0.45594000000E+02  0.51100000000E-03 0. -1.
         11   -1    0    0    0    0 -0.00000000000E+00 -0.00000000000E+00 -0.45593999997E+02  0.45594000000E+02  0.51100000000E-03 0.  1.
         23    2    1    2    0    0  0.00000000000E+00  0.71054273576E-14  0.00000000000E+00  0.91188000000E+02  0.91188000000E+02 0.  0.
    9900012    2    3    3    0    0  0.79293789977E+01 -0.36096459586E+02 -0.25754303767E+02  0.46142316428E+02  0.99999878464E+01 0.  0.
         12    1    3    3    0    0 -0.79293789977E+01  0.36096459586E+02  0.25754303767E+02  0.45045683572E+02  0.00000000000E+00 0. -1.
         11    1    4    4    0    0  0.67204183502E+00 -0.35812205932E+01 -0.11701453969E+01  0.38270121082E+01  0.51100000000E-03 0. -1.
        -11    1    4    4    0    0  0.85428855062E+01 -0.28834026680E+02 -0.23768316723E+02  0.38331643161E+02  0.51100000000E-03 0.  1.
        -12    1    4    4    0    0 -0.12855483435E+01 -0.36812123126E+01 -0.81584164710E+00  0.39836611587E+01  0.00000000000E+00 0.  1.
</event>
<event>
 8    1  0.3224328E-009  0.9118800E+02  0.7816164E-02  0.1184000E+00
        -11   -1    0    0    0    0  0.00000000000E+00  0.00000000000E+00  0.45593999997E+02  0.45594000000E+02  0.51100000000E-03 0. -1.
         11   -1    0    0    0    0 -0.00000000000E+00 -0.00000000000E+00 -0.45593999997E+02  0.45594000000E+02  0.51100000000E-03 0.  1.
         23    2    1    2    0    0 -0.35527136788E-14 -0.17763568394E-14 -0.71054273576E-14  0.91188000000E+02  0.91188000000E+02 0.  0.
    9900012    2    3    3    0    0 -0.27991525829E+02 -0.92754266951E+01 -0.34052231539E+02  0.46142317283E+02  0.99999956404E+01 0.  0.
         12    1    3    3    0    0  0.27991525829E+02  0.92754266951E+01  0.34052231539E+02  0.45045682717E+02  0.00000000000E+00 0. -1.
         11    1    4    4    0    0  0.54774690140E-01 -0.77770488787E+00 -0.12014774949E+00  0.78883515523E+00  0.51100000000E-03 0. -1.
        -11    1    4    4    0    0 -0.21192643040E+02 -0.73089402767E+01 -0.21248331973E+02  0.30887543426E+02  0.51100000000E-03 0.  1.
        -12    1    4    4    0    0 -0.68536574793E+01 -0.11887815305E+01 -0.12683751817E+02  0.14465938702E+02  0.00000000000E+00 0.  1.
</event>
<event>
 8    1  0.2882335E-009  0.9118800E+02  0.7816164E-02  0.1184000E+00
        -11   -1    0    0    0    0  0.00000000000E+00  0.00000000000E+00  0.45593999997E+02  0.45594000000E+02  0.51100000000E-03 0. -1.
         11   -1    0    0    0    0 -0.00000000000E+00 -0.00000000000E+00 -0.45593999997E+02  0.45594000000E+02  0.51100000000E-03 0.  1.
         23    2    1    2    0    0  0.00000000000E+00  0.00000000000E+00  0.00000000000E+00  0.91188000000E+02  0.91188000000E+02 0.  0.
    9900012    2    3    3    0    0 -0.81439877714E+01 -0.16911096510E+02  0.40948793614E+02  0.46142318515E+02  0.10000006877E+02 0.  0.
        -12    1    3    3    0    0  0.81439877714E+01  0.16911096510E+02 -0.40948793614E+02  0.45045681485E+02  0.00000000000E+00 0.  1.
         11    1    4    4    0    0 -0.58054631526E+01 -0.54667632304E+01  0.21950184581E+02  0.23353789971E+02  0.51100000000E-03 0. -1.
        -11    1    4    4    0    0  0.13632980776E+01 -0.46605966783E+01  0.74373401878E+01  0.88822166364E+01  0.51100000000E-03 0.  1.
        -12    1    4    4    0    0 -0.37018226965E+01 -0.67837366017E+01  0.11561268845E+02  0.13906311908E+02  0.00000000000E+00 0.  1.
</event>
<event>
 8    1  0.2882335E-009  0.9118800E+02  0.7816164E-02  0.1184000E+00
        -11   -1    0    0    0    0  0.00000000000E+00  0.00000000000E+00  0.45593999997E+02  0.45594000000E+02  0.51100000000E-03 0. -1.
         11   -1    0    0    0    0 -0.00000000000E+00 -0.00000000000E+00 -0.45593999997E+02  0.45594000000E+02  0.51100000000E-03 0.  1.
         23    2    1    2    0    0  0.00000000000E+00  0.00000000000E+00  0.00000000000E+00  0.91188000000E+02  0.91188000000E+02 0.  0.
    9900012    2    3    3    0    0 -0.24661007928E+02 -0.19434827592E+02 -0.32299158653E+02  0.46142317796E+02  0.10000000315E+02 0.  0.
         12    1    3    3    0    0  0.24661007928E+02  0.19434827592E+02  0.32299158653E+02  0.45045682204E+02  0.00000000000E+00 0. -1.
         11    1    4    4    0    0 -0.69824876102E+01 -0.79578873460E+01 -0.15876644772E+02  0.19082739681E+02  0.51100000000E-03 0. -1.
        -11    1    4    4    0    0 -0.96053725570E+01 -0.39440124722E+01 -0.67884036432E+01  0.12405677758E+02  0.51100000000E-03 0.  1.
         12    1    4    4    0    0 -0.80731477611E+01 -0.75329277734E+01 -0.96341102378E+01  0.14653900357E+02  0.00000000000E+00 0. -1.
</event>
<event>
 8    1  0.2882335E-009  0.9118800E+02  0.7816164E-02  0.1184000E+00
        -11   -1    0    0    0    0  0.00000000000E+00  0.00000000000E+00  0.45593999997E+02  0.45594000000E+02  0.51100000000E-03 0. -1.
         11   -1    0    0    0    0 -0.00000000000E+00 -0.00000000000E+00 -0.45593999997E+02  0.45594000000E+02  0.51100000000E-03 0.  1.
         23    2    1    2    0    0 -0.71054273576E-14  0.00000000000E+00  0.35527136788E-14  0.91188000000E+02  0.91188000000E+02 0.  0.
    9900012    2    3    3    0    0  0.40439906918E+02  0.56263432025E+01 -0.19028181351E+02  0.46142317689E+02  0.99999993400E+01 0.  0.
         12    1    3    3    0    0 -0.40439906918E+02 -0.56263432025E+01  0.19028181351E+02  0.45045682311E+02  0.00000000000E+00 0. -1.
         11    1    4    4    0    0  0.46623019947E+01 -0.19973958954E+01 -0.31736987246E+01  0.59832277333E+01  0.51100000000E-03 0. -1.
        -11    1    4    4    0    0  0.34243796454E+02  0.65036851818E+01 -0.15771578355E+02  0.38258047527E+02  0.51100000000E-03 0.  1.
         12    1    4    4    0    0  0.15338084693E+01  0.11200539162E+01 -0.82904271174E-01  0.19010424282E+01  0.00000000000E+00 0. -1.
</event>
<event>
 8    1  0.2882335E-009  0.9118800E+02  0.7816164E-02  0.1184000E+00
        -11   -1    0    0    0    0  0.00000000000E+00  0.00000000000E+00  0.45593999997E+02  0.45594000000E+02  0.51100000000E-03 0. -1.
         11   -1    0    0    0    0 -0.00000000000E+00 -0.00000000000E+00 -0.45593999997E+02  0.45594000000E+02  0.51100000000E-03 0.  1.
         23    2    1    2    0    0 -0.17763568394E-14  0.35527136788E-14  0.00000000000E+00  0.91188000000E+02  0.91188000000E+02 0.  0.
    9900012    2    3    3    0    0 -0.11771982424E+02  0.22100829823E+02  0.37444455135E+02  0.46142317972E+02  0.10000001920E+02 0.  0.
        -12    1    3    3    0    0  0.11771982424E+02 -0.22100829823E+02 -0.37444455135E+02  0.45045682028E+02  0.00000000000E+00 0.  1.
         11    1    4    4    0    0 -0.68628877722E+01  0.10685281363E+02  0.21466025061E+02  0.24941224881E+02  0.51100000000E-03 0. -1.
        -11    1    4    4    0    0  0.94214823881E+00  0.22032809621E+01  0.84054995990E+00  0.25394122938E+01  0.51100000000E-03 0.  1.
        -12    1    4    4    0    0 -0.58512428910E+01  0.92122674978E+01  0.15137880114E+02  0.18661680797E+02  0.00000000000E+00 0.  1.
</event>
<event>
 8    1  0.2882335E-009  0.9118800E+02  0.7816164E-02  0.1184000E+00
        -11   -1    0    0    0    0  0.00000000000E+00  0.00000000000E+00  0.45593999997E+02  0.45594000000E+02  0.51100000000E-03 0. -1.
         11   -1    0    0    0    0 -0.00000000000E+00 -0.00000000000E+00 -0.45593999997E+02  0.45594000000E+02  0.51100000000E-03 0.  1.
         23    2    1    2    0    0 -0.11102230246E-15  0.00000000000E+00  0.71054273576E-14  0.91188000000E+02  0.91188000000E+02 0.  0.
    9900012    2    3    3    0    0 -0.57378389937E+00 -0.80618590255E+01  0.44314677453E+02  0.46142318334E+02  0.10000005228E+02 0.  0.
        -12    1    3    3    0    0  0.57378389937E+00  0.80618590255E+01 -0.44314677453E+02  0.45045681666E+02  0.00000000000E+00 0.  1.
         11    1    4    4    0    0 -0.31758041408E+01 -0.12090956728E+01  0.17481453308E+02  0.17808673569E+02  0.51100000000E-03 0. -1.
        -11    1    4    4    0    0  0.17981692832E+01 -0.69820908396E+01  0.16986244487E+02  0.18453062275E+02  0.51100000000E-03 0.  1.
         12    1    4    4    0    0  0.80385095826E+00  0.12932748689E+00  0.98469796584E+01  0.98805824907E+01  0.00000000000E+00 0. -1.
</event>
<event>
 8    1  0.2882335E-009  0.9118800E+02  0.7816164E-02  0.1184000E+00
        -11   -1    0    0    0    0  0.00000000000E+00  0.00000000000E+00  0.45593999997E+02  0.45594000000E+02  0.51100000000E-03 0. -1.
         11   -1    0    0    0    0 -0.00000000000E+00 -0.00000000000E+00 -0.45593999997E+02  0.45594000000E+02  0.51100000000E-03 0.  1.
         23    2    1    2    0    0 -0.71054273576E-14  0.00000000000E+00  0.35527136788E-14  0.91188000000E+02  0.91188000000E+02 0.  0.
    9900012    2    3    3    0    0  0.32799745421E+02  0.16572663834E+02  0.26050663009E+02  0.46142317305E+02  0.99999958430E+01 0.  0.
        -12    1    3    3    0    0 -0.32799745421E+02 -0.16572663834E+02 -0.26050663009E+02  0.45045682695E+02  0.00000000000E+00 0.  1.
         11    1    4    4    0    0  0.23756849691E+02  0.11635239061E+02  0.20957791058E+02  0.33749010378E+02  0.51100000000E-03 0. -1.
        -11    1    4    4    0    0  0.12835242943E+01 -0.84755832259E+00  0.20863525575E+00  0.15521980078E+01  0.51100000000E-03 0.  1.
        -12    1    4    4    0    0  0.77593714358E+01  0.57849830962E+01  0.48842366951E+01  0.10841108919E+02  0.00000000000E+00 0.  1.
</event>
<event>
 8    1  0.2882335E-009  0.9118800E+02  0.7816164E-02  0.1184000E+00
        -11   -1    0    0    0    0  0.00000000000E+00  0.00000000000E+00  0.45593999997E+02  0.45594000000E+02  0.51100000000E-03 0. -1.
         11   -1    0    0    0    0 -0.00000000000E+00 -0.00000000000E+00 -0.45593999997E+02  0.45594000000E+02  0.51100000000E-03 0.  1.
         23    2    1    2    0    0  0.00000000000E+00  0.00000000000E+00  0.00000000000E+00  0.91188000000E+02  0.91188000000E+02 0.  0.
    9900012    2    3    3    0    0 -0.23934142326E+02 -0.13912554483E+02 -0.35534646708E+02  0.46142318100E+02  0.10000003093E+02 0.  0.
         12    1    3    3    0    0  0.23934142326E+02  0.13912554483E+02  0.35534646708E+02  0.45045681900E+02  0.00000000000E+00 0. -1.
         11    1    4    4    0    0 -0.47736653786E+00 -0.13719041456E+01 -0.25310763738E+01  0.29182782025E+01  0.51100000000E-03 0. -1.
        -11    1    4    4    0    0 -0.14088401887E+02 -0.27565407830E+01 -0.17571465264E+02  0.22690041353E+02  0.51100000000E-03 0.  1.
        -12    1    4    4    0    0 -0.93683739013E+01 -0.97841095546E+01 -0.15432105070E+02  0.20533998544E+02  0.00000000000E+00 0.  1.
</event>
<event>
 8    1  0.2882335E-009  0.9118800E+02  0.7816164E-02  0.1184000E+00
        -11   -1    0    0    0    0  0.00000000000E+00  0.00000000000E+00  0.45593999997E+02  0.45594000000E+02  0.51100000000E-03 0. -1.
         11   -1    0    0    0    0 -0.00000000000E+00 -0.00000000000E+00 -0.45593999997E+02  0.45594000000E+02  0.51100000000E-03 0.  1.
         23    2    1    2    0    0  0.00000000000E+00 -0.88817841970E-15  0.00000000000E+00  0.91188000000E+02  0.91188000000E+02 0.  0.
    9900012    2    3    3    0    0  0.49456939141E+01  0.19913592657E+01 -0.44729054105E+02  0.46142315621E+02  0.99999804833E+01 0.  0.
         12    1    3    3    0    0 -0.49456939141E+01 -0.19913592657E+01  0.44729054105E+02  0.45045684379E+02  0.00000000000E+00 0. -1.
         11    1    4    4    0    0 -0.14259889116E+01  0.41814490535E+01 -0.17543178183E+02  0.18090911022E+02  0.51100000000E-03 0. -1.
        -11    1    4    4    0    0  0.16149361752E+01  0.11764359725E+00 -0.58111373775E+01  0.60325099873E+01  0.51100000000E-03 0.  1.
         12    1    4    4    0    0  0.47567466505E+01 -0.23077333850E+01 -0.21374738545E+02  0.22018894612E+02  0.00000000000E+00 0. -1.
</event>
<event>
 8    1  0.2882335E-009  0.9118800E+02  0.7816164E-02  0.1184000E+00
        -11   -1    0    0    0    0  0.00000000000E+00  0.00000000000E+00  0.45593999997E+02  0.45594000000E+02  0.51100000000E-03 0. -1.
         11   -1    0    0    0    0 -0.00000000000E+00 -0.00000000000E+00 -0.45593999997E+02  0.45594000000E+02  0.51100000000E-03 0.  1.
         23    2    1    2    0    0  0.71054273576E-14 -0.17763568394E-14  0.00000000000E+00  0.91188000000E+02  0.91188000000E+02 0.  0.
    9900012    2    3    3    0    0 -0.42725754238E+02  0.85927448086E+01 -0.11392451395E+02  0.46142319992E+02  0.10000020347E+02 0.  0.
         12    1    3    3    0    0  0.42725754238E+02 -0.85927448086E+01  0.11392451395E+02  0.45045680008E+02  0.00000000000E+00 0. -1.
         11    1    4    4    0    0 -0.71228664681E+00  0.17413704262E+01  0.11900064281E+00  0.18851749634E+01  0.51100000000E-03 0. -1.
        -11    1    4    4    0    0 -0.38045514165E+02  0.53290082781E+01 -0.96066621124E+01  0.39599841345E+02  0.51100000000E-03 0.  1.
        -12    1    4    4    0    0 -0.39679534257E+01  0.15223661042E+01 -0.19047899259E+01  0.46573036841E+01  0.00000000000E+00 0.  1.
</event>
<event>
 8    1  0.2882335E-009  0.9118800E+02  0.7816164E-02  0.1184000E+00
        -11   -1    0    0    0    0  0.00000000000E+00  0.00000000000E+00  0.45593999997E+02  0.45594000000E+02  0.51100000000E-03 0. -1.
         11   -1    0    0    0    0 -0.00000000000E+00 -0.00000000000E+00 -0.45593999997E+02  0.45594000000E+02  0.51100000000E-03 0.  1.
         23    2    1    2    0    0  0.00000000000E+00  0.00000000000E+00  0.00000000000E+00  0.91188000000E+02  0.91188000000E+02 0.  0.
    9900012    2    3    3    0    0 -0.66971074106E+01 -0.82031102659E+01  0.43783230667E+02  0.46142317040E+02  0.99999934236E+01 0.  0.
        -12    1    3    3    0    0  0.66971074106E+01  0.82031102659E+01 -0.43783230667E+02  0.45045682960E+02  0.00000000000E+00 0.  1.
         11    1    4    4    0    0 -0.23800291986E+01 -0.32729375913E+01  0.24331137730E+02  0.24665379036E+02  0.51100000000E-03 0. -1.
        -11    1    4    4    0    0 -0.17639833278E+01  0.57002146203E+00  0.11151240385E+01  0.21633454487E+01  0.51100000000E-03 0.  1.
        -12    1    4    4    0    0 -0.25530948842E+01 -0.55001941367E+01  0.18336968898E+02  0.19313592556E+02  0.00000000000E+00 0.  1.
</event>
<event>
 8    1  0.2999643E-009  0.9118800E+02  0.7816164E-02  0.1184000E+00
        -11   -1    0    0    0    0  0.00000000000E+00  0.00000000000E+00  0.45593999997E+02  0.45594000000E+02  0.51100000000E-03 0. -1.
         11   -1    0    0    0    0 -0.00000000000E+00 -0.00000000000E+00 -0.45593999997E+02  0.45594000000E+02  0.51100000000E-03 0.  1.
         23    2    1    2    0    0 -0.17763568394E-14  0.88817841970E-15  0.71054273576E-14  0.91188000000E+02  0.91188000000E+02 0.  0.
    9900012    2    3    3    0    0 -0.95011038592E+01  0.35674806227E+01  0.43887534371E+02  0.46142316903E+02  0.99999921722E+01 0.  0.
        -12    1    3    3    0    0  0.95011038592E+01 -0.35674806227E+01 -0.43887534371E+02  0.45045683097E+02  0.00000000000E+00 0.  1.
         11    1    4    4    0    0 -0.95818767119E+01 -0.32098850441E+00  0.35785336695E+02  0.37047344272E+02  0.51100000000E-03 0. -1.
        -11    1    4    4    0    0  0.14487685333E+00  0.25022379640E+01  0.36211388554E+01  0.44039562898E+01  0.51100000000E-03 0.  1.
         12    1    4    4    0    0 -0.64104000647E-01  0.13862311630E+01  0.44810588201E+01  0.46910163408E+01  0.00000000000E+00 0. -1.
</event>
<event>
 8    1  0.2882335E-009  0.9118800E+02  0.7816164E-02  0.1184000E+00
        -11   -1    0    0    0    0  0.00000000000E+00  0.00000000000E+00  0.45593999997E+02  0.45594000000E+02  0.51100000000E-03 0. -1.
         11   -1    0    0    0    0 -0.00000000000E+00 -0.00000000000E+00 -0.45593999997E+02  0.45594000000E+02  0.51100000000E-03 0.  1.
         23    2    1    2    0    0  0.35527136788E-14  0.00000000000E+00 -0.35527136788E-14  0.91188000000E+02  0.91188000000E+02 0.  0.
    9900012    2    3    3    0    0 -0.24097171415E+02  0.34467561997E+02  0.16137751554E+02  0.46142317349E+02  0.99999962457E+01 0.  0.
        -12    1    3    3    0    0  0.24097171415E+02 -0.34467561997E+02 -0.16137751554E+02  0.45045682651E+02  0.00000000000E+00 0.  1.
         11    1    4    4    0    0 -0.15284335802E+02  0.17532206646E+02  0.93473168892E+01  0.25067140325E+02  0.51100000000E-03 0. -1.
        -11    1    4    4    0    0 -0.69463004335E+01  0.12642258826E+02  0.76309968493E+01  0.16319004599E+02  0.51100000000E-03 0.  1.
        -12    1    4    4    0    0 -0.18665351787E+01  0.42930965253E+01 -0.84056218418E+00  0.47561724248E+01  0.00000000000E+00 0.  1.
</event>
<event>
 8    1  0.2882335E-009  0.9118800E+02  0.7816164E-02  0.1184000E+00
        -11   -1    0    0    0    0  0.00000000000E+00  0.00000000000E+00  0.45593999997E+02  0.45594000000E+02  0.51100000000E-03 0. -1.
         11   -1    0    0    0    0 -0.00000000000E+00 -0.00000000000E+00 -0.45593999997E+02  0.45594000000E+02  0.51100000000E-03 0.  1.
         23    2    1    2    0    0  0.00000000000E+00  0.00000000000E+00  0.00000000000E+00  0.91188000000E+02  0.91188000000E+02 0.  0.
    9900012    2    3    3    0    0  0.16349932194E+02  0.24656908078E+02  0.33968072294E+02  0.46142319474E+02  0.10000015617E+02 0.  0.
        -12    1    3    3    0    0 -0.16349932194E+02 -0.24656908078E+02 -0.33968072294E+02  0.45045680526E+02  0.00000000000E+00 0.  1.
         11    1    4    4    0    0  0.13170530846E+02  0.11793556118E+02  0.19065432091E+02  0.26000799022E+02  0.51100000000E-03 0. -1.
        -11    1    4    4    0    0  0.56160430187E-01  0.16530035612E+01  0.74254259532E+00  0.18129932527E+01  0.51100000000E-03 0.  1.
         12    1    4    4    0    0  0.31232409179E+01  0.11210348398E+02  0.14160097608E+02  0.18328527199E+02  0.00000000000E+00 0. -1.
</event>
<event>
 8    1  0.2882335E-009  0.9118800E+02  0.7816164E-02  0.1184000E+00
        -11   -1    0    0    0    0  0.00000000000E+00  0.00000000000E+00  0.45593999997E+02  0.45594000000E+02  0.51100000000E-03 0. -1.
         11   -1    0    0    0    0 -0.00000000000E+00 -0.00000000000E+00 -0.45593999997E+02  0.45594000000E+02  0.51100000000E-03 0.  1.
         23    2    1    2    0    0  0.00000000000E+00  0.00000000000E+00  0.00000000000E+00  0.91188000000E+02  0.91188000000E+02 0.  0.
    9900012    2    3    3    0    0  0.27827820387E+02 -0.20462654707E+02 -0.28913764156E+02  0.46142316713E+02  0.99999904429E+01 0.  0.
         12    1    3    3    0    0 -0.27827820387E+02  0.20462654707E+02  0.28913764156E+02  0.45045683287E+02  0.00000000000E+00 0. -1.
         11    1    4    4    0    0  0.52381542653E+01 -0.39816706603E+01 -0.83081413961E+01  0.10597979764E+02  0.51100000000E-03 0. -1.
        -11    1    4    4    0    0  0.45076749029E+01 -0.89419018942E+00 -0.11230400370E+01  0.47307428921E+01  0.51100000000E-03 0.  1.
        -12    1    4    4    0    0  0.18081991219E+02 -0.15586793857E+02 -0.19482582723E+02  0.30813594057E+02  0.00000000000E+00 0.  1.
</event>
<event>
 8    1  0.2882335E-009  0.9118800E+02  0.7816164E-02  0.1184000E+00
        -11   -1    0    0    0    0  0.00000000000E+00  0.00000000000E+00  0.45593999997E+02  0.45594000000E+02  0.51100000000E-03 0.  1.
         11   -1    0    0    0    0 -0.00000000000E+00 -0.00000000000E+00 -0.45593999997E+02  0.45594000000E+02  0.51100000000E-03 0. -1.
         23    2    1    2    0    0  0.71054273576E-14  0.71054273576E-14  0.00000000000E+00  0.91188000000E+02  0.91188000000E+02 0.  0.
    9900012    2    3    3    0    0 -0.21186125226E+02 -0.35315796940E+02 -0.18249816279E+02  0.46142320853E+02  0.10000028193E+02 0.  0.
         12    1    3    3    0    0  0.21186125226E+02  0.35315796940E+02  0.18249816279E+02  0.45045679147E+02  0.00000000000E+00 0. -1.
         11    1    4    4    0    0 -0.15393130181E+02 -0.27866735718E+02 -0.13984976638E+02  0.34771870645E+02  0.51100000000E-03 0.  1.
        -11    1    4    4    0    0 -0.50046008478E+01 -0.66277454424E+01 -0.15796667587E+01  0.84538977179E+01  0.51100000000E-03 0. -1.
         12    1    4    4    0    0 -0.78839419709E+00 -0.82131578019E+00 -0.26851728817E+01  0.29165524897E+01  0.00000000000E+00 0. -1.
</event>
<event>
 8    1  0.2882335E-009  0.9118800E+02  0.7816164E-02  0.1184000E+00
        -11   -1    0    0    0    0  0.00000000000E+00  0.00000000000E+00  0.45593999997E+02  0.45594000000E+02  0.51100000000E-03 0. -1.
         11   -1    0    0    0    0 -0.00000000000E+00 -0.00000000000E+00 -0.45593999997E+02  0.45594000000E+02  0.51100000000E-03 0.  1.
         23    2    1    2    0    0 -0.17763568394E-14  0.71054273576E-14  0.00000000000E+00  0.91188000000E+02  0.91188000000E+02 0.  0.
    9900012    2    3    3    0    0 -0.10985055200E+02 -0.43485278131E+02  0.41800308478E+01  0.46142317523E+02  0.99999978326E+01 0.  0.
        -12    1    3    3    0    0  0.10985055200E+02  0.43485278131E+02 -0.41800308478E+01  0.45045682477E+02  0.00000000000E+00 0.  1.
         11    1    4    4    0    0 -0.79292832004E+01 -0.25111162945E+02  0.68882044759E-01  0.26333415683E+02  0.51100000000E-03 0. -1.
        -11    1    4    4    0    0 -0.59141472696E+00 -0.10897933654E+02 -0.30435420826E-01  0.10914011905E+02  0.51100000000E-03 0.  1.
        -12    1    4    4    0    0 -0.24643572728E+01 -0.74761815324E+01  0.41415842239E+01  0.88948899351E+01  0.00000000000E+00 0.  1.
</event>
<event>
 8    1  0.3335892E-009  0.9118800E+02  0.7816164E-02  0.1184000E+00
        -11   -1    0    0    0    0  0.00000000000E+00  0.00000000000E+00  0.45593999997E+02  0.45594000000E+02  0.51100000000E-03 0. -1.
         11   -1    0    0    0    0 -0.00000000000E+00 -0.00000000000E+00 -0.45593999997E+02  0.45594000000E+02  0.51100000000E-03 0.  1.
         23    2    1    2    0    0  0.88817841970E-15 -0.71054273576E-14 -0.71054273576E-14  0.91188000000E+02  0.91188000000E+02 0.  0.
    9900012    2    3    3    0    0  0.76585298361E+01 -0.29697722965E+02 -0.32992509498E+02  0.46142317503E+02  0.99999976503E+01 0.  0.
         12    1    3    3    0    0 -0.76585298361E+01  0.29697722965E+02  0.32992509498E+02  0.45045682497E+02  0.00000000000E+00 0. -1.
         11    1    4    4    0    0 -0.53253570463E-01 -0.69095292775E+00 -0.35236936111E+01  0.35911932303E+01  0.51100000000E-03 0. -1.
        -11    1    4    4    0    0  0.65372087479E+01 -0.26078923067E+02 -0.23111018962E+02  0.35453695495E+02  0.51100000000E-03 0.  1.
        -12    1    4    4    0    0  0.11745746586E+01 -0.29278469703E+01 -0.63577969253E+01  0.70974287777E+01  0.00000000000E+00 0.  1.
</event>
<event>
 8    1  0.2882335E-009  0.9118800E+02  0.7816164E-02  0.1184000E+00
        -11   -1    0    0    0    0  0.00000000000E+00  0.00000000000E+00  0.45593999997E+02  0.45594000000E+02  0.51100000000E-03 0. -1.
         11   -1    0    0    0    0 -0.00000000000E+00 -0.00000000000E+00 -0.45593999997E+02  0.45594000000E+02  0.51100000000E-03 0.  1.
         23    2    1    2    0    0  0.00000000000E+00  0.00000000000E+00  0.00000000000E+00  0.91188000000E+02  0.91188000000E+02 0.  0.
    9900012    2    3    3    0    0 -0.25163582811E+02 -0.39127562837E+01 -0.37156398112E+02  0.46142317829E+02  0.10000000617E+02 0.  0.
         12    1    3    3    0    0  0.25163582811E+02  0.39127562837E+01  0.37156398112E+02  0.45045682171E+02  0.00000000000E+00 0. -1.
         11    1    4    4    0    0 -0.11720106982E+02  0.42041301262E+00 -0.20046542481E+02  0.23225019279E+02  0.51100000000E-03 0. -1.
        -11    1    4    4    0    0 -0.62867203468E+00 -0.38866006723E+00 -0.43355043617E+01  0.43980545138E+01  0.51100000000E-03 0.  1.
        -12    1    4    4    0    0 -0.12814803793E+02 -0.39445092291E+01 -0.12774351269E+02  0.18519244036E+02  0.00000000000E+00 0.  1.
</event>
<event>
 8    1  0.2882335E-009  0.9118800E+02  0.7816164E-02  0.1184000E+00
        -11   -1    0    0    0    0  0.00000000000E+00  0.00000000000E+00  0.45593999997E+02  0.45594000000E+02  0.51100000000E-03 0. -1.
         11   -1    0    0    0    0 -0.00000000000E+00 -0.00000000000E+00 -0.45593999997E+02  0.45594000000E+02  0.51100000000E-03 0.  1.
         23    2    1    2    0    0  0.35527136788E-14 -0.71054273576E-14  0.00000000000E+00  0.91188000000E+02  0.91188000000E+02 0.  0.
    9900012    2    3    3    0    0 -0.25100083457E+02 -0.36120143707E+02 -0.97176783925E+01  0.46142331570E+02  0.10000125916E+02 0.  0.
         12    1    3    3    0    0  0.25100083457E+02  0.36120143707E+02  0.97176783925E+01  0.45045668430E+02  0.00000000000E+00 0. -1.
         11    1    4    4    0    0 -0.14504788070E+01  0.62685234029E-01 -0.62632847916E+00  0.15811722971E+01  0.51100000000E-03 0. -1.
        -11    1    4    4    0    0 -0.21722855510E+02 -0.34629548347E+02 -0.96968241583E+01  0.42013289198E+02  0.51100000000E-03 0.  1.
        -12    1    4    4    0    0 -0.19267491403E+01 -0.15532805942E+01  0.60547424498E+00  0.25478700742E+01  0.00000000000E+00 0.  1.
</event>
<event>
 8    1  0.2882335E-009  0.9118800E+02  0.7816164E-02  0.1184000E+00
        -11   -1    0    0    0    0  0.00000000000E+00  0.00000000000E+00  0.45593999997E+02  0.45594000000E+02  0.51100000000E-03 0. -1.
         11   -1    0    0    0    0 -0.00000000000E+00 -0.00000000000E+00 -0.45593999997E+02  0.45594000000E+02  0.51100000000E-03 0.  1.
         23    2    1    2    0    0  0.00000000000E+00  0.22204460493E-15  0.35527136788E-14  0.91188000000E+02  0.91188000000E+02 0.  0.
    9900012    2    3    3    0    0 -0.36880003921E+02  0.15051088412E+01  0.25820794769E+02  0.46142317806E+02  0.10000000407E+02 0.  0.
        -12    1    3    3    0    0  0.36880003921E+02 -0.15051088412E+01 -0.25820794769E+02  0.45045682194E+02  0.00000000000E+00 0.  1.
         11    1    4    4    0    0 -0.20826390560E+02  0.29379350515E+01  0.12351159241E+02  0.24391005329E+02  0.51100000000E-03 0. -1.
        -11    1    4    4    0    0  0.27955235612E+00 -0.40915850797E+00  0.11971287205E+01  0.12956379275E+01  0.51100000000E-03 0.  1.
         12    1    4    4    0    0 -0.16333165718E+02 -0.10236677023E+01  0.12272506807E+02  0.20455674549E+02  0.00000000000E+00 0. -1.
</event>
<event>
 8    1  0.2882335E-009  0.9118800E+02  0.7816164E-02  0.1184000E+00
        -11   -1    0    0    0    0  0.00000000000E+00  0.00000000000E+00  0.45593999997E+02  0.45594000000E+02  0.51100000000E-03 0. -1.
         11   -1    0    0    0    0 -0.00000000000E+00 -0.00000000000E+00 -0.45593999997E+02  0.45594000000E+02  0.51100000000E-03 0.  1.
         23    2    1    2    0    0 -0.88817841970E-15 -0.88817841970E-15  0.00000000000E+00  0.91188000000E+02  0.91188000000E+02 0.  0.
    9900012    2    3    3    0    0  0.74349816263E+01 -0.54339454526E+01  0.44094294376E+02  0.46142317505E+02  0.99999976606E+01 0.  0.
        -12    1    3    3    0    0 -0.74349816263E+01  0.54339454526E+01 -0.44094294376E+02  0.45045682495E+02  0.00000000000E+00 0.  1.
         11    1    4    4    0    0  0.13708552182E+00 -0.65100704550E+00  0.18952763421E+02  0.18964436300E+02  0.51100000000E-03 0. -1.
        -11    1    4    4    0    0  0.67751811363E+01 -0.42787211052E+01  0.25205705336E+02  0.26448782874E+02  0.51100000000E-03 0.  1.
         12    1    4    4    0    0  0.52271496821E+00 -0.50421730187E+00 -0.64174381398E-01  0.72909833131E+00  0.00000000000E+00 0. -1.
</event>
<event>
 8    1  0.2882335E-009  0.9118800E+02  0.7816164E-02  0.1184000E+00
        -11   -1    0    0    0    0  0.00000000000E+00  0.00000000000E+00  0.45593999997E+02  0.45594000000E+02  0.51100000000E-03 0. -1.
         11   -1    0    0    0    0 -0.00000000000E+00 -0.00000000000E+00 -0.45593999997E+02  0.45594000000E+02  0.51100000000E-03 0.  1.
         23    2    1    2    0    0  0.00000000000E+00  0.00000000000E+00  0.00000000000E+00  0.91188000000E+02  0.91188000000E+02 0.  0.
    9900012    2    3    3    0    0  0.68197634854E+01  0.23440373128E+02  0.37857010587E+02  0.46142317444E+02  0.99999971047E+01 0.  0.
        -12    1    3    3    0    0 -0.68197634854E+01 -0.23440373128E+02 -0.37857010587E+02  0.45045682556E+02  0.00000000000E+00 0.  1.
         11    1    4    4    0    0  0.44123236895E+01  0.72711906620E+01  0.16482122214E+02  0.18547214533E+02  0.51100000000E-03 0. -1.
        -11    1    4    4    0    0  0.52411389167E+00  0.62367229517E+01  0.38055285339E+01  0.73248519596E+01  0.51100000000E-03 0.  1.
        -12    1    4    4    0    0  0.18833259042E+01  0.99324595143E+01  0.17569359839E+02  0.20270250951E+02  0.00000000000E+00 0.  1.
</event>
<event>
 8    1  0.2882335E-009  0.9118800E+02  0.7816164E-02  0.1184000E+00
        -11   -1    0    0    0    0  0.00000000000E+00  0.00000000000E+00  0.45593999997E+02  0.45594000000E+02  0.51100000000E-03 0. -1.
         11   -1    0    0    0    0 -0.00000000000E+00 -0.00000000000E+00 -0.45593999997E+02  0.45594000000E+02  0.51100000000E-03 0.  1.
         23    2    1    2    0    0  0.00000000000E+00  0.00000000000E+00  0.00000000000E+00  0.91188000000E+02  0.91188000000E+02 0.  0.
    9900012    2    3    3    0    0 -0.26478914596E+02 -0.28916286230E+02  0.22177218553E+02  0.46142317074E+02  0.99999937355E+01 0.  0.
        -12    1    3    3    0    0  0.26478914596E+02  0.28916286230E+02 -0.22177218553E+02  0.45045682926E+02  0.00000000000E+00 0.  1.
         11    1    4    4    0    0 -0.14130310713E+02 -0.14683020375E+02  0.74727225585E+01  0.21704800181E+02  0.51100000000E-03 0. -1.
        -11    1    4    4    0    0 -0.13485362987E+01 -0.43896502938E+01  0.22010004839E+01  0.50923455541E+01  0.51100000000E-03 0.  1.
        -12    1    4    4    0    0 -0.11000067584E+02 -0.98436155611E+01  0.12503495510E+02  0.19345171339E+02  0.00000000000E+00 0.  1.
</event>
<event>
 8    1  0.2882335E-009  0.9118800E+02  0.7816164E-02  0.1184000E+00
        -11   -1    0    0    0    0  0.00000000000E+00  0.00000000000E+00  0.45593999997E+02  0.45594000000E+02  0.51100000000E-03 0.  1.
         11   -1    0    0    0    0 -0.00000000000E+00 -0.00000000000E+00 -0.45593999997E+02  0.45594000000E+02  0.51100000000E-03 0. -1.
         23    2    1    2    0    0  0.71054273576E-14  0.00000000000E+00  0.66613381478E-15  0.91188000000E+02  0.91188000000E+02 0.  0.
    9900012    2    3    3    0    0  0.36868004429E+02 -0.25804992730E+02  0.19914961920E+01  0.46142318105E+02  0.10000003133E+02 0.  0.
        -12    1    3    3    0    0 -0.36868004429E+02  0.25804992730E+02 -0.19914961920E+01  0.45045681895E+02  0.00000000000E+00 0.  1.
         11    1    4    4    0    0  0.16697009182E+02 -0.86050772199E+01 -0.20988801881E+00  0.18785141011E+02  0.51100000000E-03 0. -1.
        -11    1    4    4    0    0  0.10666574884E+02 -0.62382814019E+01  0.33516111086E+01  0.12803330500E+02  0.51100000000E-03 0.  1.
        -12    1    4    4    0    0  0.95044203631E+01 -0.10961634108E+02 -0.11502268977E+01  0.14553846594E+02  0.00000000000E+00 0.  1.
</event>
<event>
 8    1  0.2882335E-009  0.9118800E+02  0.7816164E-02  0.1184000E+00
        -11   -1    0    0    0    0  0.00000000000E+00  0.00000000000E+00  0.45593999997E+02  0.45594000000E+02  0.51100000000E-03 0.  1.
         11   -1    0    0    0    0 -0.00000000000E+00 -0.00000000000E+00 -0.45593999997E+02  0.45594000000E+02  0.51100000000E-03 0. -1.
         23    2    1    2    0    0 -0.17763568394E-14  0.00000000000E+00  0.35527136788E-14  0.91188000000E+02  0.91188000000E+02 0.  0.
    9900012    2    3    3    0    0 -0.14279661873E+02  0.34045075352E+02  0.25809637164E+02  0.46142320191E+02  0.10000022158E+02 0.  0.
        -12    1    3    3    0    0  0.14279661873E+02 -0.34045075352E+02 -0.25809637164E+02  0.45045679809E+02  0.00000000000E+00 0.  1.
         11    1    4    4    0    0 -0.69365336895E+01  0.21289772506E+02  0.14619004159E+02  0.26741076939E+02  0.51100000000E-03 0. -1.
        -11    1    4    4    0    0 -0.39994904683E+01  0.11602522039E+02  0.92414992886E+01  0.15362934324E+02  0.51100000000E-03 0.  1.
         12    1    4    4    0    0 -0.33436377148E+01  0.11527808067E+01  0.19491337161E+01  0.40383089282E+01  0.00000000000E+00 0. -1.
</event>
<event>
 8    1  0.3397060E-009  0.9118800E+02  0.7816164E-02  0.1184000E+00
        -11   -1    0    0    0    0  0.00000000000E+00  0.00000000000E+00  0.45593999997E+02  0.45594000000E+02  0.51100000000E-03 0. -1.
         11   -1    0    0    0    0 -0.00000000000E+00 -0.00000000000E+00 -0.45593999997E+02  0.45594000000E+02  0.51100000000E-03 0.  1.
         23    2    1    2    0    0  0.35527136788E-14  0.35527136788E-14  0.71054273576E-14  0.91188000000E+02  0.91188000000E+02 0.  0.
    9900012    2    3    3    0    0 -0.26961862186E+02 -0.15883163890E+02 -0.32402110295E+02  0.46142315864E+02  0.99999827021E+01 0.  0.
         12    1    3    3    0    0  0.26961862186E+02  0.15883163890E+02  0.32402110295E+02  0.45045684136E+02  0.00000000000E+00 0. -1.
         11    1    4    4    0    0 -0.41983981652E-01  0.78225295399E-02 -0.20667145770E+01  0.20671558361E+01  0.51100000000E-03 0. -1.
        -11    1    4    4    0    0 -0.24775489915E+02 -0.15249391456E+02 -0.30038529215E+02  0.41817246179E+02  0.51100000000E-03 0.  1.
        -12    1    4    4    0    0 -0.21443882889E+01 -0.64159496378E+00 -0.29686650346E+00  0.22579138495E+01  0.00000000000E+00 0.  1.
</event>
<event>
 8    1  0.2882335E-009  0.9118800E+02  0.7816164E-02  0.1184000E+00
        -11   -1    0    0    0    0  0.00000000000E+00  0.00000000000E+00  0.45593999997E+02  0.45594000000E+02  0.51100000000E-03 0.  1.
         11   -1    0    0    0    0 -0.00000000000E+00 -0.00000000000E+00 -0.45593999997E+02  0.45594000000E+02  0.51100000000E-03 0. -1.
         23    2    1    2    0    0 -0.35527136788E-14  0.71054273576E-14  0.00000000000E+00  0.91188000000E+02  0.91188000000E+02 0.  0.
    9900012    2    3    3    0    0  0.16930449338E+02  0.41624217768E+02  0.31460885429E+01  0.46142317713E+02  0.99999995608E+01 0.  0.
        -12    1    3    3    0    0 -0.16930449338E+02 -0.41624217768E+02 -0.31460885429E+01  0.45045682287E+02  0.00000000000E+00 0.  1.
         11    1    4    4    0    0  0.66727198186E+01  0.87425329596E+01  0.18288410565E+01  0.11149068670E+02  0.51100000000E-03 0. -1.
        -11    1    4    4    0    0  0.60795811513E+00  0.10943289573E+00  0.54081446851E+00  0.82101716114E+00  0.51100000000E-03 0.  1.
        -12    1    4    4    0    0  0.96497714042E+01  0.32772251913E+02  0.77643301784E+00  0.34172231882E+02  0.00000000000E+00 0.  1.
</event>
<event>
 8    1  0.2882335E-009  0.9118800E+02  0.7816164E-02  0.1184000E+00
        -11   -1    0    0    0    0  0.00000000000E+00  0.00000000000E+00  0.45593999997E+02  0.45594000000E+02  0.51100000000E-03 0. -1.
         11   -1    0    0    0    0 -0.00000000000E+00 -0.00000000000E+00 -0.45593999997E+02  0.45594000000E+02  0.51100000000E-03 0.  1.
         23    2    1    2    0    0  0.17763568394E-14  0.00000000000E+00  0.00000000000E+00  0.91188000000E+02  0.91188000000E+02 0.  0.
    9900012    2    3    3    0    0  0.10884227429E+02 -0.21542279202E+02  0.38033897042E+02  0.46142317364E+02  0.99999963762E+01 0.  0.
        -12    1    3    3    0    0 -0.10884227429E+02  0.21542279202E+02 -0.38033897042E+02  0.45045682636E+02  0.00000000000E+00 0.  1.
         11    1    4    4    0    0  0.33354213674E+01 -0.46103167934E+01  0.13071448817E+02  0.14256326002E+02  0.51100000000E-03 0. -1.
        -11    1    4    4    0    0  0.53543693546E+01 -0.11223864737E+02  0.21556028856E+02  0.24885875334E+02  0.51100000000E-03 0.  1.
        -12    1    4    4    0    0  0.21944367066E+01 -0.57080976716E+01  0.34064193693E+01  0.70001160281E+01  0.00000000000E+00 0.  1.
</event>
<event>
 8    1  0.2882335E-009  0.9118800E+02  0.7816164E-02  0.1184000E+00
        -11   -1    0    0    0    0  0.00000000000E+00  0.00000000000E+00  0.45593999997E+02  0.45594000000E+02  0.51100000000E-03 0. -1.
         11   -1    0    0    0    0 -0.00000000000E+00 -0.00000000000E+00 -0.45593999997E+02  0.45594000000E+02  0.51100000000E-03 0.  1.
         23    2    1    2    0    0 -0.35527136788E-14  0.00000000000E+00 -0.71054273576E-14  0.91188000000E+02  0.91188000000E+02 0.  0.
    9900012    2    3    3    0    0 -0.21216642234E+02 -0.20890792045E+02 -0.33801516154E+02  0.46142316585E+02  0.99999892798E+01 0.  0.
         12    1    3    3    0    0  0.21216642234E+02  0.20890792045E+02  0.33801516154E+02  0.45045683415E+02  0.00000000000E+00 0. -1.
         11    1    4    4    0    0 -0.12336644365E+02 -0.93980997605E+01 -0.12634856052E+02  0.20003916142E+02  0.51100000000E-03 0. -1.
        -11    1    4    4    0    0 -0.25089970534E+01 -0.25696918088E+01 -0.93635577165E+01  0.10028688627E+02  0.51100000000E-03 0.  1.
        -12    1    4    4    0    0 -0.63710008156E+01 -0.89230004762E+01 -0.11803102385E+02  0.16109711816E+02  0.00000000000E+00 0.  1.
</event>
<event>
 8    1  0.2882335E-009  0.9118800E+02  0.7816164E-02  0.1184000E+00
        -11   -1    0    0    0    0  0.00000000000E+00  0.00000000000E+00  0.45593999997E+02  0.45594000000E+02  0.51100000000E-03 0. -1.
         11   -1    0    0    0    0 -0.00000000000E+00 -0.00000000000E+00 -0.45593999997E+02  0.45594000000E+02  0.51100000000E-03 0.  1.
         23    2    1    2    0    0  0.00000000000E+00  0.00000000000E+00 -0.71054273576E-14  0.91188000000E+02  0.91188000000E+02 0.  0.
    9900012    2    3    3    0    0 -0.34043145196E+01 -0.40985776017E+01  0.44729473862E+02  0.46142317324E+02  0.99999960183E+01 0.  0.
        -12    1    3    3    0    0  0.34043145196E+01  0.40985776017E+01 -0.44729473862E+02  0.45045682676E+02  0.00000000000E+00 0.  1.
         11    1    4    4    0    0  0.13225910472E+01  0.61224219811E+00  0.92423286716E+00  0.17257735196E+01  0.51100000000E-03 0. -1.
        -11    1    4    4    0    0 -0.28370894332E+01 -0.74771089734E+00  0.19139332930E+02  0.19362908183E+02  0.51100000000E-03 0.  1.
         12    1    4    4    0    0 -0.18898161335E+01 -0.39631089025E+01  0.24665908066E+02  0.25053635622E+02  0.00000000000E+00 0. -1.
</event>
<event>
 8    1  0.2882335E-009  0.9118800E+02  0.7816164E-02  0.1184000E+00
        -11   -1    0    0    0    0  0.00000000000E+00  0.00000000000E+00  0.45593999997E+02  0.45594000000E+02  0.51100000000E-03 0. -1.
         11   -1    0    0    0    0 -0.00000000000E+00 -0.00000000000E+00 -0.45593999997E+02  0.45594000000E+02  0.51100000000E-03 0.  1.
         23    2    1    2    0    0  0.00000000000E+00  0.00000000000E+00  0.00000000000E+00  0.91188000000E+02  0.91188000000E+02 0.  0.
    9900012    2    3    3    0    0  0.16585568388E+02 -0.27249764125E+02 -0.31803817058E+02  0.46142317598E+02  0.99999985106E+01 0.  0.
         12    1    3    3    0    0 -0.16585568388E+02  0.27249764125E+02  0.31803817058E+02  0.45045682402E+02  0.00000000000E+00 0. -1.
         11    1    4    4    0    0  0.28927783520E+01 -0.24778258492E+01 -0.76058997590E+01  0.85063211166E+01  0.51100000000E-03 0. -1.
        -11    1    4    4    0    0  0.58397396430E+01 -0.80015766815E+01 -0.55462282003E+01  0.11352904298E+02  0.51100000000E-03 0.  1.
        -12    1    4    4    0    0  0.78530503933E+01 -0.16770361594E+02 -0.18651689099E+02  0.26283092183E+02  0.00000000000E+00 0.  1.
</event>
<event>
 8    1  0.3188307E-009  0.9118800E+02  0.7816164E-02  0.1184000E+00
        -11   -1    0    0    0    0  0.00000000000E+00  0.00000000000E+00  0.45593999997E+02  0.45594000000E+02  0.51100000000E-03 0. -1.
         11   -1    0    0    0    0 -0.00000000000E+00 -0.00000000000E+00 -0.45593999997E+02  0.45594000000E+02  0.51100000000E-03 0.  1.
         23    2    1    2    0    0  0.00000000000E+00  0.35527136788E-14 -0.35527136788E-14  0.91188000000E+02  0.91188000000E+02 0.  0.
    9900012    2    3    3    0    0 -0.26831863276E+02  0.18558813372E+02 -0.31060185100E+02  0.46142317198E+02  0.99999948659E+01 0.  0.
         12    1    3    3    0    0  0.26831863276E+02 -0.18558813372E+02  0.31060185100E+02  0.45045682802E+02  0.00000000000E+00 0. -1.
         11    1    4    4    0    0 -0.14636869178E+00 -0.16401435693E+00  0.39395203315E+00  0.45113520008E+00  0.51100000000E-03 0. -1.
        -11    1    4    4    0    0 -0.25199877941E+02  0.18959206504E+02 -0.30689252613E+02  0.44003586055E+02  0.51100000000E-03 0.  1.
        -12    1    4    4    0    0 -0.14856166435E+01 -0.23637877547E+00 -0.76488451991E+00  0.16875959426E+01  0.00000000000E+00 0.  1.
</event>
<event>
 8    1  0.2882335E-009  0.9118800E+02  0.7816164E-02  0.1184000E+00
        -11   -1    0    0    0    0  0.00000000000E+00  0.00000000000E+00  0.45593999997E+02  0.45594000000E+02  0.51100000000E-03 0. -1.
         11   -1    0    0    0    0 -0.00000000000E+00 -0.00000000000E+00 -0.45593999997E+02  0.45594000000E+02  0.51100000000E-03 0.  1.
         23    2    1    2    0    0  0.71054273576E-14  0.00000000000E+00  0.00000000000E+00  0.91188000000E+02  0.91188000000E+02 0.  0.
    9900012    2    3    3    0    0  0.40483401068E+02 -0.39842997278E+01 -0.19347685765E+02  0.46142319288E+02  0.10000013922E+02 0.  0.
         12    1    3    3    0    0 -0.40483401068E+02  0.39842997278E+01  0.19347685765E+02  0.45045680712E+02  0.00000000000E+00 0. -1.
         11    1    4    4    0    0  0.18474462223E+02 -0.16763639996E+01 -0.56073781890E+01  0.19379335414E+02  0.51100000000E-03 0. -1.
        -11    1    4    4    0    0  0.88377898805E+01 -0.27713104824E+01 -0.29217209687E+01  0.97120103707E+01  0.51100000000E-03 0.  1.
         12    1    4    4    0    0  0.13171148965E+02  0.46337475424E+00 -0.10818586608E+02  0.17050973503E+02  0.00000000000E+00 0. -1.
</event>
<event>
 8    1  0.2882335E-009  0.9118800E+02  0.7816164E-02  0.1184000E+00
        -11   -1    0    0    0    0  0.00000000000E+00  0.00000000000E+00  0.45593999997E+02  0.45594000000E+02  0.51100000000E-03 0. -1.
         11   -1    0    0    0    0 -0.00000000000E+00 -0.00000000000E+00 -0.45593999997E+02  0.45594000000E+02  0.51100000000E-03 0.  1.
         23    2    1    2    0    0  0.00000000000E+00 -0.44408920985E-15  0.00000000000E+00  0.91188000000E+02  0.91188000000E+02 0.  0.
    9900012    2    3    3    0    0 -0.32819689294E+02  0.20732963992E+01 -0.30784457893E+02  0.46142318619E+02  0.10000007824E+02 0.  0.
         12    1    3    3    0    0  0.32819689294E+02 -0.20732963992E+01  0.30784457893E+02  0.45045681381E+02  0.00000000000E+00 0. -1.
         11    1    4    4    0    0 -0.78176868153E+01 -0.23977978974E+01 -0.47742777945E+01  0.94688642729E+01  0.51100000000E-03 0. -1.
        -11    1    4    4    0    0 -0.18056891035E+02  0.38759841597E+01 -0.15765313319E+02  0.24282085400E+02  0.51100000000E-03 0.  1.
         12    1    4    4    0    0 -0.69451114433E+01  0.59511013677E+00 -0.10244866779E+02  0.12391368946E+02  0.00000000000E+00 0. -1.
</event>
<event>
 8    1  0.2882335E-009  0.9118800E+02  0.7816164E-02  0.1184000E+00
        -11   -1    0    0    0    0  0.00000000000E+00  0.00000000000E+00  0.45593999997E+02  0.45594000000E+02  0.51100000000E-03 0. -1.
         11   -1    0    0    0    0 -0.00000000000E+00 -0.00000000000E+00 -0.45593999997E+02  0.45594000000E+02  0.51100000000E-03 0.  1.
         23    2    1    2    0    0  0.17763568394E-14  0.35527136788E-14  0.71054273576E-14  0.91188000000E+02  0.91188000000E+02 0.  0.
    9900012    2    3    3    0    0  0.12945283344E+02  0.21741419161E+02 -0.37267196349E+02  0.46142316614E+02  0.99999895375E+01 0.  0.
         12    1    3    3    0    0 -0.12945283344E+02 -0.21741419161E+02  0.37267196349E+02  0.45045683386E+02  0.00000000000E+00 0. -1.
         11    1    4    4    0    0  0.19368239979E+01  0.13282552586E+01 -0.10210341160E+02  0.10476956433E+02  0.51100000000E-03 0. -1.
        -11    1    4    4    0    0  0.17814940592E+01  0.44991057367E+01 -0.54355086711E+01  0.72773915854E+01  0.51100000000E-03 0.  1.
         12    1    4    4    0    0  0.92269652872E+01  0.15914058166E+02 -0.21621346518E+02  0.28387968595E+02  0.00000000000E+00 0. -1.
</event>
<event>
 8    1  0.2882335E-009  0.9118800E+02  0.7816164E-02  0.1184000E+00
        -11   -1    0    0    0    0  0.00000000000E+00  0.00000000000E+00  0.45593999997E+02  0.45594000000E+02  0.51100000000E-03 0. -1.
         11   -1    0    0    0    0 -0.00000000000E+00 -0.00000000000E+00 -0.45593999997E+02  0.45594000000E+02  0.51100000000E-03 0.  1.
         23    2    1    2    0    0  0.00000000000E+00  0.00000000000E+00  0.00000000000E+00  0.91188000000E+02  0.91188000000E+02 0.  0.
    9900012    2    3    3    0    0 -0.11072644779E+02  0.20531049252E+02 -0.38535516045E+02  0.46142318269E+02  0.10000004628E+02 0.  0.
         12    1    3    3    0    0  0.11072644779E+02 -0.20531049252E+02  0.38535516045E+02  0.45045681731E+02  0.00000000000E+00 0. -1.
         11    1    4    4    0    0 -0.11826806111E+01  0.49121039376E+01 -0.42537716821E+01  0.66047007734E+01  0.51100000000E-03 0. -1.
        -11    1    4    4    0    0 -0.79169176709E+01  0.10294523265E+02 -0.17302258601E+02  0.21633838023E+02  0.51100000000E-03 0.  1.
         12    1    4    4    0    0 -0.19730464973E+01  0.53244220493E+01 -0.16979485762E+02  0.17903779472E+02  0.00000000000E+00 0. -1.
</event>
<event>
 8    1  0.2882335E-009  0.9118800E+02  0.7816164E-02  0.1184000E+00
        -11   -1    0    0    0    0  0.00000000000E+00  0.00000000000E+00  0.45593999997E+02  0.45594000000E+02  0.51100000000E-03 0.  1.
         11   -1    0    0    0    0 -0.00000000000E+00 -0.00000000000E+00 -0.45593999997E+02  0.45594000000E+02  0.51100000000E-03 0. -1.
         23    2    1    2    0    0  0.00000000000E+00  0.00000000000E+00  0.00000000000E+00  0.91188000000E+02  0.91188000000E+02 0.  0.
    9900012    2    3    3    0    0  0.31503874536E+02  0.28529508985E+02  0.14922681838E+02  0.46142318443E+02  0.10000006214E+02 0.  0.
        -12    1    3    3    0    0 -0.31503874536E+02 -0.28529508985E+02 -0.14922681838E+02  0.45045681557E+02  0.00000000000E+00 0.  1.
         11    1    4    4    0    0  0.16524898257E+02  0.14971398835E+02  0.59451622191E+01  0.23077261526E+02  0.51100000000E-03 0. -1.
        -11    1    4    4    0    0  0.15431035438E+02  0.12056698505E+02  0.76984933473E+01  0.21041569181E+02  0.51100000000E-03 0.  1.
        -12    1    4    4    0    0 -0.45205915839E+00  0.15014116449E+01  0.12790262718E+01  0.20234877351E+01  0.00000000000E+00 0.  1.
</event>
<event>
 8    1  0.2882335E-009  0.9118800E+02  0.7816164E-02  0.1184000E+00
        -11   -1    0    0    0    0  0.00000000000E+00  0.00000000000E+00  0.45593999997E+02  0.45594000000E+02  0.51100000000E-03 0. -1.
         11   -1    0    0    0    0 -0.00000000000E+00 -0.00000000000E+00 -0.45593999997E+02  0.45594000000E+02  0.51100000000E-03 0.  1.
         23    2    1    2    0    0  0.00000000000E+00 -0.35527136788E-14 -0.71054273576E-14  0.91188000000E+02  0.91188000000E+02 0.  0.
    9900012    2    3    3    0    0 -0.43118501080E+01 -0.31301078647E+02 -0.32105511633E+02  0.46142318153E+02  0.10000003574E+02 0.  0.
         12    1    3    3    0    0  0.43118501080E+01  0.31301078647E+02  0.32105511633E+02  0.45045681847E+02  0.00000000000E+00 0. -1.
         11    1    4    4    0    0 -0.46465067183E+01 -0.79143939235E+01 -0.60141964937E+01  0.10972612068E+02  0.51100000000E-03 0. -1.
        -11    1    4    4    0    0  0.10809309434E+01 -0.16814081164E+02 -0.20269429162E+02  0.26357759690E+02  0.51100000000E-03 0.  1.
         12    1    4    4    0    0 -0.74627433302E+00 -0.65726035601E+01 -0.58218859776E+01  0.88119463954E+01  0.00000000000E+00 0. -1.
</event>
<event>
 8    1  0.2882335E-009  0.9118800E+02  0.7816164E-02  0.1184000E+00
        -11   -1    0    0    0    0  0.00000000000E+00  0.00000000000E+00  0.45593999997E+02  0.45594000000E+02  0.51100000000E-03 0. -1.
         11   -1    0    0    0    0 -0.00000000000E+00 -0.00000000000E+00 -0.45593999997E+02  0.45594000000E+02  0.51100000000E-03 0.  1.
         23    2    1    2    0    0 -0.88817841970E-15  0.00000000000E+00  0.71054273576E-14  0.91188000000E+02  0.91188000000E+02 0.  0.
    9900012    2    3    3    0    0 -0.68383563978E+01 -0.20512622460E+02  0.39516862927E+02  0.46142320362E+02  0.10000023720E+02 0.  0.
        -12    1    3    3    0    0  0.68383563978E+01  0.20512622460E+02 -0.39516862927E+02  0.45045679638E+02  0.00000000000E+00 0.  1.
         11    1    4    4    0    0 -0.22561889206E+01 -0.26455998904E+00  0.68317503853E+01  0.71995273471E+01  0.51100000000E-03 0. -1.
        -11    1    4    4    0    0 -0.50675061244E+01 -0.17108428476E+02  0.25907334757E+02  0.31457398775E+02  0.51100000000E-03 0.  1.
        -12    1    4    4    0    0  0.48533864711E+00 -0.31396339955E+01  0.67777777850E+01  0.74853942402E+01  0.00000000000E+00 0.  1.
</event>
<event>
 8    1  0.2882335E-009  0.9118800E+02  0.7816164E-02  0.1184000E+00
        -11   -1    0    0    0    0  0.00000000000E+00  0.00000000000E+00  0.45593999997E+02  0.45594000000E+02  0.51100000000E-03 0. -1.
         11   -1    0    0    0    0 -0.00000000000E+00 -0.00000000000E+00 -0.45593999997E+02  0.45594000000E+02  0.51100000000E-03 0.  1.
         23    2    1    2    0    0  0.17763568394E-14  0.00000000000E+00  0.71054273576E-14  0.91188000000E+02  0.91188000000E+02 0.  0.
    9900012    2    3    3    0    0  0.15636824100E+02 -0.31206491861E+01 -0.42129142052E+02  0.46142319527E+02  0.10000016099E+02 0.  0.
         12    1    3    3    0    0 -0.15636824100E+02  0.31206491861E+01  0.42129142052E+02  0.45045680473E+02  0.00000000000E+00 0. -1.
         11    1    4    4    0    0  0.15466797864E+01 -0.30549421827E+01 -0.65833030644E+01  0.74205639678E+01  0.51100000000E-03 0. -1.
        -11    1    4    4    0    0  0.14622951876E+02  0.35493796818E+00 -0.33194651913E+02  0.36274531264E+02  0.51100000000E-03 0.  1.
         12    1    4    4    0    0 -0.53280756208E+00 -0.42064497157E+00 -0.23511870741E+01  0.24472242945E+01  0.00000000000E+00 0. -1.
</event>
<event>
 8    1  0.2882335E-009  0.9118800E+02  0.7816164E-02  0.1184000E+00
        -11   -1    0    0    0    0  0.00000000000E+00  0.00000000000E+00  0.45593999997E+02  0.45594000000E+02  0.51100000000E-03 0. -1.
         11   -1    0    0    0    0 -0.00000000000E+00 -0.00000000000E+00 -0.45593999997E+02  0.45594000000E+02  0.51100000000E-03 0.  1.
         23    2    1    2    0    0 -0.35527136788E-14 -0.17763568394E-14  0.71054273576E-14  0.91188000000E+02  0.91188000000E+02 0.  0.
    9900012    2    3    3    0    0 -0.20166591578E+02 -0.95542056226E+01  0.39129772981E+02  0.46142318803E+02  0.10000009501E+02 0.  0.
        -12    1    3    3    0    0  0.20166591578E+02  0.95542056226E+01 -0.39129772981E+02  0.45045681197E+02  0.00000000000E+00 0.  1.
         11    1    4    4    0    0 -0.75344568761E+01 -0.29312247643E+01  0.14398640622E+02  0.16513054565E+02  0.51100000000E-03 0. -1.
        -11    1    4    4    0    0 -0.24546240837E+01 -0.30225495212E+01  0.18116161505E+01  0.42945242272E+01  0.51100000000E-03 0.  1.
        -12    1    4    4    0    0 -0.10177510619E+02 -0.36004313371E+01  0.22919516209E+02  0.25334740011E+02  0.00000000000E+00 0.  1.
</event>
<event>
 8    1  0.2882335E-009  0.9118800E+02  0.7816164E-02  0.1184000E+00
        -11   -1    0    0    0    0  0.00000000000E+00  0.00000000000E+00  0.45593999997E+02  0.45594000000E+02  0.51100000000E-03 0. -1.
         11   -1    0    0    0    0 -0.00000000000E+00 -0.00000000000E+00 -0.45593999997E+02  0.45594000000E+02  0.51100000000E-03 0.  1.
         23    2    1    2    0    0 -0.35527136788E-14  0.14210854715E-13 -0.35527136788E-14  0.91188000000E+02  0.91188000000E+02 0.  0.
    9900012    2    3    3    0    0  0.90177109510E+01 -0.35683990249E+02  0.25970116142E+02  0.46142320925E+02  0.10000028853E+02 0.  0.
        -12    1    3    3    0    0 -0.90177109510E+01  0.35683990249E+02 -0.25970116142E+02  0.45045679075E+02  0.00000000000E+00 0.  1.
         11    1    4    4    0    0  0.75721427545E+01 -0.22786936542E+02  0.21039274254E+02  0.31925426924E+02  0.51100000000E-03 0. -1.
        -11    1    4    4    0    0  0.17172654775E+01 -0.66177343830E+01  0.13034405083E+01  0.69600550647E+01  0.51100000000E-03 0.  1.
         12    1    4    4    0    0 -0.27169728097E+00 -0.62793193240E+01  0.36274013794E+01  0.72568389366E+01  0.00000000000E+00 0. -1.
</event>
<event>
 8    1  0.2882335E-009  0.9118800E+02  0.7816164E-02  0.1184000E+00
        -11   -1    0    0    0    0  0.00000000000E+00  0.00000000000E+00  0.45593999997E+02  0.45594000000E+02  0.51100000000E-03 0. -1.
         11   -1    0    0    0    0 -0.00000000000E+00 -0.00000000000E+00 -0.45593999997E+02  0.45594000000E+02  0.51100000000E-03 0.  1.
         23    2    1    2    0    0 -0.35527136788E-14 -0.35527136788E-14  0.71054273576E-14  0.91188000000E+02  0.91188000000E+02 0.  0.
    9900012    2    3    3    0    0  0.27629170797E+02  0.20566879955E+02 -0.29030073543E+02  0.46142325403E+02  0.10000069683E+02 0.  0.
         12    1    3    3    0    0 -0.27629170797E+02 -0.20566879955E+02  0.29030073543E+02  0.45045674597E+02  0.00000000000E+00 0. -1.
         11    1    4    4    0    0  0.16416216025E+00  0.42855714603E+00  0.37798995935E+00  0.59454782210E+00  0.51100000000E-03 0. -1.
        -11    1    4    4    0    0  0.24048813677E+02  0.14343213502E+02 -0.22686955892E+02  0.36038468068E+02  0.51100000000E-03 0.  1.
        -12    1    4    4    0    0  0.34161949596E+01  0.57951093073E+01 -0.67211076108E+01  0.95093095123E+01  0.00000000000E+00 0.  1.
</event>
<event>
 8    1  0.2882335E-009  0.9118800E+02  0.7816164E-02  0.1184000E+00
        -11   -1    0    0    0    0  0.00000000000E+00  0.00000000000E+00  0.45593999997E+02  0.45594000000E+02  0.51100000000E-03 0. -1.
         11   -1    0    0    0    0 -0.00000000000E+00 -0.00000000000E+00 -0.45593999997E+02  0.45594000000E+02  0.51100000000E-03 0.  1.
         23    2    1    2    0    0 -0.71054273576E-14  0.00000000000E+00 -0.17763568394E-14  0.91188000000E+02  0.91188000000E+02 0.  0.
    9900012    2    3    3    0    0 -0.29089931753E+02 -0.33122273368E+02  0.92630605549E+01  0.46142318594E+02  0.10000007595E+02 0.  0.
        -12    1    3    3    0    0  0.29089931753E+02  0.33122273368E+02 -0.92630605549E+01  0.45045681406E+02  0.00000000000E+00 0.  1.
         11    1    4    4    0    0 -0.19329354236E+02 -0.28026512474E+02  0.69113197299E+01  0.34740116253E+02  0.51100000000E-03 0. -1.
        -11    1    4    4    0    0 -0.89002288325E+01 -0.40084372476E+01  0.19041999313E+01  0.99452310219E+01  0.51100000000E-03 0.  1.
        -12    1    4    4    0    0 -0.86034868452E+00 -0.10873236469E+01  0.44754089367E+00  0.14569713187E+01  0.00000000000E+00 0.  1.
</event>
<event>
 8    1  0.2882335E-009  0.9118800E+02  0.7816164E-02  0.1184000E+00
        -11   -1    0    0    0    0  0.00000000000E+00  0.00000000000E+00  0.45593999997E+02  0.45594000000E+02  0.51100000000E-03 0.  1.
         11   -1    0    0    0    0 -0.00000000000E+00 -0.00000000000E+00 -0.45593999997E+02  0.45594000000E+02  0.51100000000E-03 0. -1.
         23    2    1    2    0    0  0.00000000000E+00 -0.17763568394E-14  0.88817841970E-15  0.91188000000E+02  0.91188000000E+02 0.  0.
    9900012    2    3    3    0    0 -0.43213060971E+02  0.10779070240E+02 -0.67495567656E+01  0.46142317518E+02  0.99999977860E+01 0.  0.
         12    1    3    3    0    0  0.43213060971E+02 -0.10779070240E+02  0.67495567656E+01  0.45045682482E+02  0.00000000000E+00 0. -1.
         11    1    4    4    0    0 -0.15559358183E+02  0.42777133606E+01 -0.64771221753E+01  0.17388087031E+02  0.51100000000E-03 0. -1.
        -11    1    4    4    0    0 -0.10152533823E+02  0.45618275646E+01 -0.54723633302E+00  0.11143773222E+02  0.51100000000E-03 0.  1.
         12    1    4    4    0    0 -0.17501168965E+02  0.19395293149E+01  0.27480174279E+00  0.17610457265E+02  0.00000000000E+00 0. -1.
</event>
<event>
 8    1  0.3797721E-009  0.9118800E+02  0.7816164E-02  0.1184000E+00
        -11   -1    0    0    0    0  0.00000000000E+00  0.00000000000E+00  0.45593999997E+02  0.45594000000E+02  0.51100000000E-03 0. -1.
         11   -1    0    0    0    0 -0.00000000000E+00 -0.00000000000E+00 -0.45593999997E+02  0.45594000000E+02  0.51100000000E-03 0.  1.
         23    2    1    2    0    0  0.00000000000E+00  0.00000000000E+00  0.00000000000E+00  0.91188000000E+02  0.91188000000E+02 0.  0.
    9900012    2    3    3    0    0  0.26343542154E+01  0.22328501002E+02  0.39033469090E+02  0.46142317761E+02  0.99999999996E+01 0.  0.
        -12    1    3    3    0    0 -0.26343542154E+01 -0.22328501002E+02 -0.39033469090E+02  0.45045682239E+02  0.00000000000E+00 0.  1.
         11    1    4    4    0    0  0.50762758504E+01  0.86397544730E+01  0.12787202215E+02  0.16245814065E+02  0.51100000000E-03 0. -1.
        -11    1    4    4    0    0 -0.13474533041E+01  0.14273513380E+01  0.28706007440E+01  0.34775438374E+01  0.51100000000E-03 0.  1.
         12    1    4    4    0    0 -0.10944683309E+01  0.12261395191E+02  0.23375666131E+02  0.26418959859E+02  0.00000000000E+00 0. -1.
</event>
<event>
 8    1  0.2882335E-009  0.9118800E+02  0.7816164E-02  0.1184000E+00
        -11   -1    0    0    0    0  0.00000000000E+00  0.00000000000E+00  0.45593999997E+02  0.45594000000E+02  0.51100000000E-03 0. -1.
         11   -1    0    0    0    0 -0.00000000000E+00 -0.00000000000E+00 -0.45593999997E+02  0.45594000000E+02  0.51100000000E-03 0.  1.
         23    2    1    2    0    0 -0.44408920985E-15  0.00000000000E+00  0.71054273576E-14  0.91188000000E+02  0.91188000000E+02 0.  0.
    9900012    2    3    3    0    0  0.23436264566E+01 -0.22670850161E+02 -0.38854258095E+02  0.46142318697E+02  0.10000008532E+02 0.  0.
         12    1    3    3    0    0 -0.23436264566E+01  0.22670850161E+02  0.38854258095E+02  0.45045681303E+02  0.00000000000E+00 0. -1.
         11    1    4    4    0    0  0.37240779731E+01 -0.93765862495E+01 -0.23342090360E+02  0.25429162572E+02  0.51100000000E-03 0.  1.
        -11    1    4    4    0    0 -0.37376076987E+00 -0.73566948822E+01 -0.62246819731E+01  0.96440304142E+01  0.51100000000E-03 0. -1.
        -12    1    4    4    0    0 -0.10066907467E+01 -0.59375690294E+01 -0.92874857612E+01  0.11069125711E+02  0.00000000000E+00 0.  1.
</event>
<event>
 8    1  0.3164738E-009  0.9118800E+02  0.7816164E-02  0.1184000E+00
        -11   -1    0    0    0    0  0.00000000000E+00  0.00000000000E+00  0.45593999997E+02  0.45594000000E+02  0.51100000000E-03 0. -1.
         11   -1    0    0    0    0 -0.00000000000E+00 -0.00000000000E+00 -0.45593999997E+02  0.45594000000E+02  0.51100000000E-03 0.  1.
         23    2    1    2    0    0  0.00000000000E+00  0.71054273576E-14  0.35527136788E-14  0.91188000000E+02  0.91188000000E+02 0.  0.
    9900012    2    3    3    0    0  0.52297044433E+01  0.38105987340E+02  0.23445625812E+02  0.46142318193E+02  0.10000003936E+02 0.  0.
        -12    1    3    3    0    0 -0.52297044433E+01 -0.38105987340E+02 -0.23445625812E+02  0.45045681807E+02  0.00000000000E+00 0.  1.
         11    1    4    4    0    0  0.48985995704E+01  0.37264766782E+02  0.20921705824E+02  0.43016007438E+02  0.51100000000E-03 0. -1.
        -11    1    4    4    0    0 -0.62380575004E+00  0.10707958216E+00  0.73897166650E+00  0.97297432429E+00  0.51100000000E-03 0.  1.
         12    1    4    4    0    0  0.95491062298E+00  0.73414097632E+00  0.17849483221E+01  0.21533364306E+01  0.00000000000E+00 0. -1.
</event>
<event>
 8    1  0.2882335E-009  0.9118800E+02  0.7816164E-02  0.1184000E+00
        -11   -1    0    0    0    0  0.00000000000E+00  0.00000000000E+00  0.45593999997E+02  0.45594000000E+02  0.51100000000E-03 0. -1.
         11   -1    0    0    0    0 -0.00000000000E+00 -0.00000000000E+00 -0.45593999997E+02  0.45594000000E+02  0.51100000000E-03 0.  1.
         23    2    1    2    0    0  0.00000000000E+00  0.00000000000E+00 -0.71054273576E-14  0.91188000000E+02  0.91188000000E+02 0.  0.
    9900012    2    3    3    0    0 -0.12415008621E+01 -0.75167299654E+01 -0.44396744450E+02  0.46142317948E+02  0.10000001702E+02 0.  0.
         12    1    3    3    0    0  0.12415008621E+01  0.75167299654E+01  0.44396744450E+02  0.45045682052E+02  0.00000000000E+00 0. -1.
         11    1    4    4    0    0 -0.27553492703E+01  0.67500904585E+00 -0.62794744845E+01  0.68905287806E+01  0.51100000000E-03 0. -1.
        -11    1    4    4    0    0 -0.14258120468E+01 -0.26055508594E+01 -0.98393112954E+01  0.10277834514E+02  0.51100000000E-03 0.  1.
         12    1    4    4    0    0  0.29396604550E+01 -0.55861881518E+01 -0.28277958670E+02  0.28973954653E+02  0.00000000000E+00 0. -1.
</event>
<event>
 8    1  0.2882335E-009  0.9118800E+02  0.7816164E-02  0.1184000E+00
        -11   -1    0    0    0    0  0.00000000000E+00  0.00000000000E+00  0.45593999997E+02  0.45594000000E+02  0.51100000000E-03 0. -1.
         11   -1    0    0    0    0 -0.00000000000E+00 -0.00000000000E+00 -0.45593999997E+02  0.45594000000E+02  0.51100000000E-03 0.  1.
         23    2    1    2    0    0 -0.17763568394E-14  0.17763568394E-14  0.71054273576E-14  0.91188000000E+02  0.91188000000E+02 0.  0.
    9900012    2    3    3    0    0 -0.97195726276E+01  0.10405152538E+02  0.42736119918E+02  0.46142320550E+02  0.10000025435E+02 0.  0.
        -12    1    3    3    0    0  0.97195726276E+01 -0.10405152538E+02 -0.42736119918E+02  0.45045679450E+02  0.00000000000E+00 0.  1.
         11    1    4    4    0    0 -0.35763831613E+01  0.40030370685E+00  0.16683619977E+02  0.17067335334E+02  0.51100000000E-03 0. -1.
        -11    1    4    4    0    0 -0.22906282071E+01  0.80260851314E+01  0.19606179237E+02  0.21308854607E+02  0.51100000000E-03 0.  1.
        -12    1    4    4    0    0 -0.38525612592E+01  0.19787636995E+01  0.64463207040E+01  0.77661306101E+01  0.00000000000E+00 0.  1.
</event>
<event>
 8    1  0.2882335E-009  0.9118800E+02  0.7816164E-02  0.1184000E+00
        -11   -1    0    0    0    0  0.00000000000E+00  0.00000000000E+00  0.45593999997E+02  0.45594000000E+02  0.51100000000E-03 0. -1.
         11   -1    0    0    0    0 -0.00000000000E+00 -0.00000000000E+00 -0.45593999997E+02  0.45594000000E+02  0.51100000000E-03 0.  1.
         23    2    1    2    0    0 -0.88817841970E-15  0.00000000000E+00  0.00000000000E+00  0.91188000000E+02  0.91188000000E+02 0.  0.
    9900012    2    3    3    0    0  0.63497935866E+01 -0.37859108927E+02  0.23568658191E+02  0.46142315898E+02  0.99999830096E+01 0.  0.
        -12    1    3    3    0    0 -0.63497935866E+01  0.37859108927E+02 -0.23568658191E+02  0.45045684102E+02  0.00000000000E+00 0.  1.
         11    1    4    4    0    0  0.25675968203E+01 -0.28020251393E+02  0.14953509061E+02  0.31864313504E+02  0.51100000000E-03 0. -1.
        -11    1    4    4    0    0  0.35106107975E+01 -0.75738986732E+01  0.42844190437E+01  0.93832071323E+01  0.51100000000E-03 0.  1.
        -12    1    4    4    0    0  0.27158596881E+00 -0.22649588605E+01  0.43307300862E+01  0.48947952621E+01  0.00000000000E+00 0.  1.
</event>
<event>
 8    1  0.2882335E-009  0.9118800E+02  0.7816164E-02  0.1184000E+00
        -11   -1    0    0    0    0  0.00000000000E+00  0.00000000000E+00  0.45593999997E+02  0.45594000000E+02  0.51100000000E-03 0. -1.
         11   -1    0    0    0    0 -0.00000000000E+00 -0.00000000000E+00 -0.45593999997E+02  0.45594000000E+02  0.51100000000E-03 0.  1.
         23    2    1    2    0    0  0.00000000000E+00  0.35527136788E-14  0.00000000000E+00  0.91188000000E+02  0.91188000000E+02 0.  0.
    9900012    2    3    3    0    0  0.19699177870E+02 -0.23273517697E+02  0.33157189440E+02  0.46142318228E+02  0.10000004253E+02 0.  0.
        -12    1    3    3    0    0 -0.19699177870E+02  0.23273517697E+02 -0.33157189440E+02  0.45045681772E+02  0.00000000000E+00 0.  1.
         11    1    4    4    0    0  0.17069948654E+01 -0.75307312131E+00  0.80912974119E+00  0.20336277426E+01  0.51100000000E-03 0. -1.
        -11    1    4    4    0    0  0.44482518563E+01 -0.15568590322E+01  0.30157617086E+01  0.55951383868E+01  0.51100000000E-03 0.  1.
        -12    1    4    4    0    0  0.13543931148E+02 -0.20963585544E+02  0.29332297991E+02  0.38513552098E+02  0.00000000000E+00 0.  1.
</event>
<event>
 8    1  0.2882335E-009  0.9118800E+02  0.7816164E-02  0.1184000E+00
        -11   -1    0    0    0    0  0.00000000000E+00  0.00000000000E+00  0.45593999997E+02  0.45594000000E+02  0.51100000000E-03 0. -1.
         11   -1    0    0    0    0 -0.00000000000E+00 -0.00000000000E+00 -0.45593999997E+02  0.45594000000E+02  0.51100000000E-03 0.  1.
         23    2    1    2    0    0  0.00000000000E+00  0.00000000000E+00  0.35527136788E-14  0.91188000000E+02  0.91188000000E+02 0.  0.
    9900012    2    3    3    0    0 -0.29387254873E+01  0.36015546110E+02  0.26895305450E+02  0.46142321801E+02  0.10000036841E+02 0.  0.
        -12    1    3    3    0    0  0.29387254873E+01 -0.36015546110E+02 -0.26895305450E+02  0.45045678199E+02  0.00000000000E+00 0.  1.
         11    1    4    4    0    0  0.53518379331E+00  0.18149407292E+02  0.11967442078E+02  0.21746426762E+02  0.51100000000E-03 0. -1.
        -11    1    4    4    0    0 -0.44848401919E+01  0.66438943330E+01  0.57838908515E+01  0.98847618635E+01  0.51100000000E-03 0.  1.
        -12    1    4    4    0    0  0.10109309112E+01  0.11222244485E+02  0.91439725208E+01  0.14511133176E+02  0.00000000000E+00 0.  1.
</event>
<event>
 8    1  0.2882335E-009  0.9118800E+02  0.7816164E-02  0.1184000E+00
        -11   -1    0    0    0    0  0.00000000000E+00  0.00000000000E+00  0.45593999997E+02  0.45594000000E+02  0.51100000000E-03 0. -1.
         11   -1    0    0    0    0 -0.00000000000E+00 -0.00000000000E+00 -0.45593999997E+02  0.45594000000E+02  0.51100000000E-03 0.  1.
         23    2    1    2    0    0  0.00000000000E+00  0.00000000000E+00  0.00000000000E+00  0.91188000000E+02  0.91188000000E+02 0.  0.
    9900012    2    3    3    0    0 -0.14540903524E+02 -0.20696233047E+02 -0.37273871569E+02  0.46142318305E+02  0.10000004960E+02 0.  0.
         12    1    3    3    0    0  0.14540903524E+02  0.20696233047E+02  0.37273871569E+02  0.45045681695E+02  0.00000000000E+00 0. -1.
         11    1    4    4    0    0 -0.41861406204E+01 -0.41482215401E+01 -0.58028439144E+01  0.82707020860E+01  0.51100000000E-03 0. -1.
        -11    1    4    4    0    0 -0.72093195349E+01 -0.47227299153E+01 -0.10418197893E+02  0.13520995289E+02  0.51100000000E-03 0.  1.
        -12    1    4    4    0    0 -0.31454433683E+01 -0.11825281592E+02 -0.21052829761E+02  0.24350620930E+02  0.00000000000E+00 0.  1.
</event>
<event>
 8    1  0.2882335E-009  0.9118800E+02  0.7816164E-02  0.1184000E+00
        -11   -1    0    0    0    0  0.00000000000E+00  0.00000000000E+00  0.45593999997E+02  0.45594000000E+02  0.51100000000E-03 0. -1.
         11   -1    0    0    0    0 -0.00000000000E+00 -0.00000000000E+00 -0.45593999997E+02  0.45594000000E+02  0.51100000000E-03 0.  1.
         23    2    1    2    0    0  0.00000000000E+00 -0.88817841970E-15  0.00000000000E+00  0.91188000000E+02  0.91188000000E+02 0.  0.
    9900012    2    3    3    0    0 -0.17465693609E+02  0.79145284830E+01 -0.40760561474E+02  0.46142316677E+02  0.99999901136E+01 0.  0.
         12    1    3    3    0    0  0.17465693609E+02 -0.79145284830E+01  0.40760561474E+02  0.45045683323E+02  0.00000000000E+00 0. -1.
         11    1    4    4    0    0 -0.42828912432E+00 -0.55571428740E+00 -0.54320657973E+00  0.88731256759E+00  0.51100000000E-03 0. -1.
        -11    1    4    4    0    0 -0.13331053478E+02  0.99096960027E+01 -0.34505279089E+02  0.38295343672E+02  0.51100000000E-03 0.  1.
        -12    1    4    4    0    0 -0.37063510068E+01 -0.14394532323E+01 -0.57120758055E+01  0.69596604372E+01  0.00000000000E+00 0.  1.
</event>
<event>
 8    1  0.2882335E-009  0.9118800E+02  0.7816164E-02  0.1184000E+00
        -11   -1    0    0    0    0  0.00000000000E+00  0.00000000000E+00  0.45593999997E+02  0.45594000000E+02  0.51100000000E-03 0. -1.
         11   -1    0    0    0    0 -0.00000000000E+00 -0.00000000000E+00 -0.45593999997E+02  0.45594000000E+02  0.51100000000E-03 0.  1.
         23    2    1    2    0    0  0.00000000000E+00 -0.17763568394E-14 -0.71054273576E-14  0.91188000000E+02  0.91188000000E+02 0.  0.
    9900012    2    3    3    0    0  0.17252105903E+00  0.14805240775E+02 -0.42542785757E+02  0.46142317212E+02  0.99999949904E+01 0.  0.
         12    1    3    3    0    0 -0.17252105903E+00 -0.14805240775E+02  0.42542785757E+02  0.45045682788E+02  0.00000000000E+00 0. -1.
         11    1    4    4    0    0  0.74316656605E+00  0.15744585592E+01 -0.42445847400E+00  0.17920328002E+01  0.51100000000E-03 0. -1.
        -11    1    4    4    0    0  0.70203612611E+00  0.10050377055E+02 -0.35445770998E+02  0.36849770903E+02  0.51100000000E-03 0.  1.
        -12    1    4    4    0    0 -0.12726816331E+01  0.31804051604E+01 -0.66725562846E+01  0.75005135087E+01  0.00000000000E+00 0.  1.
</event>
<event>
 8    1  0.2882335E-009  0.9118800E+02  0.7816164E-02  0.1184000E+00
        -11   -1    0    0    0    0  0.00000000000E+00  0.00000000000E+00  0.45593999997E+02  0.45594000000E+02  0.51100000000E-03 0. -1.
         11   -1    0    0    0    0 -0.00000000000E+00 -0.00000000000E+00 -0.45593999997E+02  0.45594000000E+02  0.51100000000E-03 0.  1.
         23    2    1    2    0    0  0.00000000000E+00  0.00000000000E+00  0.00000000000E+00  0.91188000000E+02  0.91188000000E+02 0.  0.
    9900012    2    3    3    0    0  0.11888030226E+02 -0.10899915689E+02 -0.42059249239E+02  0.46142313512E+02  0.99999612500E+01 0.  0.
         12    1    3    3    0    0 -0.11888030226E+02  0.10899915689E+02  0.42059249239E+02  0.45045686488E+02  0.00000000000E+00 0. -1.
         11    1    4    4    0    0 -0.12190818375E+01 -0.22351702820E+01 -0.67569872341E+01  0.72207356591E+01  0.51100000000E-03 0.  1.
        -11    1    4    4    0    0  0.49141548384E+00 -0.19480109600E+01 -0.58345714627E+01  0.61707746914E+01  0.51100000000E-03 0. -1.
         12    1    4    4    0    0  0.12615696580E+02 -0.67167344470E+01 -0.29467690542E+02  0.32750803161E+02  0.00000000000E+00 0. -1.
</event>
<event>
 8    1  0.2882335E-009  0.9118800E+02  0.7816164E-02  0.1184000E+00
        -11   -1    0    0    0    0  0.00000000000E+00  0.00000000000E+00  0.45593999997E+02  0.45594000000E+02  0.51100000000E-03 0. -1.
         11   -1    0    0    0    0 -0.00000000000E+00 -0.00000000000E+00 -0.45593999997E+02  0.45594000000E+02  0.51100000000E-03 0.  1.
         23    2    1    2    0    0  0.17763568394E-14  0.00000000000E+00  0.17763568394E-14  0.91188000000E+02  0.91188000000E+02 0.  0.
    9900012    2    3    3    0    0  0.12725521438E+02 -0.42857949762E+02  0.55109663381E+01  0.46142317591E+02  0.99999984516E+01 0.  0.
        -12    1    3    3    0    0 -0.12725521438E+02  0.42857949762E+02 -0.55109663381E+01  0.45045682409E+02  0.00000000000E+00 0.  1.
         11    1    4    4    0    0  0.30242953522E+01 -0.10535055332E+02  0.43107887205E+01  0.11777803398E+02  0.51100000000E-03 0. -1.
        -11    1    4    4    0    0 -0.76228657510E+00 -0.87143064534E+00  0.34132389900E+00  0.12070519696E+01  0.51100000000E-03 0.  1.
         12    1    4    4    0    0  0.10463512661E+02 -0.31451463784E+02  0.85885371864E+00  0.33157462223E+02  0.00000000000E+00 0. -1.
</event>
<event>
 8    1  0.2882335E-009  0.9118800E+02  0.7816164E-02  0.1184000E+00
        -11   -1    0    0    0    0  0.00000000000E+00  0.00000000000E+00  0.45593999997E+02  0.45594000000E+02  0.51100000000E-03 0. -1.
         11   -1    0    0    0    0 -0.00000000000E+00 -0.00000000000E+00 -0.45593999997E+02  0.45594000000E+02  0.51100000000E-03 0.  1.
         23    2    1    2    0    0  0.00000000000E+00 -0.17763568394E-14  0.00000000000E+00  0.91188000000E+02  0.91188000000E+02 0.  0.
    9900012    2    3    3    0    0 -0.92384023954E+00 -0.10630740122E+02  0.43763540493E+02  0.46142316602E+02  0.99999894303E+01 0.  0.
        -12    1    3    3    0    0  0.92384023954E+00  0.10630740122E+02 -0.43763540493E+02  0.45045683398E+02  0.00000000000E+00 0.  1.
         11    1    4    4    0    0 -0.14906709099E+01 -0.95002640119E+01  0.36948817676E+02  0.38179736039E+02  0.51100000000E-03 0. -1.
        -11    1    4    4    0    0  0.18813972704E+01 -0.54673400289E+00  0.15306821522E+01  0.24862746974E+01  0.51100000000E-03 0.  1.
        -12    1    4    4    0    0 -0.13145666000E+01 -0.58374210749E+00  0.52840406645E+01  0.54763058660E+01  0.00000000000E+00 0.  1.
</event>
<event>
 8    1  0.2882335E-009  0.9118800E+02  0.7816164E-02  0.1184000E+00
        -11   -1    0    0    0    0  0.00000000000E+00  0.00000000000E+00  0.45593999997E+02  0.45594000000E+02  0.51100000000E-03 0. -1.
         11   -1    0    0    0    0 -0.00000000000E+00 -0.00000000000E+00 -0.45593999997E+02  0.45594000000E+02  0.51100000000E-03 0.  1.
         23    2    1    2    0    0  0.00000000000E+00  0.00000000000E+00  0.00000000000E+00  0.91188000000E+02  0.91188000000E+02 0.  0.
    9900012    2    3    3    0    0 -0.84519846872E+01  0.16154802074E+02  0.41191015531E+02  0.46142318346E+02  0.10000005331E+02 0.  0.
        -12    1    3    3    0    0  0.84519846872E+01 -0.16154802074E+02 -0.41191015531E+02  0.45045681654E+02  0.00000000000E+00 0.  1.
         11    1    4    4    0    0 -0.42139960113E+01  0.11960095414E+02  0.27935403317E+02  0.30678794035E+02  0.51100000000E-03 0. -1.
        -11    1    4    4    0    0  0.31011213402E-01  0.20205371817E+01  0.84103774753E+01  0.86497388248E+01  0.51100000000E-03 0.  1.
         12    1    4    4    0    0 -0.42689998892E+01  0.21741694788E+01  0.48452347387E+01  0.68137854861E+01  0.00000000000E+00 0. -1.
</event>
<event>
 8    1  0.2882335E-009  0.9118800E+02  0.7816164E-02  0.1184000E+00
        -11   -1    0    0    0    0  0.00000000000E+00  0.00000000000E+00  0.45593999997E+02  0.45594000000E+02  0.51100000000E-03 0. -1.
         11   -1    0    0    0    0 -0.00000000000E+00 -0.00000000000E+00 -0.45593999997E+02  0.45594000000E+02  0.51100000000E-03 0.  1.
         23    2    1    2    0    0  0.00000000000E+00  0.00000000000E+00  0.00000000000E+00  0.91188000000E+02  0.91188000000E+02 0.  0.
    9900012    2    3    3    0    0  0.14585954546E+02 -0.21244395630E+02  0.36946434861E+02  0.46142318025E+02  0.10000002406E+02 0.  0.
        -12    1    3    3    0    0 -0.14585954546E+02  0.21244395630E+02 -0.36946434861E+02  0.45045681975E+02  0.00000000000E+00 0.  1.
         11    1    4    4    0    0  0.30046484726E+01 -0.17229472907E+01  0.52033184053E+01  0.62506785630E+01  0.51100000000E-03 0. -1.
        -11    1    4    4    0    0  0.87986585453E+01 -0.16899180144E+02  0.20363062386E+02  0.27886430244E+02  0.51100000000E-03 0.  1.
        -12    1    4    4    0    0  0.27826475279E+01 -0.26222681950E+01  0.11380054069E+02  0.12005209218E+02  0.00000000000E+00 0.  1.
</event>
<event>
 8    1  0.2882335E-009  0.9118800E+02  0.7816164E-02  0.1184000E+00
        -11   -1    0    0    0    0  0.00000000000E+00  0.00000000000E+00  0.45593999997E+02  0.45594000000E+02  0.51100000000E-03 0. -1.
         11   -1    0    0    0    0 -0.00000000000E+00 -0.00000000000E+00 -0.45593999997E+02  0.45594000000E+02  0.51100000000E-03 0.  1.
         23    2    1    2    0    0  0.00000000000E+00 -0.35527136788E-14  0.00000000000E+00  0.91188000000E+02  0.91188000000E+02 0.  0.
    9900012    2    3    3    0    0  0.18778988171E+02  0.25876222002E+02 -0.31731439373E+02  0.46142317560E+02  0.99999981673E+01 0.  0.
         12    1    3    3    0    0 -0.18778988171E+02 -0.25876222002E+02  0.31731439373E+02  0.45045682440E+02  0.00000000000E+00 0. -1.
         11    1    4    4    0    0  0.23487794972E+01  0.87529488444E+01 -0.90568517548E+01  0.12812394100E+02  0.51100000000E-03 0.  1.
        -11    1    4    4    0    0  0.15535603130E+02  0.17400676865E+02 -0.20885191232E+02  0.31310217710E+02  0.51100000000E-03 0. -1.
         12    1    4    4    0    0  0.89460554316E+00 -0.27740370678E+00 -0.17893963853E+01  0.20197057504E+01  0.00000000000E+00 0. -1.
</event>
<event>
 8    1  0.2882335E-009  0.9118800E+02  0.7816164E-02  0.1184000E+00
        -11   -1    0    0    0    0  0.00000000000E+00  0.00000000000E+00  0.45593999997E+02  0.45594000000E+02  0.51100000000E-03 0. -1.
         11   -1    0    0    0    0 -0.00000000000E+00 -0.00000000000E+00 -0.45593999997E+02  0.45594000000E+02  0.51100000000E-03 0.  1.
         23    2    1    2    0    0 -0.17763568394E-14 -0.35527136788E-14  0.00000000000E+00  0.91188000000E+02  0.91188000000E+02 0.  0.
    9900012    2    3    3    0    0 -0.81098961407E+01 -0.14302909891E+02  0.41937690926E+02  0.46142316889E+02  0.99999920474E+01 0.  0.
        -12    1    3    3    0    0  0.81098961407E+01  0.14302909891E+02 -0.41937690926E+02  0.45045683111E+02  0.00000000000E+00 0.  1.
         11    1    4    4    0    0 -0.75137210315E+01 -0.11986048771E+02  0.39910638308E+02  0.42343599508E+02  0.51100000000E-03 0. -1.
        -11    1    4    4    0    0 -0.88657248595E+00 -0.66930552553E+00  0.17933468333E+01  0.21095197996E+01  0.51100000000E-03 0.  1.
         12    1    4    4    0    0  0.29039737675E+00 -0.16475555947E+01  0.23370578380E+00  0.16891975810E+01  0.00000000000E+00 0. -1.
</event>
<event>
 8    1  0.2882335E-009  0.9118800E+02  0.7816164E-02  0.1184000E+00
        -11   -1    0    0    0    0  0.00000000000E+00  0.00000000000E+00  0.45593999997E+02  0.45594000000E+02  0.51100000000E-03 0.  1.
         11   -1    0    0    0    0 -0.00000000000E+00 -0.00000000000E+00 -0.45593999997E+02  0.45594000000E+02  0.51100000000E-03 0. -1.
         23    2    1    2    0    0  0.00000000000E+00  0.00000000000E+00  0.00000000000E+00  0.91188000000E+02  0.91188000000E+02 0.  0.
    9900012    2    3    3    0    0  0.19681239862E+02  0.39234263007E+02 -0.10121019643E+02  0.46142316136E+02  0.99999851813E+01 0.  0.
        -12    1    3    3    0    0 -0.19681239862E+02 -0.39234263007E+02  0.10121019643E+02  0.45045683864E+02  0.00000000000E+00 0.  1.
         11    1    4    4    0    0  0.12955062352E+02  0.24780137957E+02 -0.11057508921E+02  0.30069209859E+02  0.51100000000E-03 0. -1.
        -11    1    4    4    0    0  0.19678930396E+01  0.25898191168E+01  0.42110859114E+00  0.32798016373E+01  0.51100000000E-03 0.  1.
         12    1    4    4    0    0  0.47582844698E+01  0.11864305933E+02  0.51538068727E+00  0.12793304640E+02  0.00000000000E+00 0. -1.
</event>
<event>
 8    1  0.2882335E-009  0.9118800E+02  0.7816164E-02  0.1184000E+00
        -11   -1    0    0    0    0  0.00000000000E+00  0.00000000000E+00  0.45593999997E+02  0.45594000000E+02  0.51100000000E-03 0. -1.
         11   -1    0    0    0    0 -0.00000000000E+00 -0.00000000000E+00 -0.45593999997E+02  0.45594000000E+02  0.51100000000E-03 0.  1.
         23    2    1    2    0    0  0.00000000000E+00  0.22204460493E-15  0.00000000000E+00  0.91188000000E+02  0.91188000000E+02 0.  0.
    9900012    2    3    3    0    0  0.15686097535E+02 -0.12474777765E+01 -0.42207860263E+02  0.46142319579E+02  0.10000016574E+02 0.  0.
         12    1    3    3    0    0 -0.15686097535E+02  0.12474777765E+01  0.42207860263E+02  0.45045680421E+02  0.00000000000E+00 0. -1.
         11    1    4    4    0    0  0.21931360587E+01 -0.33658652951E+01 -0.92608461547E+01  0.10094660307E+02  0.51100000000E-03 0. -1.
        -11    1    4    4    0    0  0.28910535632E+01  0.23753272438E+00 -0.13602511995E+02  0.13908376805E+02  0.51100000000E-03 0.  1.
        -12    1    4    4    0    0  0.10601907913E+02  0.18808547942E+01 -0.19344502112E+02  0.22139282466E+02  0.00000000000E+00 0.  1.
</event>
<event>
 8    1  0.2882335E-009  0.9118800E+02  0.7816164E-02  0.1184000E+00
        -11   -1    0    0    0    0  0.00000000000E+00  0.00000000000E+00  0.45593999997E+02  0.45594000000E+02  0.51100000000E-03 0. -1.
         11   -1    0    0    0    0 -0.00000000000E+00 -0.00000000000E+00 -0.45593999997E+02  0.45594000000E+02  0.51100000000E-03 0.  1.
         23    2    1    2    0    0  0.00000000000E+00  0.00000000000E+00  0.00000000000E+00  0.91188000000E+02  0.91188000000E+02 0.  0.
    9900012    2    3    3    0    0 -0.92001503316E+01 -0.33668696817E+02  0.28476124182E+02  0.46142316967E+02  0.99999927549E+01 0.  0.
        -12    1    3    3    0    0  0.92001503316E+01  0.33668696817E+02 -0.28476124182E+02  0.45045683033E+02  0.00000000000E+00 0.  1.
         11    1    4    4    0    0 -0.10810792175E+01 -0.11124023348E+02  0.87658317811E+01  0.14203958420E+02  0.51100000000E-03 0. -1.
        -11    1    4    4    0    0 -0.31610514368E+01 -0.17759723139E+01  0.41924054048E+01  0.55427959718E+01  0.51100000000E-03 0.  1.
        -12    1    4    4    0    0 -0.49580196772E+01 -0.20768701155E+02  0.15517886996E+02  0.26395562574E+02  0.00000000000E+00 0.  1.
</event>
<event>
 8    1  0.2882335E-009  0.9118800E+02  0.7816164E-02  0.1184000E+00
        -11   -1    0    0    0    0  0.00000000000E+00  0.00000000000E+00  0.45593999997E+02  0.45594000000E+02  0.51100000000E-03 0. -1.
         11   -1    0    0    0    0 -0.00000000000E+00 -0.00000000000E+00 -0.45593999997E+02  0.45594000000E+02  0.51100000000E-03 0.  1.
         23    2    1    2    0    0  0.00000000000E+00 -0.88817841970E-15 -0.71054273576E-14  0.91188000000E+02  0.91188000000E+02 0.  0.
    9900012    2    3    3    0    0  0.32285671196E+02  0.63153602647E+01  0.30771177861E+02  0.46142315114E+02  0.99999758639E+01 0.  0.
        -12    1    3    3    0    0 -0.32285671196E+02 -0.63153602647E+01 -0.30771177861E+02  0.45045684886E+02  0.00000000000E+00 0.  1.
         11    1    4    4    0    0  0.35260972682E+01  0.46624129533E+00  0.29803583158E+01  0.46403964100E+01  0.51100000000E-03 0. -1.
        -11    1    4    4    0    0  0.23984215142E+02  0.15176168386E+01  0.19195277006E+02  0.30757184469E+02  0.51100000000E-03 0.  1.
        -12    1    4    4    0    0  0.47753587858E+01  0.43315021308E+01  0.85955425395E+01  0.10744734235E+02  0.00000000000E+00 0.  1.
</event>
<event>
 8    1  0.2882335E-009  0.9118800E+02  0.7816164E-02  0.1184000E+00
        -11   -1    0    0    0    0  0.00000000000E+00  0.00000000000E+00  0.45593999997E+02  0.45594000000E+02  0.51100000000E-03 0. -1.
         11   -1    0    0    0    0 -0.00000000000E+00 -0.00000000000E+00 -0.45593999997E+02  0.45594000000E+02  0.51100000000E-03 0.  1.
         23    2    1    2    0    0 -0.35527136788E-14  0.17763568394E-14  0.71054273576E-14  0.91188000000E+02  0.91188000000E+02 0.  0.
    9900012    2    3    3    0    0 -0.23117418559E+02 -0.13069787421E+02 -0.36385149295E+02  0.46142317928E+02  0.10000001525E+02 0.  0.
         12    1    3    3    0    0  0.23117418559E+02  0.13069787421E+02  0.36385149295E+02  0.45045682072E+02  0.00000000000E+00 0. -1.
         11    1    4    4    0    0 -0.16928991386E+02 -0.88657073233E+01 -0.21640231993E+02  0.28870246910E+02  0.51100000000E-03 0. -1.
        -11    1    4    4    0    0 -0.58844360506E+01 -0.47720054026E+01 -0.14799087671E+02  0.16625631397E+02  0.51100000000E-03 0.  1.
         12    1    4    4    0    0 -0.30399112287E+00  0.56792530499E+00  0.54170368870E-01  0.64643962107E+00  0.00000000000E+00 0. -1.
</event>
<event>
 8    1  0.2882335E-009  0.9118800E+02  0.7816164E-02  0.1184000E+00
        -11   -1    0    0    0    0  0.00000000000E+00  0.00000000000E+00  0.45593999997E+02  0.45594000000E+02  0.51100000000E-03 0. -1.
         11   -1    0    0    0    0 -0.00000000000E+00 -0.00000000000E+00 -0.45593999997E+02  0.45594000000E+02  0.51100000000E-03 0.  1.
         23    2    1    2    0    0  0.00000000000E+00  0.44408920985E-15  0.00000000000E+00  0.91188000000E+02  0.91188000000E+02 0.  0.
    9900012    2    3    3    0    0  0.21555669717E+02  0.88454563805E+00  0.39543446130E+02  0.46142318189E+02  0.10000003902E+02 0.  0.
        -12    1    3    3    0    0 -0.21555669717E+02 -0.88454563805E+00 -0.39543446130E+02  0.45045681811E+02  0.00000000000E+00 0.  1.
         11    1    4    4    0    0  0.13604641748E+02  0.12374963094E+01  0.25574748476E+02  0.28994575943E+02  0.51100000000E-03 0. -1.
        -11    1    4    4    0    0  0.61381013726E+01 -0.28404686362E+01  0.83946786942E+01  0.10780314521E+02  0.51100000000E-03 0.  1.
        -12    1    4    4    0    0  0.18129265960E+01  0.24875179649E+01  0.55740189600E+01  0.63674277252E+01  0.00000000000E+00 0.  1.
</event>
<event>
 8    1  0.2882335E-009  0.9118800E+02  0.7816164E-02  0.1184000E+00
        -11   -1    0    0    0    0  0.00000000000E+00  0.00000000000E+00  0.45593999997E+02  0.45594000000E+02  0.51100000000E-03 0. -1.
         11   -1    0    0    0    0 -0.00000000000E+00 -0.00000000000E+00 -0.45593999997E+02  0.45594000000E+02  0.51100000000E-03 0.  1.
         23    2    1    2    0    0 -0.17763568394E-14  0.00000000000E+00  0.35527136788E-14  0.91188000000E+02  0.91188000000E+02 0.  0.
    9900012    2    3    3    0    0  0.11375750998E+02 -0.38631729357E+02 -0.20181557681E+02  0.46142317695E+02  0.99999993960E+01 0.  0.
         12    1    3    3    0    0 -0.11375750998E+02  0.38631729357E+02  0.20181557681E+02  0.45045682305E+02  0.00000000000E+00 0. -1.
         11    1    4    4    0    0  0.10863569072E+01 -0.78152335591E+01 -0.68134214765E+01  0.10425006446E+02  0.51100000000E-03 0. -1.
        -11    1    4    4    0    0  0.80287839273E+01 -0.27884260081E+02 -0.99426470231E+01  0.30673271128E+02  0.51100000000E-03 0.  1.
        -12    1    4    4    0    0  0.22606101633E+01 -0.29322357173E+01 -0.34254891812E+01  0.50440401211E+01  0.00000000000E+00 0.  1.
</event>
<event>
 8    1  0.2882335E-009  0.9118800E+02  0.7816164E-02  0.1184000E+00
        -11   -1    0    0    0    0  0.00000000000E+00  0.00000000000E+00  0.45593999997E+02  0.45594000000E+02  0.51100000000E-03 0. -1.
         11   -1    0    0    0    0 -0.00000000000E+00 -0.00000000000E+00 -0.45593999997E+02  0.45594000000E+02  0.51100000000E-03 0.  1.
         23    2    1    2    0    0 -0.35527136788E-14  0.00000000000E+00 -0.71054273576E-14  0.91188000000E+02  0.91188000000E+02 0.  0.
    9900012    2    3    3    0    0 -0.19879115714E+02 -0.20649748366E+02 -0.34749419671E+02  0.46142317448E+02  0.99999971424E+01 0.  0.
         12    1    3    3    0    0  0.19879115714E+02  0.20649748366E+02  0.34749419671E+02  0.45045682552E+02  0.00000000000E+00 0. -1.
         11    1    4    4    0    0 -0.20802088588E+02 -0.18919452320E+02 -0.31168083700E+02  0.41977636993E+02  0.51100000000E-03 0.  1.
        -11    1    4    4    0    0  0.57874493366E+00 -0.91472104440E+00 -0.11599637609E+01  0.15865612106E+01  0.51100000000E-03 0. -1.
        -12    1    4    4    0    0  0.34422794082E+00 -0.81557500148E+00 -0.24213722094E+01  0.25781192437E+01  0.00000000000E+00 0.  1.
</event>
<event>
 8    1  0.2882335E-009  0.9118800E+02  0.7816164E-02  0.1184000E+00
        -11   -1    0    0    0    0  0.00000000000E+00  0.00000000000E+00  0.45593999997E+02  0.45594000000E+02  0.51100000000E-03 0. -1.
         11   -1    0    0    0    0 -0.00000000000E+00 -0.00000000000E+00 -0.45593999997E+02  0.45594000000E+02  0.51100000000E-03 0.  1.
         23    2    1    2    0    0  0.88817841970E-15  0.00000000000E+00 -0.71054273576E-14  0.91188000000E+02  0.91188000000E+02 0.  0.
    9900012    2    3    3    0    0 -0.62198086037E+01  0.18693031082E+02  0.40509234363E+02  0.46142317645E+02  0.99999989456E+01 0.  0.
        -12    1    3    3    0    0  0.62198086037E+01 -0.18693031082E+02 -0.40509234363E+02  0.45045682355E+02  0.00000000000E+00 0.  1.
         11    1    4    4    0    0 -0.31298319882E+01  0.63321568537E+01  0.21569321235E+02  0.22696424333E+02  0.51100000000E-03 0. -1.
        -11    1    4    4    0    0 -0.64995168681E+00  0.66592473550E+01  0.55636383250E+01  0.87018437244E+01  0.51100000000E-03 0.  1.
        -12    1    4    4    0    0 -0.24400249287E+01  0.57016268728E+01  0.13376274803E+02  0.14744049588E+02  0.00000000000E+00 0.  1.
</event>
<event>
 8    1  0.2882335E-009  0.9118800E+02  0.7816164E-02  0.1184000E+00
        -11   -1    0    0    0    0  0.00000000000E+00  0.00000000000E+00  0.45593999997E+02  0.45594000000E+02  0.51100000000E-03 0. -1.
         11   -1    0    0    0    0 -0.00000000000E+00 -0.00000000000E+00 -0.45593999997E+02  0.45594000000E+02  0.51100000000E-03 0.  1.
         23    2    1    2    0    0 -0.44408920985E-15  0.17763568394E-14 -0.14210854715E-13  0.91188000000E+02  0.91188000000E+02 0.  0.
    9900012    2    3    3    0    0  0.27658708132E+01 -0.13275414787E+02  0.42956103251E+02  0.46142317791E+02  0.10000000277E+02 0.  0.
        -12    1    3    3    0    0 -0.27658708132E+01  0.13275414787E+02 -0.42956103251E+02  0.45045682209E+02  0.00000000000E+00 0.  1.
         11    1    4    4    0    0 -0.19655065675E+01 -0.96391786182E+01  0.22318374424E+02  0.24390301713E+02  0.51100000000E-03 0. -1.
        -11    1    4    4    0    0  0.40610168236E+01 -0.17348035143E+01  0.17281236514E+02  0.17836550580E+02  0.51100000000E-03 0.  1.
         12    1    4    4    0    0  0.67036055711E+00 -0.19014326549E+01  0.33564923137E+01  0.39154654985E+01  0.00000000000E+00 0. -1.
</event>
<event>
 8    1  0.2882335E-009  0.9118800E+02  0.7816164E-02  0.1184000E+00
        -11   -1    0    0    0    0  0.00000000000E+00  0.00000000000E+00  0.45593999997E+02  0.45594000000E+02  0.51100000000E-03 0. -1.
         11   -1    0    0    0    0 -0.00000000000E+00 -0.00000000000E+00 -0.45593999997E+02  0.45594000000E+02  0.51100000000E-03 0.  1.
         23    2    1    2    0    0  0.00000000000E+00 -0.35527136788E-14 -0.35527136788E-14  0.91188000000E+02  0.91188000000E+02 0.  0.
    9900012    2    3    3    0    0  0.17206443327E+02 -0.30497171178E+02  0.28336802984E+02  0.46142317131E+02  0.99999942508E+01 0.  0.
        -12    1    3    3    0    0 -0.17206443327E+02  0.30497171178E+02 -0.28336802984E+02  0.45045682869E+02  0.00000000000E+00 0.  1.
         11    1    4    4    0    0  0.40871818293E+01 -0.60824813225E+01  0.70633047284E+01  0.10178011018E+02  0.51100000000E-03 0. -1.
        -11    1    4    4    0    0  0.12016924226E+02 -0.17004276504E+02  0.11963220689E+02  0.24013965453E+02  0.51100000000E-03 0.  1.
        -12    1    4    4    0    0  0.11023372717E+01 -0.74104133518E+01  0.93102775663E+01  0.11950340659E+02  0.00000000000E+00 0.  1.
</event>
<event>
 8    1  0.2882335E-009  0.9118800E+02  0.7816164E-02  0.1184000E+00
        -11   -1    0    0    0    0  0.00000000000E+00  0.00000000000E+00  0.45593999997E+02  0.45594000000E+02  0.51100000000E-03 0. -1.
         11   -1    0    0    0    0 -0.00000000000E+00 -0.00000000000E+00 -0.45593999997E+02  0.45594000000E+02  0.51100000000E-03 0.  1.
         23    2    1    2    0    0 -0.17763568394E-14  0.71054273576E-14 -0.17763568394E-14  0.91188000000E+02  0.91188000000E+02 0.  0.
    9900012    2    3    3    0    0 -0.86205566547E+01  0.42439929157E+02  0.12395640792E+02  0.46142317693E+02  0.99999993772E+01 0.  0.
        -12    1    3    3    0    0  0.86205566547E+01 -0.42439929157E+02 -0.12395640792E+02  0.45045682307E+02  0.00000000000E+00 0.  1.
         11    1    4    4    0    0 -0.35963876628E+01  0.16809406784E+02  0.93759072288E+01  0.19580546399E+02  0.51100000000E-03 0. -1.
        -11    1    4    4    0    0 -0.49581049068E+01  0.21720996734E+02  0.13818492519E+01  0.22322500107E+02  0.51100000000E-03 0.  1.
        -12    1    4    4    0    0 -0.66064085086E-01  0.39095256387E+01  0.16378843115E+01  0.42392711875E+01  0.00000000000E+00 0.  1.
</event>
<event>
 8    1  0.2882335E-009  0.9118800E+02  0.7816164E-02  0.1184000E+00
        -11   -1    0    0    0    0  0.00000000000E+00  0.00000000000E+00  0.45593999997E+02  0.45594000000E+02  0.51100000000E-03 0. -1.
         11   -1    0    0    0    0 -0.00000000000E+00 -0.00000000000E+00 -0.45593999997E+02  0.45594000000E+02  0.51100000000E-03 0.  1.
         23    2    1    2    0    0 -0.71054273576E-14  0.00000000000E+00  0.00000000000E+00  0.91188000000E+02  0.91188000000E+02 0.  0.
    9900012    2    3    3    0    0  0.36827387422E+02 -0.23219152524E+02 -0.11564079664E+02  0.46142318223E+02  0.10000004212E+02 0.  0.
         12    1    3    3    0    0 -0.36827387422E+02  0.23219152524E+02  0.11564079664E+02  0.45045681777E+02  0.00000000000E+00 0. -1.
         11    1    4    4    0    0  0.14976637181E+02 -0.81887332867E+01 -0.22021607719E+01  0.17210593436E+02  0.51100000000E-03 0. -1.
        -11    1    4    4    0    0  0.20198377668E+02 -0.12052767156E+02 -0.98332702926E+01  0.25493859289E+02  0.51100000000E-03 0.  1.
         12    1    4    4    0    0  0.16523725724E+01 -0.29776520812E+01  0.47135140057E+00  0.34378654973E+01  0.00000000000E+00 0. -1.
</event>
<event>
 8    1  0.2882335E-009  0.9118800E+02  0.7816164E-02  0.1184000E+00
        -11   -1    0    0    0    0  0.00000000000E+00  0.00000000000E+00  0.45593999997E+02  0.45594000000E+02  0.51100000000E-03 0. -1.
         11   -1    0    0    0    0 -0.00000000000E+00 -0.00000000000E+00 -0.45593999997E+02  0.45594000000E+02  0.51100000000E-03 0.  1.
         23    2    1    2    0    0  0.22204460493E-15  0.00000000000E+00  0.00000000000E+00  0.91188000000E+02  0.91188000000E+02 0.  0.
    9900012    2    3    3    0    0  0.12221082652E+01 -0.90177820010E+01  0.44116885167E+02  0.46142317658E+02  0.99999990616E+01 0.  0.
        -12    1    3    3    0    0 -0.12221082652E+01  0.90177820010E+01 -0.44116885167E+02  0.45045682342E+02  0.00000000000E+00 0.  1.
         11    1    4    4    0    0  0.29740929582E+01 -0.56037315360E+01  0.28101508376E+02  0.28808710651E+02  0.51100000000E-03 0. -1.
        -11    1    4    4    0    0 -0.31141128905E+01 -0.55376631593E+00  0.54271408126E+01  0.62815773408E+01  0.51100000000E-03 0.  1.
        -12    1    4    4    0    0  0.13621281976E+01 -0.28602841490E+01  0.10588235978E+02  0.11052029667E+02  0.00000000000E+00 0.  1.
</event>
<event>
 8    1  0.2882335E-009  0.9118800E+02  0.7816164E-02  0.1184000E+00
        -11   -1    0    0    0    0  0.00000000000E+00  0.00000000000E+00  0.45593999997E+02  0.45594000000E+02  0.51100000000E-03 0. -1.
         11   -1    0    0    0    0 -0.00000000000E+00 -0.00000000000E+00 -0.45593999997E+02  0.45594000000E+02  0.51100000000E-03 0.  1.
         23    2    1    2    0    0 -0.71054273576E-14  0.88817841970E-15  0.88817841970E-15  0.91188000000E+02  0.91188000000E+02 0.  0.
    9900012    2    3    3    0    0 -0.43803266225E+02  0.77108414198E+01  0.71365480947E+01  0.46142317342E+02  0.99999961796E+01 0.  0.
        -12    1    3    3    0    0  0.43803266225E+02 -0.77108414198E+01 -0.71365480947E+01  0.45045682658E+02  0.00000000000E+00 0.  1.
         11    1    4    4    0    0 -0.81840837703E+01  0.11531578369E+01  0.29456952451E+01  0.87741735163E+01  0.51100000000E-03 0. -1.
        -11    1    4    4    0    0 -0.20918014646E+02  0.70509511276E+01  0.50104123771E+01  0.22635889224E+02  0.51100000000E-03 0.  1.
        -12    1    4    4    0    0 -0.14701167810E+02 -0.49326754478E+00 -0.81955952748E+00  0.14732254602E+02  0.00000000000E+00 0.  1.
</event>
<event>
 8    1  0.2882335E-009  0.9118800E+02  0.7816164E-02  0.1184000E+00
        -11   -1    0    0    0    0  0.00000000000E+00  0.00000000000E+00  0.45593999997E+02  0.45594000000E+02  0.51100000000E-03 0. -1.
         11   -1    0    0    0    0 -0.00000000000E+00 -0.00000000000E+00 -0.45593999997E+02  0.45594000000E+02  0.51100000000E-03 0.  1.
         23    2    1    2    0    0 -0.35527136788E-14 -0.35527136788E-14  0.00000000000E+00  0.91188000000E+02  0.91188000000E+02 0.  0.
    9900012    2    3    3    0    0 -0.16066728543E+02 -0.25794424624E+02 -0.33250886171E+02  0.46142317200E+02  0.99999948812E+01 0.  0.
         12    1    3    3    0    0  0.16066728543E+02  0.25794424624E+02  0.33250886171E+02  0.45045682800E+02  0.00000000000E+00 0. -1.
         11    1    4    4    0    0 -0.56251022782E+00 -0.36965633643E+01 -0.83027833297E+00  0.38301907047E+01  0.51100000000E-03 0. -1.
        -11    1    4    4    0    0 -0.12061783449E+02 -0.16593995397E+02 -0.22419571248E+02  0.30388887416E+02  0.51100000000E-03 0.  1.
         12    1    4    4    0    0 -0.34424348659E+01 -0.55038658629E+01 -0.10001036590E+02  0.11923239079E+02  0.00000000000E+00 0. -1.
</event>
<event>
 8    1  0.2882335E-009  0.9118800E+02  0.7816164E-02  0.1184000E+00
        -11   -1    0    0    0    0  0.00000000000E+00  0.00000000000E+00  0.45593999997E+02  0.45594000000E+02  0.51100000000E-03 0. -1.
         11   -1    0    0    0    0 -0.00000000000E+00 -0.00000000000E+00 -0.45593999997E+02  0.45594000000E+02  0.51100000000E-03 0.  1.
         23    2    1    2    0    0  0.00000000000E+00  0.00000000000E+00 -0.35527136788E-14  0.91188000000E+02  0.91188000000E+02 0.  0.
    9900012    2    3    3    0    0 -0.70589368896E+01  0.32483180801E+02 -0.30399469348E+02  0.46142319168E+02  0.10000012833E+02 0.  0.
         12    1    3    3    0    0  0.70589368896E+01 -0.32483180801E+02  0.30399469348E+02  0.45045680832E+02  0.00000000000E+00 0. -1.
         11    1    4    4    0    0 -0.31022499121E-01 -0.25103293746E+00 -0.51543769061E+00  0.57415695169E+00  0.51100000000E-03 0. -1.
        -11    1    4    4    0    0 -0.24608332229E+01  0.29609102939E+01 -0.59890113456E+01  0.71197575154E+01  0.51100000000E-03 0.  1.
        -12    1    4    4    0    0 -0.45670811675E+01  0.29773303444E+02 -0.23895020312E+02  0.38448404701E+02  0.00000000000E+00 0.  1.
</event>
<event>
 8    1  0.2882335E-009  0.9118800E+02  0.7816164E-02  0.1184000E+00
        -11   -1    0    0    0    0  0.00000000000E+00  0.00000000000E+00  0.45593999997E+02  0.45594000000E+02  0.51100000000E-03 0. -1.
         11   -1    0    0    0    0 -0.00000000000E+00 -0.00000000000E+00 -0.45593999997E+02  0.45594000000E+02  0.51100000000E-03 0.  1.
         23    2    1    2    0    0  0.44408920985E-15  0.00000000000E+00  0.00000000000E+00  0.91188000000E+02  0.91188000000E+02 0.  0.
    9900012    2    3    3    0    0  0.24991977842E+01  0.28675704963E+02  0.34649264549E+02  0.46142316761E+02  0.99999908800E+01 0.  0.
        -12    1    3    3    0    0 -0.24991977842E+01 -0.28675704963E+02 -0.34649264549E+02  0.45045683239E+02  0.00000000000E+00 0.  1.
         11    1    4    4    0    0 -0.11896904922E+01  0.72736644905E+01  0.57458982309E+01  0.93454216239E+01  0.51100000000E-03 0.  1.
        -11    1    4    4    0    0  0.44488408798E+01  0.86471504343E+01  0.97331130793E+01  0.13758593180E+02  0.51100000000E-03 0. -1.
         12    1    4    4    0    0 -0.75995260350E+00  0.12754890038E+02  0.19170253239E+02  0.23038301957E+02  0.00000000000E+00 0. -1.
</event>
<event>
 8    1  0.2882335E-009  0.9118800E+02  0.7816164E-02  0.1184000E+00
        -11   -1    0    0    0    0  0.00000000000E+00  0.00000000000E+00  0.45593999997E+02  0.45594000000E+02  0.51100000000E-03 0. -1.
         11   -1    0    0    0    0 -0.00000000000E+00 -0.00000000000E+00 -0.45593999997E+02  0.45594000000E+02  0.51100000000E-03 0.  1.
         23    2    1    2    0    0  0.00000000000E+00  0.00000000000E+00  0.00000000000E+00  0.91188000000E+02  0.91188000000E+02 0.  0.
    9900012    2    3    3    0    0 -0.80255622462E+01 -0.27943813228E+02  0.34407083836E+02  0.46142314688E+02  0.99999719792E+01 0.  0.
        -12    1    3    3    0    0  0.80255622462E+01  0.27943813228E+02 -0.34407083836E+02  0.45045685312E+02  0.00000000000E+00 0.  1.
         11    1    4    4    0    0  0.12869870080E+01 -0.46640269436E+01  0.61470607735E+01  0.78227769560E+01  0.51100000000E-03 0. -1.
        -11    1    4    4    0    0 -0.47830090029E+01 -0.62573761493E+01  0.58268253118E+01  0.97971335028E+01  0.51100000000E-03 0.  1.
         12    1    4    4    0    0 -0.45295402513E+01 -0.17022410135E+02  0.22433197751E+02  0.28522404230E+02  0.00000000000E+00 0. -1.
</event>
<event>
 8    1  0.2882335E-009  0.9118800E+02  0.7816164E-02  0.1184000E+00
        -11   -1    0    0    0    0  0.00000000000E+00  0.00000000000E+00  0.45593999997E+02  0.45594000000E+02  0.51100000000E-03 0.  1.
         11   -1    0    0    0    0 -0.00000000000E+00 -0.00000000000E+00 -0.45593999997E+02  0.45594000000E+02  0.51100000000E-03 0. -1.
         23    2    1    2    0    0  0.00000000000E+00 -0.17763568394E-14  0.35527136788E-14  0.91188000000E+02  0.91188000000E+02 0.  0.
    9900012    2    3    3    0    0 -0.39155645600E+02  0.89301819048E+01 -0.20400999284E+02  0.46142317598E+02  0.99999985167E+01 0.  0.
         12    1    3    3    0    0  0.39155645600E+02 -0.89301819048E+01  0.20400999284E+02  0.45045682402E+02  0.00000000000E+00 0. -1.
         11    1    4    4    0    0 -0.17518642579E+02 -0.22718755807E+00 -0.98415585483E+01  0.20095042347E+02  0.51100000000E-03 0.  1.
        -11    1    4    4    0    0 -0.11462686227E+02  0.69048087393E+01 -0.55903846691E+01  0.14502481177E+02  0.51100000000E-03 0. -1.
         12    1    4    4    0    0 -0.10174316794E+02  0.22525607236E+01 -0.49690560667E+01  0.11544794075E+02  0.00000000000E+00 0. -1.
</event>
<event>
 8    1  0.2882335E-009  0.9118800E+02  0.7816164E-02  0.1184000E+00
        -11   -1    0    0    0    0  0.00000000000E+00  0.00000000000E+00  0.45593999997E+02  0.45594000000E+02  0.51100000000E-03 0. -1.
         11   -1    0    0    0    0 -0.00000000000E+00 -0.00000000000E+00 -0.45593999997E+02  0.45594000000E+02  0.51100000000E-03 0.  1.
         23    2    1    2    0    0  0.00000000000E+00  0.00000000000E+00  0.00000000000E+00  0.91188000000E+02  0.91188000000E+02 0.  0.
    9900012    2    3    3    0    0 -0.51222017973E+01  0.12339755523E+02  0.43018682489E+02  0.46142316958E+02  0.99999926726E+01 0.  0.
        -12    1    3    3    0    0  0.51222017973E+01 -0.12339755523E+02 -0.43018682489E+02  0.45045683042E+02  0.00000000000E+00 0.  1.
         11    1    4    4    0    0 -0.43831510928E+01  0.52976875371E+01  0.13638791644E+02  0.15273969507E+02  0.51100000000E-03 0. -1.
        -11    1    4    4    0    0 -0.89845573405E+00  0.65451607233E+01  0.29580491852E+02  0.30309270035E+02  0.51100000000E-03 0.  1.
        -12    1    4    4    0    0  0.15940502958E+00  0.49690726303E+00 -0.20060100693E+00  0.55907741458E+00  0.00000000000E+00 0.  1.
</event>
<event>
 8    1  0.2882335E-009  0.9118800E+02  0.7816164E-02  0.1184000E+00
        -11   -1    0    0    0    0  0.00000000000E+00  0.00000000000E+00  0.45593999997E+02  0.45594000000E+02  0.51100000000E-03 0. -1.
         11   -1    0    0    0    0 -0.00000000000E+00 -0.00000000000E+00 -0.45593999997E+02  0.45594000000E+02  0.51100000000E-03 0.  1.
         23    2    1    2    0    0  0.00000000000E+00 -0.35527136788E-14  0.00000000000E+00  0.91188000000E+02  0.91188000000E+02 0.  0.
    9900012    2    3    3    0    0 -0.17982196411E+02 -0.23322264271E+02 -0.34085569343E+02  0.46142318343E+02  0.10000005305E+02 0.  0.
         12    1    3    3    0    0  0.17982196411E+02  0.23322264271E+02  0.34085569343E+02  0.45045681657E+02  0.00000000000E+00 0. -1.
         11    1    4    4    0    0 -0.61346904799E+00  0.35365271050E+00 -0.93552380571E+00  0.11732943214E+01  0.51100000000E-03 0. -1.
        -11    1    4    4    0    0 -0.13524833222E+02 -0.21585731593E+02 -0.30909655025E+02  0.40053360610E+02  0.51100000000E-03 0.  1.
         12    1    4    4    0    0 -0.38438941415E+01 -0.20901853882E+01 -0.22403905122E+01  0.49156634115E+01  0.00000000000E+00 0. -1.
</event>
<event>
 8    1  0.2882335E-009  0.9118800E+02  0.7816164E-02  0.1184000E+00
        -11   -1    0    0    0    0  0.00000000000E+00  0.00000000000E+00  0.45593999997E+02  0.45594000000E+02  0.51100000000E-03 0. -1.
         11   -1    0    0    0    0 -0.00000000000E+00 -0.00000000000E+00 -0.45593999997E+02  0.45594000000E+02  0.51100000000E-03 0.  1.
         23    2    1    2    0    0 -0.71054273576E-14  0.00000000000E+00  0.00000000000E+00  0.91188000000E+02  0.91188000000E+02 0.  0.
    9900012    2    3    3    0    0 -0.28121736668E+02  0.16466861218E+02  0.31098615245E+02  0.46142318056E+02  0.10000002693E+02 0.  0.
        -12    1    3    3    0    0  0.28121736668E+02 -0.16466861218E+02 -0.31098615245E+02  0.45045681944E+02  0.00000000000E+00 0.  1.
         11    1    4    4    0    0 -0.10354755395E+02  0.10509485774E+02  0.16500438103E+02  0.22134468785E+02  0.51100000000E-03 0. -1.
        -11    1    4    4    0    0 -0.62930338230E+01  0.30085686818E+01  0.36299535256E+01  0.78632259963E+01  0.51100000000E-03 0.  1.
         12    1    4    4    0    0 -0.11473947450E+02  0.29488067626E+01  0.10968223616E+02  0.16144623275E+02  0.00000000000E+00 0. -1.
</event>
<event>
 8    1  0.2882335E-009  0.9118800E+02  0.7816164E-02  0.1184000E+00
        -11   -1    0    0    0    0  0.00000000000E+00  0.00000000000E+00  0.45593999997E+02  0.45594000000E+02  0.51100000000E-03 0. -1.
         11   -1    0    0    0    0 -0.00000000000E+00 -0.00000000000E+00 -0.45593999997E+02  0.45594000000E+02  0.51100000000E-03 0.  1.
         23    2    1    2    0    0  0.88817841970E-15  0.35527136788E-14 -0.71054273576E-14  0.91188000000E+02  0.91188000000E+02 0.  0.
    9900012    2    3    3    0    0  0.55497119719E+01  0.20586882621E+02 -0.39679900079E+02  0.46142317529E+02  0.99999978805E+01 0.  0.
         12    1    3    3    0    0 -0.55497119719E+01 -0.20586882621E+02  0.39679900079E+02  0.45045682471E+02  0.00000000000E+00 0. -1.
         11    1    4    4    0    0  0.21583774088E+01  0.80610037306E+01 -0.23534085294E+02  0.24969812676E+02  0.51100000000E-03 0. -1.
        -11    1    4    4    0    0  0.26764123965E+01  0.12684535883E+02 -0.15302953345E+02  0.20055947128E+02  0.51100000000E-03 0.  1.
        -12    1    4    4    0    0  0.71492216664E+00 -0.15865699167E+00 -0.84286144013E+00  0.11165577247E+01  0.00000000000E+00 0.  1.
</event>
<event>
 8    1  0.2882335E-009  0.9118800E+02  0.7816164E-02  0.1184000E+00
        -11   -1    0    0    0    0  0.00000000000E+00  0.00000000000E+00  0.45593999997E+02  0.45594000000E+02  0.51100000000E-03 0.  1.
         11   -1    0    0    0    0 -0.00000000000E+00 -0.00000000000E+00 -0.45593999997E+02  0.45594000000E+02  0.51100000000E-03 0. -1.
         23    2    1    2    0    0 -0.17763568394E-14 -0.35527136788E-14  0.00000000000E+00  0.91188000000E+02  0.91188000000E+02 0.  0.
    9900012    2    3    3    0    0  0.10930942617E+02 -0.27373174077E+02 -0.34063724839E+02  0.46142317461E+02  0.99999972598E+01 0.  0.
         12    1    3    3    0    0 -0.10930942617E+02  0.27373174077E+02  0.34063724839E+02  0.45045682539E+02  0.00000000000E+00 0. -1.
         11    1    4    4    0    0  0.12693792018E+02 -0.24631045988E+02 -0.30265461283E+02  0.41034362785E+02  0.51100000000E-03 0. -1.
        -11    1    4    4    0    0 -0.85551683349E+00 -0.12510318133E+01 -0.25343010821E+01  0.29529090548E+01  0.51100000000E-03 0.  1.
         12    1    4    4    0    0 -0.90733256764E+00 -0.14910962758E+01 -0.12639624742E+01  0.21550456209E+01  0.00000000000E+00 0. -1.
</event>
<event>
 8    1  0.2882335E-009  0.9118800E+02  0.7816164E-02  0.1184000E+00
        -11   -1    0    0    0    0  0.00000000000E+00  0.00000000000E+00  0.45593999997E+02  0.45594000000E+02  0.51100000000E-03 0. -1.
         11   -1    0    0    0    0 -0.00000000000E+00 -0.00000000000E+00 -0.45593999997E+02  0.45594000000E+02  0.51100000000E-03 0.  1.
         23    2    1    2    0    0  0.35527136788E-14  0.00000000000E+00  0.00000000000E+00  0.91188000000E+02  0.91188000000E+02 0.  0.
    9900012    2    3    3    0    0  0.29750255544E+02 -0.11460230203E+01 -0.33804177550E+02  0.46142317704E+02  0.99999994784E+01 0.  0.
         12    1    3    3    0    0 -0.29750255544E+02  0.11460230203E+01  0.33804177550E+02  0.45045682296E+02  0.00000000000E+00 0. -1.
         11    1    4    4    0    0  0.91983183821E+01  0.21501358987E+01 -0.16698419761E+02  0.19185134042E+02  0.51100000000E-03 0. -1.
        -11    1    4    4    0    0  0.79832736476E+01 -0.11626116320E+01 -0.71894157160E+01  0.10806110426E+02  0.51100000000E-03 0.  1.
         12    1    4    4    0    0  0.12568663514E+02 -0.21335472869E+01 -0.99163420731E+01  0.16151073236E+02  0.00000000000E+00 0. -1.
</event>
<event>
 8    1  0.2882335E-009  0.9118800E+02  0.7816164E-02  0.1184000E+00
        -11   -1    0    0    0    0  0.00000000000E+00  0.00000000000E+00  0.45593999997E+02  0.45594000000E+02  0.51100000000E-03 0.  1.
         11   -1    0    0    0    0 -0.00000000000E+00 -0.00000000000E+00 -0.45593999997E+02  0.45594000000E+02  0.51100000000E-03 0. -1.
         23    2    1    2    0    0  0.00000000000E+00  0.00000000000E+00  0.35527136788E-14  0.91188000000E+02  0.91188000000E+02 0.  0.
    9900012    2    3    3    0    0  0.15745841814E+02  0.33894182915E+02 -0.25146889042E+02  0.46142320979E+02  0.10000029348E+02 0.  0.
         12    1    3    3    0    0 -0.15745841814E+02 -0.33894182915E+02  0.25146889042E+02  0.45045679021E+02  0.00000000000E+00 0. -1.
         11    1    4    4    0    0  0.10556291288E+01  0.88624039622E+01 -0.68153161851E+01  0.11229652346E+02  0.51100000000E-03 0. -1.
        -11    1    4    4    0    0  0.10516187292E+02  0.18236460465E+02 -0.16456494676E+02  0.26720308807E+02  0.51100000000E-03 0.  1.
        -12    1    4    4    0    0  0.41740253940E+01  0.67953184882E+01 -0.18750781801E+01  0.81923598265E+01  0.00000000000E+00 0.  1.
</event>
<event>
 8    1  0.2882335E-009  0.9118800E+02  0.7816164E-02  0.1184000E+00
        -11   -1    0    0    0    0  0.00000000000E+00  0.00000000000E+00  0.45593999997E+02  0.45594000000E+02  0.51100000000E-03 0. -1.
         11   -1    0    0    0    0 -0.00000000000E+00 -0.00000000000E+00 -0.45593999997E+02  0.45594000000E+02  0.51100000000E-03 0.  1.
         23    2    1    2    0    0  0.00000000000E+00  0.00000000000E+00  0.00000000000E+00  0.91188000000E+02  0.91188000000E+02 0.  0.
    9900012    2    3    3    0    0  0.43887534130E+02  0.68308377140E+01 -0.75058305043E+01  0.46142317771E+02  0.10000000090E+02 0.  0.
        -12    1    3    3    0    0 -0.43887534130E+02 -0.68308377140E+01  0.75058305043E+01  0.45045682229E+02  0.00000000000E+00 0.  1.
         11    1    4    4    0    0  0.20566585335E+02  0.27012730712E+01 -0.42389764960E+01  0.21171920804E+02  0.51100000000E-03 0. -1.
        -11    1    4    4    0    0  0.22816148620E+00  0.13950020814E+01  0.29799387215E+00  0.14446068946E+01  0.51100000000E-03 0.  1.
        -12    1    4    4    0    0  0.23092787309E+02  0.27345625613E+01 -0.35648478804E+01  0.23525790072E+02  0.00000000000E+00 0.  1.
</event>
<event>
 8    1  0.2882335E-009  0.9118800E+02  0.7816164E-02  0.1184000E+00
        -11   -1    0    0    0    0  0.00000000000E+00  0.00000000000E+00  0.45593999997E+02  0.45594000000E+02  0.51100000000E-03 0. -1.
         11   -1    0    0    0    0 -0.00000000000E+00 -0.00000000000E+00 -0.45593999997E+02  0.45594000000E+02  0.51100000000E-03 0.  1.
         23    2    1    2    0    0  0.00000000000E+00 -0.35527136788E-14 -0.71054273576E-14  0.91188000000E+02  0.91188000000E+02 0.  0.
    9900012    2    3    3    0    0  0.13518910370E+02  0.22048143313E+02  0.36881324003E+02  0.46142316285E+02  0.99999865376E+01 0.  0.
        -12    1    3    3    0    0 -0.13518910370E+02 -0.22048143313E+02 -0.36881324003E+02  0.45045683715E+02  0.00000000000E+00 0.  1.
         11    1    4    4    0    0  0.40331245203E+01  0.79545602518E+01  0.14138058723E+02  0.16716035024E+02  0.51100000000E-03 0. -1.
        -11    1    4    4    0    0  0.91392611620E+01  0.93688319790E+01  0.20144263696E+02  0.24022748955E+02  0.51100000000E-03 0.  1.
        -12    1    4    4    0    0  0.34652468778E+00  0.47247510821E+01  0.25990015838E+01  0.54035323058E+01  0.00000000000E+00 0.  1.
</event>
<event>
 8    1  0.2882335E-009  0.9118800E+02  0.7816164E-02  0.1184000E+00
        -11   -1    0    0    0    0  0.00000000000E+00  0.00000000000E+00  0.45593999997E+02  0.45594000000E+02  0.51100000000E-03 0. -1.
         11   -1    0    0    0    0 -0.00000000000E+00 -0.00000000000E+00 -0.45593999997E+02  0.45594000000E+02  0.51100000000E-03 0.  1.
         23    2    1    2    0    0  0.00000000000E+00  0.00000000000E+00  0.00000000000E+00  0.91188000000E+02  0.91188000000E+02 0.  0.
    9900012    2    3    3    0    0  0.21932645368E+02  0.45316296282E+01 -0.39083716200E+02  0.46142317943E+02  0.10000001661E+02 0.  0.
         12    1    3    3    0    0 -0.21932645368E+02 -0.45316296282E+01  0.39083716200E+02  0.45045682057E+02  0.00000000000E+00 0. -1.
         11    1    4    4    0    0  0.57581486184E+01  0.11678162456E+01 -0.46037083120E+01  0.74641945833E+01  0.51100000000E-03 0.  1.
        -11    1    4    4    0    0  0.21514226188E+01  0.18783817859E+01 -0.10279475872E+02  0.10668859447E+02  0.51100000000E-03 0. -1.
         12    1    4    4    0    0  0.14023074131E+02  0.14854315967E+01 -0.24200532016E+02  0.28009263913E+02  0.00000000000E+00 0. -1.
</event>
<event>
 8    1  0.2882335E-009  0.9118800E+02  0.7816164E-02  0.1184000E+00
        -11   -1    0    0    0    0  0.00000000000E+00  0.00000000000E+00  0.45593999997E+02  0.45594000000E+02  0.51100000000E-03 0. -1.
         11   -1    0    0    0    0 -0.00000000000E+00 -0.00000000000E+00 -0.45593999997E+02  0.45594000000E+02  0.51100000000E-03 0.  1.
         23    2    1    2    0    0  0.00000000000E+00  0.00000000000E+00  0.00000000000E+00  0.91188000000E+02  0.91188000000E+02 0.  0.
    9900012    2    3    3    0    0  0.23933889252E+02  0.30242357912E+02 -0.23274065233E+02  0.46142318973E+02  0.10000011047E+02 0.  0.
         12    1    3    3    0    0 -0.23933889252E+02 -0.30242357912E+02  0.23274065233E+02  0.45045681027E+02  0.00000000000E+00 0. -1.
         11    1    4    4    0    0  0.20337472684E+01  0.66048264460E+00 -0.30395531534E+01  0.37163488681E+01  0.51100000000E-03 0. -1.
        -11    1    4    4    0    0  0.15207554083E+02  0.24331248870E+02 -0.16822527288E+02  0.33260739579E+02  0.51100000000E-03 0.  1.
         12    1    4    4    0    0  0.66925878998E+01  0.52506263973E+01 -0.34119847915E+01  0.91652305251E+01  0.00000000000E+00 0. -1.
</event>
<event>
 8    1  0.2882335E-009  0.9118800E+02  0.7816164E-02  0.1184000E+00
        -11   -1    0    0    0    0  0.00000000000E+00  0.00000000000E+00  0.45593999997E+02  0.45594000000E+02  0.51100000000E-03 0. -1.
         11   -1    0    0    0    0 -0.00000000000E+00 -0.00000000000E+00 -0.45593999997E+02  0.45594000000E+02  0.51100000000E-03 0.  1.
         23    2    1    2    0    0 -0.35527136788E-14  0.11102230246E-15  0.71054273576E-14  0.91188000000E+02  0.91188000000E+02 0.  0.
    9900012    2    3    3    0    0 -0.31977899563E+02  0.73064349582E+00  0.31717399981E+02  0.46142319164E+02  0.10000012797E+02 0.  0.
        -12    1    3    3    0    0  0.31977899563E+02 -0.73064349582E+00 -0.31717399981E+02  0.45045680836E+02  0.00000000000E+00 0.  1.
         11    1    4    4    0    0 -0.19401003426E+01  0.19298825497E+01  0.54644507843E+01  0.61113548932E+01  0.51100000000E-03 0. -1.
        -11    1    4    4    0    0 -0.19100106942E+02  0.64059458394E+00  0.15941690131E+02  0.24886983166E+02  0.51100000000E-03 0.  1.
         12    1    4    4    0    0 -0.10937692279E+02 -0.18398336378E+01  0.10311259065E+02  0.15143981105E+02  0.00000000000E+00 0. -1.
</event>
<event>
 8    1  0.2882335E-009  0.9118800E+02  0.7816164E-02  0.1184000E+00
        -11   -1    0    0    0    0  0.00000000000E+00  0.00000000000E+00  0.45593999997E+02  0.45594000000E+02  0.51100000000E-03 0. -1.
         11   -1    0    0    0    0 -0.00000000000E+00 -0.00000000000E+00 -0.45593999997E+02  0.45594000000E+02  0.51100000000E-03 0.  1.
         23    2    1    2    0    0 -0.35527136788E-14  0.00000000000E+00  0.00000000000E+00  0.91188000000E+02  0.91188000000E+02 0.  0.
    9900012    2    3    3    0    0 -0.23365126682E+02 -0.15839296431E+02  0.35104145969E+02  0.46142317404E+02  0.99999967429E+01 0.  0.
        -12    1    3    3    0    0  0.23365126682E+02  0.15839296431E+02 -0.35104145969E+02  0.45045682596E+02  0.00000000000E+00 0.  1.
         11    1    4    4    0    0 -0.11456040537E+02 -0.21446347474E+01  0.15338594895E+02  0.19264288634E+02  0.51100000000E-03 0. -1.
        -11    1    4    4    0    0 -0.42224073388E+01 -0.60036946904E+01  0.78603356715E+01  0.10754438656E+02  0.51100000000E-03 0.  1.
         12    1    4    4    0    0 -0.76866788070E+01 -0.76909669928E+01  0.11905215403E+02  0.16123590114E+02  0.00000000000E+00 0. -1.
</event>
<event>
 8    1  0.2882335E-009  0.9118800E+02  0.7816164E-02  0.1184000E+00
        -11   -1    0    0    0    0  0.00000000000E+00  0.00000000000E+00  0.45593999997E+02  0.45594000000E+02  0.51100000000E-03 0. -1.
         11   -1    0    0    0    0 -0.00000000000E+00 -0.00000000000E+00 -0.45593999997E+02  0.45594000000E+02  0.51100000000E-03 0.  1.
         23    2    1    2    0    0  0.00000000000E+00  0.00000000000E+00 -0.35527136788E-14  0.91188000000E+02  0.91188000000E+02 0.  0.
    9900012    2    3    3    0    0 -0.22282391812E+02  0.26315308948E+02  0.28984702790E+02  0.46142318013E+02  0.10000002294E+02 0.  0.
        -12    1    3    3    0    0  0.22282391812E+02 -0.26315308948E+02 -0.28984702790E+02  0.45045681987E+02  0.00000000000E+00 0.  1.
         11    1    4    4    0    0 -0.15868363903E+02  0.18858867006E+02  0.24852113481E+02  0.35001276869E+02  0.51100000000E-03 0. -1.
        -11    1    4    4    0    0 -0.44154810182E+01  0.27297969891E+01  0.24514423174E+01  0.57408913873E+01  0.51100000000E-03 0.  1.
         12    1    4    4    0    0 -0.19985468909E+01  0.47266449532E+01  0.16811469909E+01  0.54001497566E+01  0.00000000000E+00 0. -1.
</event>
<event>
 8    1  0.2882335E-009  0.9118800E+02  0.7816164E-02  0.1184000E+00
        -11   -1    0    0    0    0  0.00000000000E+00  0.00000000000E+00  0.45593999997E+02  0.45594000000E+02  0.51100000000E-03 0. -1.
         11   -1    0    0    0    0 -0.00000000000E+00 -0.00000000000E+00 -0.45593999997E+02  0.45594000000E+02  0.51100000000E-03 0.  1.
         23    2    1    2    0    0  0.35527136788E-14  0.00000000000E+00  0.00000000000E+00  0.91188000000E+02  0.91188000000E+02 0.  0.
    9900012    2    3    3    0    0  0.25936219799E+02  0.20939496509E+02  0.30297912042E+02  0.46142317792E+02  0.10000000278E+02 0.  0.
        -12    1    3    3    0    0 -0.25936219799E+02 -0.20939496509E+02 -0.30297912042E+02  0.45045682208E+02  0.00000000000E+00 0.  1.
         11    1    4    4    0    0  0.74405211269E+01  0.86477884310E+01  0.10367650020E+02  0.15415374357E+02  0.51100000000E-03 0.  1.
        -11    1    4    4    0    0  0.83216219846E+01  0.52538542863E+01  0.13719903285E+02  0.16884552814E+02  0.51100000000E-03 0. -1.
        -12    1    4    4    0    0  0.10174076688E+02  0.70378537920E+01  0.62103587376E+01  0.13842390621E+02  0.00000000000E+00 0.  1.
</event>
<event>
 8    1  0.2882335E-009  0.9118800E+02  0.7816164E-02  0.1184000E+00
        -11   -1    0    0    0    0  0.00000000000E+00  0.00000000000E+00  0.45593999997E+02  0.45594000000E+02  0.51100000000E-03 0. -1.
         11   -1    0    0    0    0 -0.00000000000E+00 -0.00000000000E+00 -0.45593999997E+02  0.45594000000E+02  0.51100000000E-03 0.  1.
         23    2    1    2    0    0  0.44408920985E-15  0.00000000000E+00  0.00000000000E+00  0.91188000000E+02  0.91188000000E+02 0.  0.
    9900012    2    3    3    0    0 -0.23164168926E+01  0.10629922080E+02  0.43712156451E+02  0.46142315942E+02  0.99999834126E+01 0.  0.
        -12    1    3    3    0    0  0.23164168926E+01 -0.10629922080E+02 -0.43712156451E+02  0.45045684058E+02  0.00000000000E+00 0.  1.
         11    1    4    4    0    0  0.22130031776E+01  0.79568966745E-01  0.42699161914E+01  0.48099790881E+01  0.51100000000E-03 0.  1.
        -11    1    4    4    0    0 -0.17155125494E+01  0.21316054389E+01  0.16636395881E+02  0.16859904900E+02  0.51100000000E-03 0. -1.
         12    1    4    4    0    0 -0.28139075208E+01  0.84187476745E+01  0.22805844379E+02  0.24472431955E+02  0.00000000000E+00 0. -1.
</event>
<event>
 8    1  0.2882335E-009  0.9118800E+02  0.7816164E-02  0.1184000E+00
        -11   -1    0    0    0    0  0.00000000000E+00  0.00000000000E+00  0.45593999997E+02  0.45594000000E+02  0.51100000000E-03 0. -1.
         11   -1    0    0    0    0 -0.00000000000E+00 -0.00000000000E+00 -0.45593999997E+02  0.45594000000E+02  0.51100000000E-03 0.  1.
         23    2    1    2    0    0  0.17763568394E-14  0.71054273576E-14 -0.88817841970E-15  0.91188000000E+02  0.91188000000E+02 0.  0.
    9900012    2    3    3    0    0 -0.14057583775E+02  0.42142467120E+02 -0.74505261856E+01  0.46142317222E+02  0.99999950809E+01 0.  0.
         12    1    3    3    0    0  0.14057583775E+02 -0.42142467120E+02  0.74505261856E+01  0.45045682778E+02  0.00000000000E+00 0. -1.
         11    1    4    4    0    0 -0.43626218288E+01  0.44566544685E+01 -0.23182690737E+01  0.66534660164E+01  0.51100000000E-03 0. -1.
        -11    1    4    4    0    0 -0.93109473248E+01  0.29026241718E+02 -0.41913191071E+01  0.30769848951E+02  0.51100000000E-03 0.  1.
         12    1    4    4    0    0 -0.38401462108E+00  0.86595709333E+01 -0.94093800486E+00  0.87190022542E+01  0.00000000000E+00 0. -1.
</event>
<event>
 8    1  0.2882335E-009  0.9118800E+02  0.7816164E-02  0.1184000E+00
        -11   -1    0    0    0    0  0.00000000000E+00  0.00000000000E+00  0.45593999997E+02  0.45594000000E+02  0.51100000000E-03 0. -1.
         11   -1    0    0    0    0 -0.00000000000E+00 -0.00000000000E+00 -0.45593999997E+02  0.45594000000E+02  0.51100000000E-03 0.  1.
         23    2    1    2    0    0  0.00000000000E+00  0.10658141036E-13  0.17763568394E-14  0.91188000000E+02  0.91188000000E+02 0.  0.
    9900012    2    3    3    0    0 -0.34938377686E+02 -0.25203497314E+02 -0.13160812839E+02  0.46142317557E+02  0.99999981409E+01 0.  0.
         12    1    3    3    0    0  0.34938377686E+02  0.25203497314E+02  0.13160812839E+02  0.45045682443E+02  0.00000000000E+00 0. -1.
         11    1    4    4    0    0 -0.25010588379E+01 -0.21973292141E+00 -0.13433188909E+01  0.28474697138E+01  0.51100000000E-03 0. -1.
        -11    1    4    4    0    0 -0.29999596680E+02 -0.23504917764E+02 -0.87417309042E+01  0.39100828885E+02  0.51100000000E-03 0.  1.
        -12    1    4    4    0    0 -0.24377221681E+01 -0.14788466279E+01 -0.30757630442E+01  0.41940189582E+01  0.00000000000E+00 0.  1.
</event>
<event>
 8    1  0.2882335E-009  0.9118800E+02  0.7816164E-02  0.1184000E+00
        -11   -1    0    0    0    0  0.00000000000E+00  0.00000000000E+00  0.45593999997E+02  0.45594000000E+02  0.51100000000E-03 0. -1.
         11   -1    0    0    0    0 -0.00000000000E+00 -0.00000000000E+00 -0.45593999997E+02  0.45594000000E+02  0.51100000000E-03 0.  1.
         23    2    1    2    0    0  0.00000000000E+00 -0.17763568394E-14  0.71054273576E-14  0.91188000000E+02  0.91188000000E+02 0.  0.
    9900012    2    3    3    0    0 -0.48633019985E+01  0.12793189259E+02 -0.42916152289E+02  0.46142317354E+02  0.99999962912E+01 0.  0.
         12    1    3    3    0    0  0.48633019985E+01 -0.12793189259E+02  0.42916152289E+02  0.45045682646E+02  0.00000000000E+00 0. -1.
         11    1    4    4    0    0 -0.86278304943E-01  0.50735819235E+00 -0.36978722360E+01  0.37335125038E+01  0.51100000000E-03 0. -1.
        -11    1    4    4    0    0 -0.20785146787E+01  0.45752972877E+01 -0.28461148839E+02  0.28901393773E+02  0.51100000000E-03 0.  1.
        -12    1    4    4    0    0 -0.26985090148E+01  0.77105337793E+01 -0.10757131213E+02  0.13507411077E+02  0.00000000000E+00 0.  1.
</event>
<event>
 8    1  0.2882335E-009  0.9118800E+02  0.7816164E-02  0.1184000E+00
        -11   -1    0    0    0    0  0.00000000000E+00  0.00000000000E+00  0.45593999997E+02  0.45594000000E+02  0.51100000000E-03 0. -1.
         11   -1    0    0    0    0 -0.00000000000E+00 -0.00000000000E+00 -0.45593999997E+02  0.45594000000E+02  0.51100000000E-03 0.  1.
         23    2    1    2    0    0 -0.71054273576E-14  0.00000000000E+00  0.71054273576E-14  0.91188000000E+02  0.91188000000E+02 0.  0.
    9900012    2    3    3    0    0 -0.23749234601E+02  0.87791261937E+01  0.37256063540E+02  0.46142317950E+02  0.10000001719E+02 0.  0.
        -12    1    3    3    0    0  0.23749234601E+02 -0.87791261937E+01 -0.37256063540E+02  0.45045682050E+02  0.00000000000E+00 0.  1.
         11    1    4    4    0    0 -0.15692985019E+02  0.44707934459E+01  0.29051959765E+02  0.33320776391E+02  0.51100000000E-03 0. -1.
        -11    1    4    4    0    0 -0.10852180841E+01  0.21136205972E+01  0.31068174317E+01  0.39111897339E+01  0.51100000000E-03 0.  1.
         12    1    4    4    0    0 -0.69710314985E+01  0.21947121506E+01  0.50972863436E+01  0.89103518251E+01  0.00000000000E+00 0. -1.
</event>
<event>
 8    1  0.2882335E-009  0.9118800E+02  0.7816164E-02  0.1184000E+00
        -11   -1    0    0    0    0  0.00000000000E+00  0.00000000000E+00  0.45593999997E+02  0.45594000000E+02  0.51100000000E-03 0. -1.
         11   -1    0    0    0    0 -0.00000000000E+00 -0.00000000000E+00 -0.45593999997E+02  0.45594000000E+02  0.51100000000E-03 0.  1.
         23    2    1    2    0    0  0.00000000000E+00  0.00000000000E+00  0.71054273576E-14  0.91188000000E+02  0.91188000000E+02 0.  0.
    9900012    2    3    3    0    0 -0.54752232883E+01 -0.69464336589E+01  0.44168796569E+02  0.46142316511E+02  0.99999885980E+01 0.  0.
        -12    1    3    3    0    0  0.54752232883E+01  0.69464336589E+01 -0.44168796569E+02  0.45045683489E+02  0.00000000000E+00 0.  1.
         11    1    4    4    0    0 -0.33659552192E+01 -0.36801473556E+00  0.17609391712E+02  0.17931976079E+02  0.51100000000E-03 0. -1.
        -11    1    4    4    0    0 -0.31864059291E+01 -0.26339257664E+01  0.62509325763E+01  0.74943249210E+01  0.51100000000E-03 0.  1.
         12    1    4    4    0    0  0.10771378599E+01 -0.39444931569E+01  0.20308472281E+02  0.20716015511E+02  0.00000000000E+00 0. -1.
</event>
<event>
 8    1  0.3217085E-009  0.9118800E+02  0.7816164E-02  0.1184000E+00
        -11   -1    0    0    0    0  0.00000000000E+00  0.00000000000E+00  0.45593999997E+02  0.45594000000E+02  0.51100000000E-03 0. -1.
         11   -1    0    0    0    0 -0.00000000000E+00 -0.00000000000E+00 -0.45593999997E+02  0.45594000000E+02  0.51100000000E-03 0.  1.
         23    2    1    2    0    0  0.35527136788E-14 -0.35527136788E-14  0.00000000000E+00  0.91188000000E+02  0.91188000000E+02 0.  0.
    9900012    2    3    3    0    0  0.27863906829E+02 -0.28042569583E+02 -0.21594687352E+02  0.46142317250E+02  0.99999953358E+01 0.  0.
         12    1    3    3    0    0 -0.27863906829E+02  0.28042569583E+02  0.21594687352E+02  0.45045682750E+02  0.00000000000E+00 0. -1.
         11    1    4    4    0    0  0.17403048241E+00 -0.12104989067E+00  0.35448310393E+00  0.41303537007E+00  0.51100000000E-03 0. -1.
        -11    1    4    4    0    0  0.25277256836E+02 -0.21838137299E+02 -0.16735379483E+02  0.37361971047E+02  0.51100000000E-03 0.  1.
        -12    1    4    4    0    0  0.24126195106E+01 -0.60833823935E+01 -0.52137909736E+01  0.83673108323E+01  0.00000000000E+00 0.  1.
</event>
<event>
 8    1  0.2882335E-009  0.9118800E+02  0.7816164E-02  0.1184000E+00
        -11   -1    0    0    0    0  0.00000000000E+00  0.00000000000E+00  0.45593999997E+02  0.45594000000E+02  0.51100000000E-03 0. -1.
         11   -1    0    0    0    0 -0.00000000000E+00 -0.00000000000E+00 -0.45593999997E+02  0.45594000000E+02  0.51100000000E-03 0.  1.
         23    2    1    2    0    0  0.00000000000E+00  0.00000000000E+00  0.00000000000E+00  0.91188000000E+02  0.91188000000E+02 0.  0.
    9900012    2    3    3    0    0  0.19374914135E+02  0.39194376601E+02  0.10840988783E+02  0.46142317714E+02  0.99999995663E+01 0.  0.
        -12    1    3    3    0    0 -0.19374914135E+02 -0.39194376601E+02 -0.10840988783E+02  0.45045682286E+02  0.00000000000E+00 0.  1.
         11    1    4    4    0    0  0.12220466785E+02  0.22669820782E+02  0.50992406824E+01  0.26253815695E+02  0.51100000000E-03 0. -1.
        -11    1    4    4    0    0  0.32185534780E+01  0.15986373131E+01  0.81221406847E+00  0.36843479347E+01  0.51100000000E-03 0.  1.
         12    1    4    4    0    0  0.39358938717E+01  0.14925918506E+02  0.49295340319E+01  0.16204154084E+02  0.00000000000E+00 0. -1.
</event>
<event>
 8    1  0.2882335E-009  0.9118800E+02  0.7816164E-02  0.1184000E+00
        -11   -1    0    0    0    0  0.00000000000E+00  0.00000000000E+00  0.45593999997E+02  0.45594000000E+02  0.51100000000E-03 0. -1.
         11   -1    0    0    0    0 -0.00000000000E+00 -0.00000000000E+00 -0.45593999997E+02  0.45594000000E+02  0.51100000000E-03 0.  1.
         23    2    1    2    0    0  0.00000000000E+00  0.44408920985E-15 -0.35527136788E-14  0.91188000000E+02  0.91188000000E+02 0.  0.
    9900012    2    3    3    0    0 -0.36927706057E+02  0.21217295602E+01  0.25709069070E+02  0.46142318260E+02  0.10000004551E+02 0.  0.
        -12    1    3    3    0    0  0.36927706057E+02 -0.21217295602E+01 -0.25709069070E+02  0.45045681740E+02  0.00000000000E+00 0.  1.
         11    1    4    4    0    0 -0.15546260325E+02 -0.24749826682E+01  0.11862248917E+02  0.19711029880E+02  0.51100000000E-03 0. -1.
        -11    1    4    4    0    0 -0.10358294287E+02  0.41371390028E+01  0.92053839519E+01  0.14461994110E+02  0.51100000000E-03 0.  1.
        -12    1    4    4    0    0 -0.11023151445E+02  0.45957322556E+00  0.46414362015E+01  0.11969294271E+02  0.00000000000E+00 0.  1.
</event>
<event>
 8    1  0.2882335E-009  0.9118800E+02  0.7816164E-02  0.1184000E+00
        -11   -1    0    0    0    0  0.00000000000E+00  0.00000000000E+00  0.45593999997E+02  0.45594000000E+02  0.51100000000E-03 0.  1.
         11   -1    0    0    0    0 -0.00000000000E+00 -0.00000000000E+00 -0.45593999997E+02  0.45594000000E+02  0.51100000000E-03 0. -1.
         23    2    1    2    0    0  0.88817841970E-15 -0.71054273576E-14  0.33306690739E-15  0.91188000000E+02  0.91188000000E+02 0.  0.
    9900012    2    3    3    0    0 -0.59340446308E+01  0.44646848887E+02  0.74801555569E+00  0.46142317316E+02  0.99999959409E+01 0.  0.
        -12    1    3    3    0    0  0.59340446308E+01 -0.44646848887E+02 -0.74801555569E+00  0.45045682684E+02  0.00000000000E+00 0.  1.
         11    1    4    4    0    0 -0.30834514983E+01  0.19322281999E+02 -0.32048999175E+01  0.19827497032E+02  0.51100000000E-03 0. -1.
        -11    1    4    4    0    0  0.14240482465E+01  0.46761493630E+01  0.13313311851E+01  0.50662342286E+01  0.51100000000E-03 0.  1.
        -12    1    4    4    0    0 -0.42746413789E+01  0.20648417524E+02  0.26215842881E+01  0.21248586056E+02  0.00000000000E+00 0.  1.
</event>
<event>
 8    1  0.2882335E-009  0.9118800E+02  0.7816164E-02  0.1184000E+00
        -11   -1    0    0    0    0  0.00000000000E+00  0.00000000000E+00  0.45593999997E+02  0.45594000000E+02  0.51100000000E-03 0. -1.
         11   -1    0    0    0    0 -0.00000000000E+00 -0.00000000000E+00 -0.45593999997E+02  0.45594000000E+02  0.51100000000E-03 0.  1.
         23    2    1    2    0    0  0.35527136788E-14  0.00000000000E+00  0.00000000000E+00  0.91188000000E+02  0.91188000000E+02 0.  0.
    9900012    2    3    3    0    0  0.30121330883E+02  0.15405590468E+02 -0.29740306781E+02  0.46142327186E+02  0.10000085940E+02 0.  0.
         12    1    3    3    0    0 -0.30121330883E+02 -0.15405590468E+02  0.29740306781E+02  0.45045672814E+02  0.00000000000E+00 0. -1.
         11    1    4    4    0    0  0.18521214204E+02  0.14337087855E+02 -0.18788719002E+02  0.30026711870E+02  0.51100000000E-03 0.  1.
        -11    1    4    4    0    0  0.82039880274E+01  0.12632164371E+01 -0.66781928295E+01  0.10653609485E+02  0.51100000000E-03 0. -1.
        -12    1    4    4    0    0  0.33961286522E+01 -0.19471382445E+00 -0.42733949500E+01  0.54620058307E+01  0.00000000000E+00 0.  1.
</event>
<event>
 8    1  0.2882335E-009  0.9118800E+02  0.7816164E-02  0.1184000E+00
        -11   -1    0    0    0    0  0.00000000000E+00  0.00000000000E+00  0.45593999997E+02  0.45594000000E+02  0.51100000000E-03 0. -1.
         11   -1    0    0    0    0 -0.00000000000E+00 -0.00000000000E+00 -0.45593999997E+02  0.45594000000E+02  0.51100000000E-03 0.  1.
         23    2    1    2    0    0  0.17763568394E-14  0.00000000000E+00  0.00000000000E+00  0.91188000000E+02  0.91188000000E+02 0.  0.
    9900012    2    3    3    0    0 -0.14780469793E+02  0.61573905397E+01 -0.42103893712E+02  0.46142316397E+02  0.99999875580E+01 0.  0.
         12    1    3    3    0    0  0.14780469793E+02 -0.61573905397E+01  0.42103893712E+02  0.45045683603E+02  0.00000000000E+00 0. -1.
         11    1    4    4    0    0 -0.72712092726E+01  0.28228943230E-01 -0.91045001921E+01  0.11651746872E+02  0.51100000000E-03 0. -1.
        -11    1    4    4    0    0 -0.43020641603E+01  0.26030207351E+01 -0.20646097812E+02  0.21249584187E+02  0.51100000000E-03 0.  1.
        -12    1    4    4    0    0 -0.32071963599E+01  0.35261408613E+01 -0.12353295708E+02  0.13240985338E+02  0.00000000000E+00 0.  1.
</event>
<event>
 8    1  0.2882335E-009  0.9118800E+02  0.7816164E-02  0.1184000E+00
        -11   -1    0    0    0    0  0.00000000000E+00  0.00000000000E+00  0.45593999997E+02  0.45594000000E+02  0.51100000000E-03 0. -1.
         11   -1    0    0    0    0 -0.00000000000E+00 -0.00000000000E+00 -0.45593999997E+02  0.45594000000E+02  0.51100000000E-03 0.  1.
         23    2    1    2    0    0  0.00000000000E+00  0.00000000000E+00  0.00000000000E+00  0.91188000000E+02  0.91188000000E+02 0.  0.
    9900012    2    3    3    0    0 -0.30164308966E+02  0.55414361960E+01  0.32992735436E+02  0.46142316055E+02  0.99999844402E+01 0.  0.
        -12    1    3    3    0    0  0.30164308966E+02 -0.55414361960E+01 -0.32992735436E+02  0.45045683945E+02  0.00000000000E+00 0.  1.
         11    1    4    4    0    0 -0.99621175655E+01 -0.35170976217E+00  0.84169271784E+01  0.13046537837E+02  0.51100000000E-03 0. -1.
        -11    1    4    4    0    0 -0.11115165897E+02  0.63487508509E+01  0.16843216302E+02  0.21155318148E+02  0.51100000000E-03 0.  1.
        -12    1    4    4    0    0 -0.90870255033E+01 -0.45560489275E+00  0.77325919563E+01  0.11940460070E+02  0.00000000000E+00 0.  1.
</event>
<event>
 8    1  0.2882335E-009  0.9118800E+02  0.7816164E-02  0.1184000E+00
        -11   -1    0    0    0    0  0.00000000000E+00  0.00000000000E+00  0.45593999997E+02  0.45594000000E+02  0.51100000000E-03 0. -1.
         11   -1    0    0    0    0 -0.00000000000E+00 -0.00000000000E+00 -0.45593999997E+02  0.45594000000E+02  0.51100000000E-03 0.  1.
         23    2    1    2    0    0  0.35527136788E-14 -0.22204460493E-15 -0.71054273576E-14  0.91188000000E+02  0.91188000000E+02 0.  0.
    9900012    2    3    3    0    0  0.14315170806E+02  0.12226282660E+01 -0.42693026596E+02  0.46142318131E+02  0.10000003377E+02 0.  0.
         12    1    3    3    0    0 -0.14315170806E+02 -0.12226282660E+01  0.42693026596E+02  0.45045681869E+02  0.00000000000E+00 0. -1.
         11    1    4    4    0    0  0.12626023632E+01 -0.24008920674E+01 -0.36245121412E+01  0.45271995725E+01  0.51100000000E-03 0. -1.
        -11    1    4    4    0    0  0.90205325310E+01  0.47181290731E+00 -0.27995367557E+02  0.29416546696E+02  0.51100000000E-03 0.  1.
        -12    1    4    4    0    0  0.40320359118E+01  0.31517074261E+01 -0.11073146897E+02  0.12198571863E+02  0.00000000000E+00 0.  1.
</event>
<event>
 8    1  0.2882335E-009  0.9118800E+02  0.7816164E-02  0.1184000E+00
        -11   -1    0    0    0    0  0.00000000000E+00  0.00000000000E+00  0.45593999997E+02  0.45594000000E+02  0.51100000000E-03 0. -1.
         11   -1    0    0    0    0 -0.00000000000E+00 -0.00000000000E+00 -0.45593999997E+02  0.45594000000E+02  0.51100000000E-03 0.  1.
         23    2    1    2    0    0  0.00000000000E+00 -0.88817841970E-15  0.00000000000E+00  0.91188000000E+02  0.91188000000E+02 0.  0.
    9900012    2    3    3    0    0 -0.41388033823E+01  0.65649511307E+01 -0.44372120767E+02  0.46142318984E+02  0.10000011155E+02 0.  0.
         12    1    3    3    0    0  0.41388033823E+01 -0.65649511307E+01  0.44372120767E+02  0.45045681016E+02  0.00000000000E+00 0. -1.
         11    1    4    4    0    0 -0.38495093109E+01  0.34175025245E+01 -0.20738493965E+02  0.21367807038E+02  0.51100000000E-03 0. -1.
        -11    1    4    4    0    0 -0.14865904987E+01  0.97227253914E+00 -0.21277809134E+02  0.21351824911E+02  0.51100000000E-03 0.  1.
        -12    1    4    4    0    0  0.11972964273E+01  0.21751760671E+01 -0.23558176684E+01  0.34226870357E+01  0.00000000000E+00 0.  1.
</event>
<event>
 8    1  0.3985493E-009  0.9118800E+02  0.7816164E-02  0.1184000E+00
        -11   -1    0    0    0    0  0.00000000000E+00  0.00000000000E+00  0.45593999997E+02  0.45594000000E+02  0.51100000000E-03 0. -1.
         11   -1    0    0    0    0 -0.00000000000E+00 -0.00000000000E+00 -0.45593999997E+02  0.45594000000E+02  0.51100000000E-03 0.  1.
         23    2    1    2    0    0  0.44408920985E-15  0.00000000000E+00 -0.71054273576E-14  0.91188000000E+02  0.91188000000E+02 0.  0.
    9900012    2    3    3    0    0 -0.31033563889E+01  0.14742749117E+02  0.42451549223E+02  0.46142317589E+02  0.99999984331E+01 0.  0.
        -12    1    3    3    0    0  0.31033563889E+01 -0.14742749117E+02 -0.42451549223E+02  0.45045682411E+02  0.00000000000E+00 0.  1.
         11    1    4    4    0    0 -0.34660708113E+01  0.98477744406E+01  0.37893511682E+02  0.39305349968E+02  0.51100000000E-03 0. -1.
        -11    1    4    4    0    0  0.48306733008E+00  0.31217195781E+01  0.20601767909E+01  0.37713148689E+01  0.51100000000E-03 0.  1.
         12    1    4    4    0    0 -0.12035290767E+00  0.17732550987E+01  0.24978607503E+01  0.30656527519E+01  0.00000000000E+00 0. -1.
</event>
<event>
 8    1  0.2882335E-009  0.9118800E+02  0.7816164E-02  0.1184000E+00
        -11   -1    0    0    0    0  0.00000000000E+00  0.00000000000E+00  0.45593999997E+02  0.45594000000E+02  0.51100000000E-03 0. -1.
         11   -1    0    0    0    0 -0.00000000000E+00 -0.00000000000E+00 -0.45593999997E+02  0.45594000000E+02  0.51100000000E-03 0.  1.
         23    2    1    2    0    0  0.00000000000E+00  0.00000000000E+00  0.00000000000E+00  0.91188000000E+02  0.91188000000E+02 0.  0.
    9900012    2    3    3    0    0  0.19545692887E+02  0.76967123875E+01  0.39847709681E+02  0.46142318089E+02  0.10000002992E+02 0.  0.
        -12    1    3    3    0    0 -0.19545692887E+02 -0.76967123875E+01 -0.39847709681E+02  0.45045681911E+02  0.00000000000E+00 0.  1.
         11    1    4    4    0    0  0.19287261426E+01  0.80994338712E+00  0.28588152797E+01  0.35424310703E+01  0.51100000000E-03 0. -1.
        -11    1    4    4    0    0  0.11527314627E+02  0.48188556696E+01  0.14167524190E+02  0.18889655751E+02  0.51100000000E-03 0.  1.
        -12    1    4    4    0    0  0.60896521177E+01  0.20679133309E+01  0.22821370211E+02  0.23710231268E+02  0.00000000000E+00 0.  1.
</event>
<event>
 8    1  0.2882335E-009  0.9118800E+02  0.7816164E-02  0.1184000E+00
        -11   -1    0    0    0    0  0.00000000000E+00  0.00000000000E+00  0.45593999997E+02  0.45594000000E+02  0.51100000000E-03 0. -1.
         11   -1    0    0    0    0 -0.00000000000E+00 -0.00000000000E+00 -0.45593999997E+02  0.45594000000E+02  0.51100000000E-03 0.  1.
         23    2    1    2    0    0  0.35527136788E-14  0.00000000000E+00  0.00000000000E+00  0.91188000000E+02  0.91188000000E+02 0.  0.
    9900012    2    3    3    0    0 -0.21280338882E+02 -0.32275013872E+02 -0.23121073306E+02  0.46142319029E+02  0.10000011560E+02 0.  0.
         12    1    3    3    0    0  0.21280338882E+02  0.32275013872E+02  0.23121073306E+02  0.45045680971E+02  0.00000000000E+00 0. -1.
         11    1    4    4    0    0 -0.94791138530E+01 -0.91486685755E+01 -0.93029503353E+01  0.16127511319E+02  0.51100000000E-03 0. -1.
        -11    1    4    4    0    0 -0.72150602401E+01 -0.12777883564E+02 -0.11029895688E+02  0.18357287430E+02  0.51100000000E-03 0.  1.
         12    1    4    4    0    0 -0.45861647885E+01 -0.10348461733E+02 -0.27882272827E+01  0.11657520280E+02  0.00000000000E+00 0. -1.
</event>
<event>
 8    1  0.2882335E-009  0.9118800E+02  0.7816164E-02  0.1184000E+00
        -11   -1    0    0    0    0  0.00000000000E+00  0.00000000000E+00  0.45593999997E+02  0.45594000000E+02  0.51100000000E-03 0. -1.
         11   -1    0    0    0    0 -0.00000000000E+00 -0.00000000000E+00 -0.45593999997E+02  0.45594000000E+02  0.51100000000E-03 0.  1.
         23    2    1    2    0    0  0.44408920985E-15  0.44408920985E-15  0.00000000000E+00  0.91188000000E+02  0.91188000000E+02 0.  0.
    9900012    2    3    3    0    0 -0.33897143316E+01  0.28610922689E+01 -0.44826750686E+02  0.46142316641E+02  0.99999897862E+01 0.  0.
         12    1    3    3    0    0  0.33897143316E+01 -0.28610922689E+01  0.44826750686E+02  0.45045683359E+02  0.00000000000E+00 0. -1.
         11    1    4    4    0    0  0.26689257524E+01  0.25400017236E+01 -0.17268319851E+02  0.17656999863E+02  0.51100000000E-03 0. -1.
        -11    1    4    4    0    0 -0.46903136245E+01 -0.88550001561E+00 -0.24171831334E+02  0.24638599442E+02  0.51100000000E-03 0.  1.
        -12    1    4    4    0    0 -0.13683264594E+01  0.12065905609E+01 -0.33865995006E+01  0.38467173355E+01  0.00000000000E+00 0.  1.
</event>
<event>
 8    1  0.2882335E-009  0.9118800E+02  0.7816164E-02  0.1184000E+00
        -11   -1    0    0    0    0  0.00000000000E+00  0.00000000000E+00  0.45593999997E+02  0.45594000000E+02  0.51100000000E-03 0. -1.
         11   -1    0    0    0    0 -0.00000000000E+00 -0.00000000000E+00 -0.45593999997E+02  0.45594000000E+02  0.51100000000E-03 0.  1.
         23    2    1    2    0    0  0.00000000000E+00  0.00000000000E+00  0.00000000000E+00  0.91188000000E+02  0.91188000000E+02 0.  0.
    9900012    2    3    3    0    0  0.19283719866E+01 -0.29895483613E+02  0.33640079030E+02  0.46142317897E+02  0.10000001240E+02 0.  0.
        -12    1    3    3    0    0 -0.19283719866E+01  0.29895483613E+02 -0.33640079030E+02  0.45045682103E+02  0.00000000000E+00 0.  1.
         11    1    4    4    0    0 -0.18081765161E+01 -0.31196381973E+01  0.27655437039E+01  0.45442135772E+01  0.51100000000E-03 0. -1.
        -11    1    4    4    0    0  0.31374109027E+01 -0.49328254464E+01  0.85660542048E+01  0.10370795483E+02  0.51100000000E-03 0.  1.
         12    1    4    4    0    0  0.59913760009E+00 -0.21843019969E+02  0.22308481121E+02  0.31227308837E+02  0.00000000000E+00 0. -1.
</event>
<event>
 8    1  0.2882335E-009  0.9118800E+02  0.7816164E-02  0.1184000E+00
        -11   -1    0    0    0    0  0.00000000000E+00  0.00000000000E+00  0.45593999997E+02  0.45594000000E+02  0.51100000000E-03 0.  1.
         11   -1    0    0    0    0 -0.00000000000E+00 -0.00000000000E+00 -0.45593999997E+02  0.45594000000E+02  0.51100000000E-03 0. -1.
         23    2    1    2    0    0 -0.71054273576E-14  0.00000000000E+00  0.00000000000E+00  0.91188000000E+02  0.91188000000E+02 0.  0.
    9900012    2    3    3    0    0  0.38725558077E+02  0.14367918633E+02  0.17972411145E+02  0.46142317670E+02  0.99999991733E+01 0.  0.
        -12    1    3    3    0    0 -0.38725558077E+02 -0.14367918633E+02 -0.17972411145E+02  0.45045682330E+02  0.00000000000E+00 0.  1.
         11    1    4    4    0    0  0.13486936320E+02  0.71044166223E+01  0.57776062271E+01  0.16301868630E+02  0.51100000000E-03 0. -1.
        -11    1    4    4    0    0  0.21615476944E+02  0.45227744545E+01  0.12335587699E+02  0.25295277354E+02  0.51100000000E-03 0.  1.
         12    1    4    4    0    0  0.36231448122E+01  0.27407275558E+01 -0.14078278145E+00  0.45451716862E+01  0.00000000000E+00 0. -1.
</event>
<event>
 8    1  0.2882335E-009  0.9118800E+02  0.7816164E-02  0.1184000E+00
        -11   -1    0    0    0    0  0.00000000000E+00  0.00000000000E+00  0.45593999997E+02  0.45594000000E+02  0.51100000000E-03 0. -1.
         11   -1    0    0    0    0 -0.00000000000E+00 -0.00000000000E+00 -0.45593999997E+02  0.45594000000E+02  0.51100000000E-03 0.  1.
         23    2    1    2    0    0  0.35527136788E-14  0.00000000000E+00  0.00000000000E+00  0.91188000000E+02  0.91188000000E+02 0.  0.
    9900012    2    3    3    0    0 -0.30214536284E+02 -0.29290698790E+02 -0.16070168226E+02  0.46142317130E+02  0.99999942429E+01 0.  0.
         12    1    3    3    0    0  0.30214536284E+02  0.29290698790E+02  0.16070168226E+02  0.45045682870E+02  0.00000000000E+00 0. -1.
         11    1    4    4    0    0 -0.14418763394E+01 -0.77307012642E+00  0.11079041009E+01  0.19758786796E+01  0.51100000000E-03 0. -1.
        -11    1    4    4    0    0 -0.22399453267E+02 -0.19866494921E+02 -0.12897170448E+02  0.32599848664E+02  0.51100000000E-03 0.  1.
        -12    1    4    4    0    0 -0.63732066777E+01 -0.86511337430E+01 -0.42809018785E+01  0.11566589786E+02  0.00000000000E+00 0.  1.
</event>
<event>
 8    1  0.2882335E-009  0.9118800E+02  0.7816164E-02  0.1184000E+00
        -11   -1    0    0    0    0  0.00000000000E+00  0.00000000000E+00  0.45593999997E+02  0.45594000000E+02  0.51100000000E-03 0.  1.
         11   -1    0    0    0    0 -0.00000000000E+00 -0.00000000000E+00 -0.45593999997E+02  0.45594000000E+02  0.51100000000E-03 0. -1.
         23    2    1    2    0    0  0.00000000000E+00  0.00000000000E+00  0.35527136788E-14  0.91188000000E+02  0.91188000000E+02 0.  0.
    9900012    2    3    3    0    0 -0.16251617653E+02 -0.34239798112E+02  0.24344082331E+02  0.46142321010E+02  0.10000029627E+02 0.  0.
        -12    1    3    3    0    0  0.16251617653E+02  0.34239798112E+02 -0.24344082331E+02  0.45045678990E+02  0.00000000000E+00 0.  1.
         11    1    4    4    0    0 -0.59573061717E+00 -0.18345670603E+01  0.40946219082E+01  0.45261970901E+01  0.51100000000E-03 0. -1.
        -11    1    4    4    0    0 -0.52616941812E+01 -0.13051909266E+02  0.52693734599E+01  0.15026778033E+02  0.51100000000E-03 0.  1.
         12    1    4    4    0    0 -0.10394192854E+02 -0.19353321786E+02  0.14980086963E+02  0.26589345887E+02  0.00000000000E+00 0. -1.
</event>
<event>
 8    1  0.2882335E-009  0.9118800E+02  0.7816164E-02  0.1184000E+00
        -11   -1    0    0    0    0  0.00000000000E+00  0.00000000000E+00  0.45593999997E+02  0.45594000000E+02  0.51100000000E-03 0. -1.
         11   -1    0    0    0    0 -0.00000000000E+00 -0.00000000000E+00 -0.45593999997E+02  0.45594000000E+02  0.51100000000E-03 0.  1.
         23    2    1    2    0    0 -0.35527136788E-14  0.00000000000E+00  0.00000000000E+00  0.91188000000E+02  0.91188000000E+02 0.  0.
    9900012    2    3    3    0    0  0.31259963560E+02 -0.21683440199E+02  0.24119634800E+02  0.46142315595E+02  0.99999802480E+01 0.  0.
        -12    1    3    3    0    0 -0.31259963560E+02  0.21683440199E+02 -0.24119634800E+02  0.45045684405E+02  0.00000000000E+00 0.  1.
         11    1    4    4    0    0  0.13589924649E+02 -0.95718596878E+01  0.10667301075E+02  0.19750895229E+02  0.51100000000E-03 0. -1.
        -11    1    4    4    0    0  0.50424437855E-01  0.11011330731E+00  0.21468156585E+01  0.21502291266E+01  0.51100000000E-03 0.  1.
        -12    1    4    4    0    0  0.17619614473E+02 -0.12221693818E+02  0.11305518067E+02  0.24241191240E+02  0.00000000000E+00 0.  1.
</event>
<event>
 8    1  0.2882335E-009  0.9118800E+02  0.7816164E-02  0.1184000E+00
        -11   -1    0    0    0    0  0.00000000000E+00  0.00000000000E+00  0.45593999997E+02  0.45594000000E+02  0.51100000000E-03 0. -1.
         11   -1    0    0    0    0 -0.00000000000E+00 -0.00000000000E+00 -0.45593999997E+02  0.45594000000E+02  0.51100000000E-03 0.  1.
         23    2    1    2    0    0  0.44408920985E-15  0.71054273576E-14  0.17763568394E-14  0.91188000000E+02  0.91188000000E+02 0.  0.
    9900012    2    3    3    0    0  0.32106643600E+01 -0.42705750477E+02 -0.13965084719E+02  0.46142322286E+02  0.10000041265E+02 0.  0.
         12    1    3    3    0    0 -0.32106643600E+01  0.42705750477E+02  0.13965084719E+02  0.45045677714E+02  0.00000000000E+00 0. -1.
         11    1    4    4    0    0  0.21044432067E+01 -0.30419082095E+02 -0.62531581887E+01  0.31126375059E+02  0.51100000000E-03 0. -1.
        -11    1    4    4    0    0  0.24586406465E+01 -0.85033945716E+01 -0.49669511198E+01  0.10150036293E+02  0.51100000000E-03 0.  1.
         12    1    4    4    0    0 -0.13524194932E+01 -0.37832738107E+01 -0.27449754109E+01  0.48659109340E+01  0.00000000000E+00 0. -1.
</event>
<event>
 8    1  0.3022061E-009  0.9118800E+02  0.7816164E-02  0.1184000E+00
        -11   -1    0    0    0    0  0.00000000000E+00  0.00000000000E+00  0.45593999997E+02  0.45594000000E+02  0.51100000000E-03 0. -1.
         11   -1    0    0    0    0 -0.00000000000E+00 -0.00000000000E+00 -0.45593999997E+02  0.45594000000E+02  0.51100000000E-03 0.  1.
         23    2    1    2    0    0 -0.88817841970E-15  0.00000000000E+00  0.00000000000E+00  0.91188000000E+02  0.91188000000E+02 0.  0.
    9900012    2    3    3    0    0 -0.59489484282E+01 -0.41023554399E+01  0.44462277826E+02  0.46142318109E+02  0.10000003175E+02 0.  0.
        -12    1    3    3    0    0  0.59489484282E+01  0.41023554399E+01 -0.44462277826E+02  0.45045681891E+02  0.00000000000E+00 0.  1.
         11    1    4    4    0    0  0.10127294531E+01 -0.96401149753E-01  0.22504226106E+02  0.22527208149E+02  0.51100000000E-03 0. -1.
        -11    1    4    4    0    0 -0.98282880405E+00 -0.53114892921E+00  0.85177530646E+00  0.14048462823E+01  0.51100000000E-03 0.  1.
         12    1    4    4    0    0 -0.59788490773E+01 -0.34748053609E+01  0.21106276414E+02  0.22210263678E+02  0.00000000000E+00 0. -1.
</event>
<event>
 8    1  0.2882335E-009  0.9118800E+02  0.7816164E-02  0.1184000E+00
        -11   -1    0    0    0    0  0.00000000000E+00  0.00000000000E+00  0.45593999997E+02  0.45594000000E+02  0.51100000000E-03 0. -1.
         11   -1    0    0    0    0 -0.00000000000E+00 -0.00000000000E+00 -0.45593999997E+02  0.45594000000E+02  0.51100000000E-03 0.  1.
         23    2    1    2    0    0  0.00000000000E+00  0.00000000000E+00  0.00000000000E+00  0.91188000000E+02  0.91188000000E+02 0.  0.
    9900012    2    3    3    0    0  0.34459743944E+02 -0.26310206386E+02 -0.12223447786E+02  0.46142316650E+02  0.99999898637E+01 0.  0.
         12    1    3    3    0    0 -0.34459743944E+02  0.26310206386E+02  0.12223447786E+02  0.45045683350E+02  0.00000000000E+00 0. -1.
         11    1    4    4    0    0  0.26504377895E+00  0.45777632686E+00 -0.12362583903E+01  0.13446718704E+01  0.51100000000E-03 0. -1.
        -11    1    4    4    0    0  0.23799939480E+02 -0.18831554077E+02 -0.74721387413E+01  0.31255358034E+02  0.51100000000E-03 0.  1.
         12    1    4    4    0    0  0.10394760685E+02 -0.79364286358E+01 -0.35150506547E+01  0.13542286745E+02  0.00000000000E+00 0. -1.
</event>
<event>
 8    1  0.2882335E-009  0.9118800E+02  0.7816164E-02  0.1184000E+00
        -11   -1    0    0    0    0  0.00000000000E+00  0.00000000000E+00  0.45593999997E+02  0.45594000000E+02  0.51100000000E-03 0. -1.
         11   -1    0    0    0    0 -0.00000000000E+00 -0.00000000000E+00 -0.45593999997E+02  0.45594000000E+02  0.51100000000E-03 0.  1.
         23    2    1    2    0    0  0.00000000000E+00  0.00000000000E+00  0.00000000000E+00  0.91188000000E+02  0.91188000000E+02 0.  0.
    9900012    2    3    3    0    0 -0.79623215968E+01 -0.43904345086E+02 -0.61744175307E+01  0.46142317471E+02  0.99999973540E+01 0.  0.
         12    1    3    3    0    0  0.79623215968E+01  0.43904345086E+02  0.61744175307E+01  0.45045682529E+02  0.00000000000E+00 0. -1.
         11    1    4    4    0    0 -0.50253573115E+00 -0.20818592955E+01  0.14440270561E+01  0.25830011009E+01  0.51100000000E-03 0. -1.
        -11    1    4    4    0    0 -0.56078337194E+01 -0.23346955285E+02 -0.68769510136E+01  0.24976400373E+02  0.51100000000E-03 0.  1.
        -12    1    4    4    0    0 -0.18519521463E+01 -0.18475530506E+02 -0.74149357319E+00  0.18582915997E+02  0.00000000000E+00 0.  1.
</event>
<event>
 8    1  0.2882335E-009  0.9118800E+02  0.7816164E-02  0.1184000E+00
        -11   -1    0    0    0    0  0.00000000000E+00  0.00000000000E+00  0.45593999997E+02  0.45594000000E+02  0.51100000000E-03 0. -1.
         11   -1    0    0    0    0 -0.00000000000E+00 -0.00000000000E+00 -0.45593999997E+02  0.45594000000E+02  0.51100000000E-03 0.  1.
         23    2    1    2    0    0  0.35527136788E-14  0.71054273576E-14 -0.17763568394E-14  0.91188000000E+02  0.91188000000E+02 0.  0.
    9900012    2    3    3    0    0  0.21327923231E+02  0.37829811743E+02 -0.11964053686E+02  0.46142317116E+02  0.99999941145E+01 0.  0.
         12    1    3    3    0    0 -0.21327923231E+02 -0.37829811743E+02  0.11964053686E+02  0.45045682884E+02  0.00000000000E+00 0. -1.
         11    1    4    4    0    0  0.80566590079E+01  0.15750668158E+02 -0.92632438689E+01  0.19970002229E+02  0.51100000000E-03 0. -1.
        -11    1    4    4    0    0  0.57882248863E+01  0.79077129349E+01  0.56936714146E+00  0.98162951462E+01  0.51100000000E-03 0.  1.
        -12    1    4    4    0    0  0.74830393373E+01  0.14171430651E+02 -0.32701769586E+01  0.16356019741E+02  0.00000000000E+00 0.  1.
</event>
<event>
 8    1  0.2882335E-009  0.9118800E+02  0.7816164E-02  0.1184000E+00
        -11   -1    0    0    0    0  0.00000000000E+00  0.00000000000E+00  0.45593999997E+02  0.45594000000E+02  0.51100000000E-03 0. -1.
         11   -1    0    0    0    0 -0.00000000000E+00 -0.00000000000E+00 -0.45593999997E+02  0.45594000000E+02  0.51100000000E-03 0.  1.
         23    2    1    2    0    0  0.00000000000E+00  0.00000000000E+00  0.00000000000E+00  0.91188000000E+02  0.91188000000E+02 0.  0.
    9900012    2    3    3    0    0  0.21496416320E+02 -0.88463534907E+01  0.38584448942E+02  0.46142316691E+02  0.99999902379E+01 0.  0.
        -12    1    3    3    0    0 -0.21496416320E+02  0.88463534907E+01 -0.38584448942E+02  0.45045683309E+02  0.00000000000E+00 0.  1.
         11    1    4    4    0    0  0.67866127642E+01  0.30212173581E+00  0.86181402916E+01  0.10973683643E+02  0.51100000000E-03 0. -1.
        -11    1    4    4    0    0  0.28154701476E+01 -0.51033194734E+01  0.10191279416E+02  0.11740226497E+02  0.51100000000E-03 0.  1.
        -12    1    4    4    0    0  0.11894333408E+02 -0.40451557531E+01  0.19775029234E+02  0.23428406550E+02  0.00000000000E+00 0.  1.
</event>
<event>
 8    1  0.2882335E-009  0.9118800E+02  0.7816164E-02  0.1184000E+00
        -11   -1    0    0    0    0  0.00000000000E+00  0.00000000000E+00  0.45593999997E+02  0.45594000000E+02  0.51100000000E-03 0. -1.
         11   -1    0    0    0    0 -0.00000000000E+00 -0.00000000000E+00 -0.45593999997E+02  0.45594000000E+02  0.51100000000E-03 0.  1.
         23    2    1    2    0    0  0.88817841970E-15  0.71054273576E-14 -0.88817841970E-15  0.91188000000E+02  0.91188000000E+02 0.  0.
    9900012    2    3    3    0    0  0.46068858660E+01  0.44271925891E+02 -0.69200143642E+01  0.46142318539E+02  0.10000007097E+02 0.  0.
         12    1    3    3    0    0 -0.46068858660E+01 -0.44271925891E+02  0.69200143642E+01  0.45045681461E+02  0.00000000000E+00 0. -1.
         11    1    4    4    0    0  0.17310625349E+01  0.33135726596E+01  0.44798231861E+00  0.37652396589E+01  0.51100000000E-03 0. -1.
        -11    1    4    4    0    0 -0.15768149183E+01  0.73599395049E+01 -0.33801937507E+01  0.82511068867E+01  0.51100000000E-03 0.  1.
         12    1    4    4    0    0  0.44526382493E+01  0.33598413726E+02 -0.39878029321E+01  0.34125971994E+02  0.00000000000E+00 0. -1.
</event>
<event>
 8    1  0.2882335E-009  0.9118800E+02  0.7816164E-02  0.1184000E+00
        -11   -1    0    0    0    0  0.00000000000E+00  0.00000000000E+00  0.45593999997E+02  0.45594000000E+02  0.51100000000E-03 0. -1.
         11   -1    0    0    0    0 -0.00000000000E+00 -0.00000000000E+00 -0.45593999997E+02  0.45594000000E+02  0.51100000000E-03 0.  1.
         23    2    1    2    0    0  0.00000000000E+00  0.00000000000E+00  0.17763568394E-14  0.91188000000E+02  0.91188000000E+02 0.  0.
    9900012    2    3    3    0    0 -0.42703512428E+02  0.31925296939E+01 -0.13976097721E+02  0.46142317331E+02  0.99999960808E+01 0.  0.
         12    1    3    3    0    0  0.42703512428E+02 -0.31925296939E+01  0.13976097721E+02  0.45045682669E+02  0.00000000000E+00 0. -1.
         11    1    4    4    0    0 -0.43263475297E+01  0.65875756190E+00 -0.45048149046E+01  0.62804937751E+01  0.51100000000E-03 0. -1.
        -11    1    4    4    0    0 -0.33252309021E+02  0.28192457780E+01 -0.67321727415E+01  0.34043888615E+02  0.51100000000E-03 0.  1.
        -12    1    4    4    0    0 -0.51248558781E+01 -0.28547364594E+00 -0.27391100754E+01  0.58179349411E+01  0.00000000000E+00 0.  1.
</event>
<event>
 8    1  0.2882335E-009  0.9118800E+02  0.7816164E-02  0.1184000E+00
        -11   -1    0    0    0    0  0.00000000000E+00  0.00000000000E+00  0.45593999997E+02  0.45594000000E+02  0.51100000000E-03 0. -1.
         11   -1    0    0    0    0 -0.00000000000E+00 -0.00000000000E+00 -0.45593999997E+02  0.45594000000E+02  0.51100000000E-03 0.  1.
         23    2    1    2    0    0  0.00000000000E+00  0.00000000000E+00 -0.71054273576E-14  0.91188000000E+02  0.91188000000E+02 0.  0.
    9900012    2    3    3    0    0  0.39314780683E+01 -0.25543707555E+01  0.44801028833E+02  0.46142317474E+02  0.99999973780E+01 0.  0.
        -12    1    3    3    0    0 -0.39314780683E+01  0.25543707555E+01 -0.44801028833E+02  0.45045682526E+02  0.00000000000E+00 0.  1.
         11    1    4    4    0    0  0.54839170170E+01  0.16574524793E+00  0.25962746228E+02  0.26536107652E+02  0.51100000000E-03 0. -1.
        -11    1    4    4    0    0 -0.99095049771E+00 -0.30329326205E+01  0.63994090851E+01  0.71507412252E+01  0.51100000000E-03 0.  1.
        -12    1    4    4    0    0 -0.56148845105E+00  0.31281661714E+00  0.12438873520E+02  0.12455468597E+02  0.00000000000E+00 0.  1.
</event>
<event>
 8    1  0.2882335E-009  0.9118800E+02  0.7816164E-02  0.1184000E+00
        -11   -1    0    0    0    0  0.00000000000E+00  0.00000000000E+00  0.45593999997E+02  0.45594000000E+02  0.51100000000E-03 0. -1.
         11   -1    0    0    0    0 -0.00000000000E+00 -0.00000000000E+00 -0.45593999997E+02  0.45594000000E+02  0.51100000000E-03 0.  1.
         23    2    1    2    0    0  0.00000000000E+00  0.00000000000E+00  0.35527136788E-14  0.91188000000E+02  0.91188000000E+02 0.  0.
    9900012    2    3    3    0    0  0.27340057877E+02  0.20638735240E+02 -0.29251962675E+02  0.46142317884E+02  0.10000001117E+02 0.  0.
         12    1    3    3    0    0 -0.27340057877E+02 -0.20638735240E+02  0.29251962675E+02  0.45045682116E+02  0.00000000000E+00 0. -1.
         11    1    4    4    0    0  0.83784331714E+01  0.30808084066E+01 -0.98351435259E+01  0.13282302936E+02  0.51100000000E-03 0.  1.
        -11    1    4    4    0    0  0.99176744287E+01  0.54307096186E+01 -0.70960900886E+01  0.13349433241E+02  0.51100000000E-03 0. -1.
        -12    1    4    4    0    0  0.90439502768E+01  0.12127217215E+02 -0.12320729060E+02  0.19510581707E+02  0.00000000000E+00 0.  1.
</event>
<event>
 8    1  0.2882335E-009  0.9118800E+02  0.7816164E-02  0.1184000E+00
        -11   -1    0    0    0    0  0.00000000000E+00  0.00000000000E+00  0.45593999997E+02  0.45594000000E+02  0.51100000000E-03 0. -1.
         11   -1    0    0    0    0 -0.00000000000E+00 -0.00000000000E+00 -0.45593999997E+02  0.45594000000E+02  0.51100000000E-03 0.  1.
         23    2    1    2    0    0  0.00000000000E+00  0.44408920985E-15  0.00000000000E+00  0.91188000000E+02  0.91188000000E+02 0.  0.
    9900012    2    3    3    0    0  0.11415325362E+02 -0.16005009814E+01 -0.43545861416E+02  0.46142319819E+02  0.10000018761E+02 0.  0.
         12    1    3    3    0    0 -0.11415325362E+02  0.16005009814E+01  0.43545861416E+02  0.45045680181E+02  0.00000000000E+00 0. -1.
         11    1    4    4    0    0  0.27568382133E+01  0.23963767031E+01 -0.19257520998E+02  0.19600890120E+02  0.51100000000E-03 0. -1.
        -11    1    4    4    0    0  0.33587149590E+01 -0.25730868118E+01 -0.16366139402E+02  0.16904208385E+02  0.51100000000E-03 0.  1.
         12    1    4    4    0    0  0.52997721902E+01 -0.14237908727E+01 -0.79222010159E+01  0.96372213139E+01  0.00000000000E+00 0. -1.
</event>
<event>
 8    1  0.2882335E-009  0.9118800E+02  0.7816164E-02  0.1184000E+00
        -11   -1    0    0    0    0  0.00000000000E+00  0.00000000000E+00  0.45593999997E+02  0.45594000000E+02  0.51100000000E-03 0. -1.
         11   -1    0    0    0    0 -0.00000000000E+00 -0.00000000000E+00 -0.45593999997E+02  0.45594000000E+02  0.51100000000E-03 0.  1.
         23    2    1    2    0    0  0.00000000000E+00  0.00000000000E+00  0.00000000000E+00  0.91188000000E+02  0.91188000000E+02 0.  0.
    9900012    2    3    3    0    0  0.13733485274E+02 -0.15436737911E+02  0.40027640959E+02  0.46142317234E+02  0.99999951928E+01 0.  0.
        -12    1    3    3    0    0 -0.13733485274E+02  0.15436737911E+02 -0.40027640959E+02  0.45045682766E+02  0.00000000000E+00 0.  1.
         11    1    4    4    0    0  0.37290000056E+01 -0.74651258025E+01  0.94555872626E+01  0.12611172627E+02  0.51100000000E-03 0. -1.
        -11    1    4    4    0    0  0.70994049888E+01 -0.49540763024E+01  0.25631284835E+02  0.27053783206E+02  0.51100000000E-03 0.  1.
        -12    1    4    4    0    0  0.29050802798E+01 -0.30175358064E+01  0.49407688615E+01  0.64773614009E+01  0.00000000000E+00 0.  1.
</event>
<event>
 8    1  0.2882335E-009  0.9118800E+02  0.7816164E-02  0.1184000E+00
        -11   -1    0    0    0    0  0.00000000000E+00  0.00000000000E+00  0.45593999997E+02  0.45594000000E+02  0.51100000000E-03 0. -1.
         11   -1    0    0    0    0 -0.00000000000E+00 -0.00000000000E+00 -0.45593999997E+02  0.45594000000E+02  0.51100000000E-03 0.  1.
         23    2    1    2    0    0  0.44408920985E-15  0.35527136788E-14  0.00000000000E+00  0.91188000000E+02  0.91188000000E+02 0.  0.
    9900012    2    3    3    0    0  0.34942376320E+01  0.17561607945E+02  0.41333928965E+02  0.46142318143E+02  0.10000003483E+02 0.  0.
        -12    1    3    3    0    0 -0.34942376320E+01 -0.17561607945E+02 -0.41333928965E+02  0.45045681857E+02  0.00000000000E+00 0.  1.
         11    1    4    4    0    0 -0.13729543439E+01  0.16093572536E+01  0.64985170149E+01  0.68341611083E+01  0.51100000000E-03 0. -1.
        -11    1    4    4    0    0  0.37791970032E+01  0.11514158195E+02  0.16874923334E+02  0.20775495342E+02  0.51100000000E-03 0.  1.
        -12    1    4    4    0    0  0.10879949727E+01  0.44380924967E+01  0.17960488616E+02  0.18532661692E+02  0.00000000000E+00 0.  1.
</event>
<event>
 8    1  0.2882335E-009  0.9118800E+02  0.7816164E-02  0.1184000E+00
        -11   -1    0    0    0    0  0.00000000000E+00  0.00000000000E+00  0.45593999997E+02  0.45594000000E+02  0.51100000000E-03 0. -1.
         11   -1    0    0    0    0 -0.00000000000E+00 -0.00000000000E+00 -0.45593999997E+02  0.45594000000E+02  0.51100000000E-03 0.  1.
         23    2    1    2    0    0  0.00000000000E+00  0.71054273576E-14  0.00000000000E+00  0.91188000000E+02  0.91188000000E+02 0.  0.
    9900012    2    3    3    0    0  0.25285707196E+01  0.41649243765E+02  0.16972325434E+02  0.46142323108E+02  0.10000048754E+02 0.  0.
        -12    1    3    3    0    0 -0.25285707196E+01 -0.41649243765E+02 -0.16972325434E+02  0.45045676892E+02  0.00000000000E+00 0.  1.
         11    1    4    4    0    0  0.55868500368E+01  0.33333756861E+02  0.13199057056E+02  0.36284533168E+02  0.51100000000E-03 0. -1.
        -11    1    4    4    0    0 -0.11649604406E+01  0.33824912764E+01  0.26597630186E+01  0.44578828652E+01  0.51100000000E-03 0.  1.
         12    1    4    4    0    0 -0.18933188765E+01  0.49329956270E+01  0.11135053591E+01  0.53999070741E+01  0.00000000000E+00 0. -1.
</event>
<event>
 8    1  0.2882335E-009  0.9118800E+02  0.7816164E-02  0.1184000E+00
        -11   -1    0    0    0    0  0.00000000000E+00  0.00000000000E+00  0.45593999997E+02  0.45594000000E+02  0.51100000000E-03 0. -1.
         11   -1    0    0    0    0 -0.00000000000E+00 -0.00000000000E+00 -0.45593999997E+02  0.45594000000E+02  0.51100000000E-03 0.  1.
         23    2    1    2    0    0  0.00000000000E+00  0.00000000000E+00  0.71054273576E-14  0.91188000000E+02  0.91188000000E+02 0.  0.
    9900012    2    3    3    0    0 -0.21108408134E+02 -0.22501686345E+02 -0.32821071505E+02  0.46142317443E+02  0.99999970973E+01 0.  0.
         12    1    3    3    0    0  0.21108408134E+02  0.22501686345E+02  0.32821071505E+02  0.45045682557E+02  0.00000000000E+00 0. -1.
         11    1    4    4    0    0 -0.23456134753E+01 -0.72263991359E+00 -0.51124790848E+00  0.25070870957E+01  0.51100000000E-03 0. -1.
        -11    1    4    4    0    0 -0.11146707158E+02 -0.10175463504E+02 -0.20197181451E+02  0.25213394789E+02  0.51100000000E-03 0.  1.
        -12    1    4    4    0    0 -0.76160875016E+01 -0.11603582927E+02 -0.12112642145E+02  0.18421835558E+02  0.00000000000E+00 0.  1.
</event>
<event>
 8    1  0.2882335E-009  0.9118800E+02  0.7816164E-02  0.1184000E+00
        -11   -1    0    0    0    0  0.00000000000E+00  0.00000000000E+00  0.45593999997E+02  0.45594000000E+02  0.51100000000E-03 0.  1.
         11   -1    0    0    0    0 -0.00000000000E+00 -0.00000000000E+00 -0.45593999997E+02  0.45594000000E+02  0.51100000000E-03 0. -1.
         23    2    1    2    0    0  0.00000000000E+00  0.00000000000E+00  0.00000000000E+00  0.91188000000E+02  0.91188000000E+02 0.  0.
    9900012    2    3    3    0    0 -0.36294405306E+02 -0.24995880811E+02 -0.93292847809E+01  0.46142317982E+02  0.10000002010E+02 0.  0.
         12    1    3    3    0    0  0.36294405306E+02  0.24995880811E+02  0.93292847809E+01  0.45045682018E+02  0.00000000000E+00 0. -1.
         11    1    4    4    0    0 -0.20268665854E+01 -0.12474885328E+01  0.68924111437E+00  0.24777952638E+01  0.51100000000E-03 0. -1.
        -11    1    4    4    0    0 -0.12934464903E+02 -0.48867345801E+01 -0.13186987545E+01  0.13889547288E+02  0.51100000000E-03 0.  1.
         12    1    4    4    0    0 -0.21333073817E+02 -0.18861657698E+02 -0.86998271408E+01  0.29774975430E+02  0.00000000000E+00 0. -1.
</event>
<event>
 8    1  0.2882335E-009  0.9118800E+02  0.7816164E-02  0.1184000E+00
        -11   -1    0    0    0    0  0.00000000000E+00  0.00000000000E+00  0.45593999997E+02  0.45594000000E+02  0.51100000000E-03 0. -1.
         11   -1    0    0    0    0 -0.00000000000E+00 -0.00000000000E+00 -0.45593999997E+02  0.45594000000E+02  0.51100000000E-03 0.  1.
         23    2    1    2    0    0  0.00000000000E+00  0.17763568394E-14  0.00000000000E+00  0.91188000000E+02  0.91188000000E+02 0.  0.
    9900012    2    3    3    0    0 -0.18185810952E+02 -0.80788177638E+01 -0.40411911508E+02  0.46142316431E+02  0.99999878705E+01 0.  0.
         12    1    3    3    0    0  0.18185810952E+02  0.80788177638E+01  0.40411911508E+02  0.45045683569E+02  0.00000000000E+00 0. -1.
         11    1    4    4    0    0 -0.29767299402E+01 -0.99991080324E+00 -0.15855827090E+01  0.35177856017E+01  0.51100000000E-03 0. -1.
        -11    1    4    4    0    0 -0.10978050482E+02 -0.23367482976E+01 -0.25458603813E+02  0.27822984983E+02  0.51100000000E-03 0.  1.
         12    1    4    4    0    0 -0.42310305296E+01 -0.47421586630E+01 -0.13367724986E+02  0.14801545846E+02  0.00000000000E+00 0. -1.
</event>
<event>
 8    1  0.2882335E-009  0.9118800E+02  0.7816164E-02  0.1184000E+00
        -11   -1    0    0    0    0  0.00000000000E+00  0.00000000000E+00  0.45593999997E+02  0.45594000000E+02  0.51100000000E-03 0. -1.
         11   -1    0    0    0    0 -0.00000000000E+00 -0.00000000000E+00 -0.45593999997E+02  0.45594000000E+02  0.51100000000E-03 0.  1.
         23    2    1    2    0    0  0.00000000000E+00  0.44408920985E-15  0.00000000000E+00  0.91188000000E+02  0.91188000000E+02 0.  0.
    9900012    2    3    3    0    0 -0.11381559199E+02  0.23867654570E+01 -0.43518697517E+02  0.46142316825E+02  0.99999914616E+01 0.  0.
         12    1    3    3    0    0  0.11381559199E+02 -0.23867654570E+01  0.43518697517E+02  0.45045683175E+02  0.00000000000E+00 0. -1.
         11    1    4    4    0    0 -0.42297340641E+01  0.30807662652E+00 -0.52822017725E+01  0.67740104286E+01  0.51100000000E-03 0. -1.
        -11    1    4    4    0    0 -0.67482529642E+01  0.29838540495E+01 -0.24272965140E+02  0.25369649978E+02  0.51100000000E-03 0.  1.
        -12    1    4    4    0    0 -0.40357217095E+00 -0.90516521895E+00 -0.13963530605E+02  0.13998656418E+02  0.00000000000E+00 0.  1.
</event>
<event>
 8    1  0.2882335E-009  0.9118800E+02  0.7816164E-02  0.1184000E+00
        -11   -1    0    0    0    0  0.00000000000E+00  0.00000000000E+00  0.45593999997E+02  0.45594000000E+02  0.51100000000E-03 0. -1.
         11   -1    0    0    0    0 -0.00000000000E+00 -0.00000000000E+00 -0.45593999997E+02  0.45594000000E+02  0.51100000000E-03 0.  1.
         23    2    1    2    0    0  0.00000000000E+00  0.00000000000E+00  0.00000000000E+00  0.91188000000E+02  0.91188000000E+02 0.  0.
    9900012    2    3    3    0    0 -0.14119745342E+02  0.63875597021E+01 -0.42295927245E+02  0.46142316644E+02  0.99999898146E+01 0.  0.
         12    1    3    3    0    0  0.14119745342E+02 -0.63875597021E+01  0.42295927245E+02  0.45045683356E+02  0.00000000000E+00 0. -1.
         11    1    4    4    0    0 -0.18913652256E+01  0.12435578822E+01 -0.23837786240E+01  0.32872632101E+01  0.51100000000E-03 0. -1.
        -11    1    4    4    0    0 -0.10823830541E+02  0.62007672519E+01 -0.26058160555E+02  0.28890007855E+02  0.51100000000E-03 0.  1.
        -12    1    4    4    0    0 -0.14045495753E+01 -0.10567654319E+01 -0.13853988066E+02  0.13965045579E+02  0.00000000000E+00 0.  1.
</event>
<event>
 8    1  0.2882335E-009  0.9118800E+02  0.7816164E-02  0.1184000E+00
        -11   -1    0    0    0    0  0.00000000000E+00  0.00000000000E+00  0.45593999997E+02  0.45594000000E+02  0.51100000000E-03 0. -1.
         11   -1    0    0    0    0 -0.00000000000E+00 -0.00000000000E+00 -0.45593999997E+02  0.45594000000E+02  0.51100000000E-03 0.  1.
         23    2    1    2    0    0 -0.22204460493E-15 -0.17763568394E-14 -0.71054273576E-14  0.91188000000E+02  0.91188000000E+02 0.  0.
    9900012    2    3    3    0    0  0.11500766751E+01  0.11507756419E+02  0.43535759137E+02  0.46142318101E+02  0.10000003097E+02 0.  0.
        -12    1    3    3    0    0 -0.11500766751E+01 -0.11507756419E+02 -0.43535759137E+02  0.45045681899E+02  0.00000000000E+00 0.  1.
         11    1    4    4    0    0  0.30309346277E+01  0.66412010262E+01  0.27686514237E+02  0.28632764216E+02  0.51100000000E-03 0. -1.
        -11    1    4    4    0    0 -0.37435904598E+01  0.29190839325E+01  0.10061172619E+02  0.11124869225E+02  0.51100000000E-03 0.  1.
         12    1    4    4    0    0  0.18627325072E+01  0.19474714604E+01  0.57880722803E+01  0.63846846598E+01  0.00000000000E+00 0. -1.
</event>
<event>
 8    1  0.2882335E-009  0.9118800E+02  0.7816164E-02  0.1184000E+00
        -11   -1    0    0    0    0  0.00000000000E+00  0.00000000000E+00  0.45593999997E+02  0.45594000000E+02  0.51100000000E-03 0. -1.
         11   -1    0    0    0    0 -0.00000000000E+00 -0.00000000000E+00 -0.45593999997E+02  0.45594000000E+02  0.51100000000E-03 0.  1.
         23    2    1    2    0    0 -0.17763568394E-14  0.00000000000E+00 -0.71054273576E-14  0.91188000000E+02  0.91188000000E+02 0.  0.
    9900012    2    3    3    0    0  0.15670386323E+02 -0.91665431569E+01 -0.41225318369E+02  0.46142318791E+02  0.10000009391E+02 0.  0.
         12    1    3    3    0    0 -0.15670386323E+02  0.91665431569E+01  0.41225318369E+02  0.45045681209E+02  0.00000000000E+00 0. -1.
         11    1    4    4    0    0  0.11945165983E+02 -0.73896175506E+01 -0.32797930968E+02  0.35679093514E+02  0.51100000000E-03 0.  1.
        -11    1    4    4    0    0  0.44789290095E+01 -0.10718996992E+01 -0.46392030194E+01  0.65369701661E+01  0.51100000000E-03 0. -1.
        -12    1    4    4    0    0 -0.75370866992E+00 -0.70502590717E+00 -0.37881843818E+01  0.39262551113E+01  0.00000000000E+00 0.  1.
</event>
<event>
 8    1  0.2882335E-009  0.9118800E+02  0.7816164E-02  0.1184000E+00
        -11   -1    0    0    0    0  0.00000000000E+00  0.00000000000E+00  0.45593999997E+02  0.45594000000E+02  0.51100000000E-03 0.  1.
         11   -1    0    0    0    0 -0.00000000000E+00 -0.00000000000E+00 -0.45593999997E+02  0.45594000000E+02  0.51100000000E-03 0. -1.
         23    2    1    2    0    0  0.00000000000E+00  0.00000000000E+00 -0.35527136788E-14  0.91188000000E+02  0.91188000000E+02 0.  0.
    9900012    2    3    3    0    0 -0.13214973133E+02 -0.32411243216E+02  0.28354704483E+02  0.46142317987E+02  0.10000002059E+02 0.  0.
        -12    1    3    3    0    0  0.13214973133E+02  0.32411243216E+02 -0.28354704483E+02  0.45045682013E+02  0.00000000000E+00 0.  1.
         11    1    4    4    0    0 -0.11976295502E+02 -0.19592963975E+02  0.17467429972E+02  0.28851811058E+02  0.51100000000E-03 0. -1.
        -11    1    4    4    0    0  0.11425906633E+01 -0.36420776954E+01  0.42809261112E+01  0.57355533294E+01  0.51100000000E-03 0.  1.
         12    1    4    4    0    0 -0.23812682945E+01 -0.91762015457E+01  0.66063483998E+01  0.11554953599E+02  0.00000000000E+00 0. -1.
</event>
<event>
 8    1  0.2882335E-009  0.9118800E+02  0.7816164E-02  0.1184000E+00
        -11   -1    0    0    0    0  0.00000000000E+00  0.00000000000E+00  0.45593999997E+02  0.45594000000E+02  0.51100000000E-03 0. -1.
         11   -1    0    0    0    0 -0.00000000000E+00 -0.00000000000E+00 -0.45593999997E+02  0.45594000000E+02  0.51100000000E-03 0.  1.
         23    2    1    2    0    0  0.88817841970E-15  0.00000000000E+00 -0.35527136788E-14  0.91188000000E+02  0.91188000000E+02 0.  0.
    9900012    2    3    3    0    0 -0.71929547757E+01 -0.34580234731E+02  0.27956793087E+02  0.46142317497E+02  0.99999975953E+01 0.  0.
        -12    1    3    3    0    0  0.71929547757E+01  0.34580234731E+02 -0.27956793087E+02  0.45045682503E+02  0.00000000000E+00 0.  1.
         11    1    4    4    0    0 -0.60057491669E+01 -0.21002555946E+02  0.17294662671E+02  0.27861832971E+02  0.51100000000E-03 0. -1.
        -11    1    4    4    0    0  0.19854089000E+01 -0.19004212880E+01  0.20055952333E+01  0.34023318582E+01  0.51100000000E-03 0.  1.
        -12    1    4    4    0    0 -0.31726145088E+01 -0.11677257497E+02  0.86565351824E+01  0.14878152669E+02  0.00000000000E+00 0.  1.
</event>
<event>
 8    1  0.2882335E-009  0.9118800E+02  0.7816164E-02  0.1184000E+00
        -11   -1    0    0    0    0  0.00000000000E+00  0.00000000000E+00  0.45593999997E+02  0.45594000000E+02  0.51100000000E-03 0. -1.
         11   -1    0    0    0    0 -0.00000000000E+00 -0.00000000000E+00 -0.45593999997E+02  0.45594000000E+02  0.51100000000E-03 0.  1.
         23    2    1    2    0    0  0.00000000000E+00  0.35527136788E-14  0.35527136788E-14  0.91188000000E+02  0.91188000000E+02 0.  0.
    9900012    2    3    3    0    0 -0.94399143677E+01  0.31033985660E+02  0.31255289700E+02  0.46142318925E+02  0.10000010618E+02 0.  0.
        -12    1    3    3    0    0  0.94399143677E+01 -0.31033985660E+02 -0.31255289700E+02  0.45045681075E+02  0.00000000000E+00 0.  1.
         11    1    4    4    0    0 -0.50793761221E+01  0.14995838218E+02  0.21022821392E+02  0.26317945308E+02  0.51100000000E-03 0. -1.
        -11    1    4    4    0    0 -0.37126914734E+01  0.88646289551E+01  0.72035842520E+01  0.12010718164E+02  0.51100000000E-03 0.  1.
         12    1    4    4    0    0 -0.64784677220E+00  0.71735184869E+01  0.30288840556E+01  0.78136554534E+01  0.00000000000E+00 0. -1.
</event>
<event>
 8    1  0.2882335E-009  0.9118800E+02  0.7816164E-02  0.1184000E+00
        -11   -1    0    0    0    0  0.00000000000E+00  0.00000000000E+00  0.45593999997E+02  0.45594000000E+02  0.51100000000E-03 0. -1.
         11   -1    0    0    0    0 -0.00000000000E+00 -0.00000000000E+00 -0.45593999997E+02  0.45594000000E+02  0.51100000000E-03 0.  1.
         23    2    1    2    0    0  0.35527136788E-14  0.00000000000E+00  0.00000000000E+00  0.91188000000E+02  0.91188000000E+02 0.  0.
    9900012    2    3    3    0    0  0.24587200270E+02  0.27734685901E+01 -0.37641611879E+02  0.46142317743E+02  0.99999998361E+01 0.  0.
         12    1    3    3    0    0 -0.24587200270E+02 -0.27734685901E+01  0.37641611879E+02  0.45045682257E+02  0.00000000000E+00 0. -1.
         11    1    4    4    0    0  0.38920928377E+01  0.30753662969E+01 -0.80647362134E+01  0.94681695682E+01  0.51100000000E-03 0. -1.
        -11    1    4    4    0    0  0.10778983752E+02 -0.18740150669E+01 -0.10753924357E+02  0.15340968436E+02  0.51100000000E-03 0.  1.
         12    1    4    4    0    0  0.99161236800E+01  0.15721173600E+01 -0.18822951308E+02  0.21333179739E+02  0.00000000000E+00 0. -1.
</event>
<event>
 8    1  0.2882335E-009  0.9118800E+02  0.7816164E-02  0.1184000E+00
        -11   -1    0    0    0    0  0.00000000000E+00  0.00000000000E+00  0.45593999997E+02  0.45594000000E+02  0.51100000000E-03 0. -1.
         11   -1    0    0    0    0 -0.00000000000E+00 -0.00000000000E+00 -0.45593999997E+02  0.45594000000E+02  0.51100000000E-03 0.  1.
         23    2    1    2    0    0  0.22204460493E-15 -0.17763568394E-14  0.00000000000E+00  0.91188000000E+02  0.91188000000E+02 0.  0.
    9900012    2    3    3    0    0  0.12011078636E+01  0.13541112279E+02 -0.42945420547E+02  0.46142317323E+02  0.99999960061E+01 0.  0.
         12    1    3    3    0    0 -0.12011078636E+01 -0.13541112279E+02  0.42945420547E+02  0.45045682677E+02  0.00000000000E+00 0. -1.
         11    1    4    4    0    0  0.35415833854E+01  0.21645932668E+01 -0.14416798002E+02  0.15002411198E+02  0.51100000000E-03 0. -1.
        -11    1    4    4    0    0 -0.29337277366E+01  0.58702845528E+01 -0.19207702625E+02  0.20297853078E+02  0.51100000000E-03 0.  1.
        -12    1    4    4    0    0  0.59325221472E+00  0.55062344595E+01 -0.93209199204E+01  0.10842053047E+02  0.00000000000E+00 0.  1.
</event>
<event>
 8    1  0.2882335E-009  0.9118800E+02  0.7816164E-02  0.1184000E+00
        -11   -1    0    0    0    0  0.00000000000E+00  0.00000000000E+00  0.45593999997E+02  0.45594000000E+02  0.51100000000E-03 0. -1.
         11   -1    0    0    0    0 -0.00000000000E+00 -0.00000000000E+00 -0.45593999997E+02  0.45594000000E+02  0.51100000000E-03 0.  1.
         23    2    1    2    0    0  0.00000000000E+00  0.00000000000E+00  0.35527136788E-14  0.91188000000E+02  0.91188000000E+02 0.  0.
    9900012    2    3    3    0    0  0.40449202447E+02  0.80122460097E+01 -0.18132275702E+02  0.46142317778E+02  0.10000000151E+02 0.  0.
         12    1    3    3    0    0 -0.40449202447E+02 -0.80122460097E+01  0.18132275702E+02  0.45045682222E+02  0.00000000000E+00 0. -1.
         11    1    4    4    0    0  0.92531388279E+01 -0.15910917367E+01 -0.27715331725E+01  0.97894610408E+01  0.51100000000E-03 0. -1.
        -11    1    4    4    0    0  0.27661210739E+02  0.77654867668E+01 -0.11981979221E+02  0.31128976703E+02  0.51100000000E-03 0.  1.
        -12    1    4    4    0    0  0.35348528801E+01  0.18378509796E+01 -0.33787633089E+01  0.52238800335E+01  0.00000000000E+00 0.  1.
</event>
<event>
 8    1  0.2882335E-009  0.9118800E+02  0.7816164E-02  0.1184000E+00
        -11   -1    0    0    0    0  0.00000000000E+00  0.00000000000E+00  0.45593999997E+02  0.45594000000E+02  0.51100000000E-03 0.  1.
         11   -1    0    0    0    0 -0.00000000000E+00 -0.00000000000E+00 -0.45593999997E+02  0.45594000000E+02  0.51100000000E-03 0. -1.
         23    2    1    2    0    0 -0.35527136788E-14  0.00000000000E+00 -0.35527136788E-14  0.91188000000E+02  0.91188000000E+02 0.  0.
    9900012    2    3    3    0    0  0.30799835607E+02 -0.22363506407E+02  0.24090604126E+02  0.46142317639E+02  0.99999988865E+01 0.  0.
        -12    1    3    3    0    0 -0.30799835607E+02  0.22363506407E+02 -0.24090604126E+02  0.45045682361E+02  0.00000000000E+00 0.  1.
         11    1    4    4    0    0  0.73600454846E+01 -0.68616561800E+01  0.75698191423E+01  0.12591852809E+02  0.51100000000E-03 0. -1.
        -11    1    4    4    0    0  0.17046617644E+02 -0.97223029618E+01  0.15219746206E+02  0.24834472469E+02  0.51100000000E-03 0.  1.
        -12    1    4    4    0    0  0.63931724781E+01 -0.57795472655E+01  0.13010387777E+01  0.87159923606E+01  0.00000000000E+00 0.  1.
</event>
<event>
 8    1  0.2882335E-009  0.9118800E+02  0.7816164E-02  0.1184000E+00
        -11   -1    0    0    0    0  0.00000000000E+00  0.00000000000E+00  0.45593999997E+02  0.45594000000E+02  0.51100000000E-03 0. -1.
         11   -1    0    0    0    0 -0.00000000000E+00 -0.00000000000E+00 -0.45593999997E+02  0.45594000000E+02  0.51100000000E-03 0.  1.
         23    2    1    2    0    0  0.00000000000E+00  0.88817841970E-15  0.71054273576E-14  0.91188000000E+02  0.91188000000E+02 0.  0.
    9900012    2    3    3    0    0  0.20829244745E+02  0.65821394694E+01  0.39394560066E+02  0.46142319192E+02  0.10000013049E+02 0.  0.
        -12    1    3    3    0    0 -0.20829244745E+02 -0.65821394694E+01 -0.39394560066E+02  0.45045680808E+02  0.00000000000E+00 0.  1.
         11    1    4    4    0    0  0.13378842075E+02  0.66842391521E+01  0.26245261413E+02  0.30207386766E+02  0.51100000000E-03 0. -1.
        -11    1    4    4    0    0 -0.64216200354E-01 -0.19917881749E-01  0.44029345292E+01  0.44034478732E+01  0.51100000000E-03 0.  1.
        -12    1    4    4    0    0  0.75146188705E+01 -0.82181800911E-01  0.87463641236E+01  0.11531484553E+02  0.00000000000E+00 0.  1.
</event>
<event>
 8    1  0.2882335E-009  0.9118800E+02  0.7816164E-02  0.1184000E+00
        -11   -1    0    0    0    0  0.00000000000E+00  0.00000000000E+00  0.45593999997E+02  0.45594000000E+02  0.51100000000E-03 0. -1.
         11   -1    0    0    0    0 -0.00000000000E+00 -0.00000000000E+00 -0.45593999997E+02  0.45594000000E+02  0.51100000000E-03 0.  1.
         23    2    1    2    0    0  0.17763568394E-14 -0.22204460493E-15  0.71054273576E-14  0.91188000000E+02  0.91188000000E+02 0.  0.
    9900012    2    3    3    0    0 -0.13160081793E+02  0.14365203371E+01 -0.43056500383E+02  0.46142316869E+02  0.99999918682E+01 0.  0.
         12    1    3    3    0    0  0.13160081793E+02 -0.14365203371E+01  0.43056500383E+02  0.45045683131E+02  0.00000000000E+00 0. -1.
         11    1    4    4    0    0 -0.65571812675E+01  0.13853287155E+00 -0.12480756050E+02  0.14099116616E+02  0.51100000000E-03 0. -1.
        -11    1    4    4    0    0 -0.79948355198E+01  0.65339155160E+00 -0.26541849507E+02  0.27727497020E+02  0.51100000000E-03 0.  1.
         12    1    4    4    0    0  0.13919349943E+01  0.64459591391E+00 -0.40338948266E+01  0.43157032327E+01  0.00000000000E+00 0. -1.
</event>
<event>
 8    1  0.2882335E-009  0.9118800E+02  0.7816164E-02  0.1184000E+00
        -11   -1    0    0    0    0  0.00000000000E+00  0.00000000000E+00  0.45593999997E+02  0.45594000000E+02  0.51100000000E-03 0. -1.
         11   -1    0    0    0    0 -0.00000000000E+00 -0.00000000000E+00 -0.45593999997E+02  0.45594000000E+02  0.51100000000E-03 0.  1.
         23    2    1    2    0    0  0.00000000000E+00  0.00000000000E+00  0.71054273576E-14  0.91188000000E+02  0.91188000000E+02 0.  0.
    9900012    2    3    3    0    0  0.10619490394E+02  0.63049598462E+01  0.43319596127E+02  0.46142317593E+02  0.99999984671E+01 0.  0.
        -12    1    3    3    0    0 -0.10619490394E+02 -0.63049598462E+01 -0.43319596127E+02  0.45045682407E+02  0.00000000000E+00 0.  1.
         11    1    4    4    0    0  0.83713759561E+01  0.37212766787E+01  0.25188719785E+02  0.26802974465E+02  0.51100000000E-03 0. -1.
        -11    1    4    4    0    0  0.70376241197E+00  0.65099580649E+00 -0.79234291320E-01  0.96195395244E+00  0.51100000000E-03 0.  1.
        -12    1    4    4    0    0  0.15443520259E+01  0.19326873610E+01  0.18210110634E+02  0.18377389175E+02  0.00000000000E+00 0.  1.
</event>
<event>
 8    1  0.2882335E-009  0.9118800E+02  0.7816164E-02  0.1184000E+00
        -11   -1    0    0    0    0  0.00000000000E+00  0.00000000000E+00  0.45593999997E+02  0.45594000000E+02  0.51100000000E-03 0. -1.
         11   -1    0    0    0    0 -0.00000000000E+00 -0.00000000000E+00 -0.45593999997E+02  0.45594000000E+02  0.51100000000E-03 0.  1.
         23    2    1    2    0    0  0.71054273576E-14 -0.22204460493E-15  0.00000000000E+00  0.91188000000E+02  0.91188000000E+02 0.  0.
    9900012    2    3    3    0    0 -0.36850502019E+02  0.46836889127E+00 -0.25902404206E+02  0.46142318607E+02  0.10000007717E+02 0.  0.
         12    1    3    3    0    0  0.36850502019E+02 -0.46836889127E+00  0.25902404206E+02  0.45045681393E+02  0.00000000000E+00 0. -1.
         11    1    4    4    0    0 -0.10230856774E+02  0.32732014551E+01 -0.11080859493E+02  0.15432748474E+02  0.51100000000E-03 0. -1.
        -11    1    4    4    0    0 -0.24674033319E+02 -0.18948874710E+01 -0.13548743670E+02  0.28212886666E+02  0.51100000000E-03 0.  1.
         12    1    4    4    0    0 -0.19456119254E+01 -0.90994509287E+00 -0.12728010434E+01  0.24966834666E+01  0.00000000000E+00 0. -1.
</event>
<event>
 8    1  0.2882335E-009  0.9118800E+02  0.7816164E-02  0.1184000E+00
        -11   -1    0    0    0    0  0.00000000000E+00  0.00000000000E+00  0.45593999997E+02  0.45594000000E+02  0.51100000000E-03 0. -1.
         11   -1    0    0    0    0 -0.00000000000E+00 -0.00000000000E+00 -0.45593999997E+02  0.45594000000E+02  0.51100000000E-03 0.  1.
         23    2    1    2    0    0  0.17763568394E-14  0.22204460493E-15  0.00000000000E+00  0.91188000000E+02  0.91188000000E+02 0.  0.
    9900012    2    3    3    0    0 -0.99827120124E+01  0.13540705059E+01  0.43904731741E+02  0.46142317462E+02  0.99999972748E+01 0.  0.
        -12    1    3    3    0    0  0.99827120124E+01 -0.13540705059E+01 -0.43904731741E+02  0.45045682538E+02  0.00000000000E+00 0.  1.
         11    1    4    4    0    0 -0.53239895116E+01 -0.46999319661E+00  0.25712867340E+02  0.26262469515E+02  0.51100000000E-03 0. -1.
        -11    1    4    4    0    0 -0.41993209585E+01  0.24600120174E+01  0.62940381565E+01  0.79561845262E+01  0.51100000000E-03 0.  1.
        -12    1    4    4    0    0 -0.45940154225E+00 -0.63594831495E+00  0.11897826245E+02  0.11923663421E+02  0.00000000000E+00 0.  1.
</event>
<event>
 8    1  0.2882335E-009  0.9118800E+02  0.7816164E-02  0.1184000E+00
        -11   -1    0    0    0    0  0.00000000000E+00  0.00000000000E+00  0.45593999997E+02  0.45594000000E+02  0.51100000000E-03 0. -1.
         11   -1    0    0    0    0 -0.00000000000E+00 -0.00000000000E+00 -0.45593999997E+02  0.45594000000E+02  0.51100000000E-03 0.  1.
         23    2    1    2    0    0  0.00000000000E+00  0.00000000000E+00  0.00000000000E+00  0.91188000000E+02  0.91188000000E+02 0.  0.
    9900012    2    3    3    0    0  0.22970046330E+02  0.25077544492E+02  0.29539925869E+02  0.46142317782E+02  0.10000000195E+02 0.  0.
        -12    1    3    3    0    0 -0.22970046330E+02 -0.25077544492E+02 -0.29539925869E+02  0.45045682218E+02  0.00000000000E+00 0.  1.
         11    1    4    4    0    0  0.11973536628E+02  0.10211239356E+02  0.13530016700E+02  0.20753224827E+02  0.51100000000E-03 0. -1.
        -11    1    4    4    0    0  0.38572081511E+00 -0.31206458106E+00 -0.40615029506E+00  0.64118887487E+00  0.51100000000E-03 0.  1.
        -12    1    4    4    0    0  0.10610788886E+02  0.15178369717E+02  0.16416059464E+02  0.24747904080E+02  0.00000000000E+00 0.  1.
</event>
<event>
 8    1  0.2882335E-009  0.9118800E+02  0.7816164E-02  0.1184000E+00
        -11   -1    0    0    0    0  0.00000000000E+00  0.00000000000E+00  0.45593999997E+02  0.45594000000E+02  0.51100000000E-03 0. -1.
         11   -1    0    0    0    0 -0.00000000000E+00 -0.00000000000E+00 -0.45593999997E+02  0.45594000000E+02  0.51100000000E-03 0.  1.
         23    2    1    2    0    0  0.00000000000E+00  0.00000000000E+00  0.17763568394E-14  0.91188000000E+02  0.91188000000E+02 0.  0.
    9900012    2    3    3    0    0 -0.15233058567E+02 -0.39355236478E+02 -0.15755402039E+02  0.46142318687E+02  0.10000008440E+02 0.  0.
         12    1    3    3    0    0  0.15233058567E+02  0.39355236478E+02  0.15755402039E+02  0.45045681313E+02  0.00000000000E+00 0. -1.
         11    1    4    4    0    0 -0.58648281810E+01 -0.15756673426E+02 -0.32322123722E+01  0.17120635623E+02  0.51100000000E-03 0. -1.
        -11    1    4    4    0    0 -0.16887584889E+01 -0.10550730485E+02 -0.75594209254E+01  0.13088722779E+02  0.51100000000E-03 0.  1.
         12    1    4    4    0    0 -0.76794718969E+01 -0.13047832567E+02 -0.49637687418E+01  0.15932960285E+02  0.00000000000E+00 0. -1.
</event>
<event>
 8    1  0.2882335E-009  0.9118800E+02  0.7816164E-02  0.1184000E+00
        -11   -1    0    0    0    0  0.00000000000E+00  0.00000000000E+00  0.45593999997E+02  0.45594000000E+02  0.51100000000E-03 0. -1.
         11   -1    0    0    0    0 -0.00000000000E+00 -0.00000000000E+00 -0.45593999997E+02  0.45594000000E+02  0.51100000000E-03 0.  1.
         23    2    1    2    0    0  0.00000000000E+00  0.00000000000E+00  0.00000000000E+00  0.91188000000E+02  0.91188000000E+02 0.  0.
    9900012    2    3    3    0    0  0.31071097431E+02  0.13690661425E+02  0.29601785129E+02  0.46142323308E+02  0.10000050579E+02 0.  0.
        -12    1    3    3    0    0 -0.31071097431E+02 -0.13690661425E+02 -0.29601785129E+02  0.45045676692E+02  0.00000000000E+00 0.  1.
         11    1    4    4    0    0  0.84532172606E+01  0.33767179510E+01  0.80269857760E+01  0.12136375369E+02  0.51100000000E-03 0. -1.
        -11    1    4    4    0    0  0.59800827744E+01 -0.99304313533E+00  0.37459128910E+01  0.71259657805E+01  0.51100000000E-03 0.  1.
        -12    1    4    4    0    0  0.16637797396E+02  0.11306986609E+02  0.17828886462E+02  0.26879982159E+02  0.00000000000E+00 0.  1.
</event>
<event>
 8    1  0.2882335E-009  0.9118800E+02  0.7816164E-02  0.1184000E+00
        -11   -1    0    0    0    0  0.00000000000E+00  0.00000000000E+00  0.45593999997E+02  0.45594000000E+02  0.51100000000E-03 0. -1.
         11   -1    0    0    0    0 -0.00000000000E+00 -0.00000000000E+00 -0.45593999997E+02  0.45594000000E+02  0.51100000000E-03 0.  1.
         23    2    1    2    0    0  0.00000000000E+00  0.00000000000E+00  0.17763568394E-14  0.91188000000E+02  0.91188000000E+02 0.  0.
    9900012    2    3    3    0    0  0.50316675880E+01  0.44123844764E+02 -0.75420251067E+01  0.46142317652E+02  0.99999990089E+01 0.  0.
        -12    1    3    3    0    0 -0.50316675880E+01 -0.44123844764E+02  0.75420251067E+01  0.45045682348E+02  0.00000000000E+00 0.  1.
         11    1    4    4    0    0  0.44992893865E+01  0.38232580388E+02 -0.50318578920E+01  0.38823876702E+02  0.51100000000E-03 0. -1.
        -11    1    4    4    0    0 -0.14097145094E+01  0.15452652075E+01 -0.10428115515E+01  0.23372196629E+01  0.51100000000E-03 0.  1.
        -12    1    4    4    0    0  0.19420927109E+01  0.43459991684E+01 -0.14673556632E+01  0.49812212871E+01  0.00000000000E+00 0.  1.
</event>
<event>
 8    1  0.2882335E-009  0.9118800E+02  0.7816164E-02  0.1184000E+00
        -11   -1    0    0    0    0  0.00000000000E+00  0.00000000000E+00  0.45593999997E+02  0.45594000000E+02  0.51100000000E-03 0. -1.
         11   -1    0    0    0    0 -0.00000000000E+00 -0.00000000000E+00 -0.45593999997E+02  0.45594000000E+02  0.51100000000E-03 0.  1.
         23    2    1    2    0    0  0.00000000000E+00  0.00000000000E+00  0.71054273576E-14  0.91188000000E+02  0.91188000000E+02 0.  0.
    9900012    2    3    3    0    0 -0.18381522523E+02  0.23621441021E+01  0.41056708329E+02  0.46142318810E+02  0.10000009566E+02 0.  0.
        -12    1    3    3    0    0  0.18381522523E+02 -0.23621441021E+01 -0.41056708329E+02  0.45045681190E+02  0.00000000000E+00 0.  1.
         11    1    4    4    0    0 -0.73550593474E+01  0.22032098107E+01  0.16836721200E+02  0.18504761887E+02  0.51100000000E-03 0. -1.
        -11    1    4    4    0    0 -0.37022585628E+01 -0.30712335904E+01  0.12945570137E+02  0.13810393936E+02  0.51100000000E-03 0.  1.
        -12    1    4    4    0    0 -0.73242046133E+01  0.32301678819E+01  0.11274416992E+02  0.13827162987E+02  0.00000000000E+00 0.  1.
</event>
<event>
 8    1  0.2882335E-009  0.9118800E+02  0.7816164E-02  0.1184000E+00
        -11   -1    0    0    0    0  0.00000000000E+00  0.00000000000E+00  0.45593999997E+02  0.45594000000E+02  0.51100000000E-03 0. -1.
         11   -1    0    0    0    0 -0.00000000000E+00 -0.00000000000E+00 -0.45593999997E+02  0.45594000000E+02  0.51100000000E-03 0.  1.
         23    2    1    2    0    0  0.00000000000E+00 -0.35527136788E-14  0.00000000000E+00  0.91188000000E+02  0.91188000000E+02 0.  0.
    9900012    2    3    3    0    0  0.29113258820E+02  0.20603110622E+02 -0.27514422659E+02  0.46142318069E+02  0.10000002804E+02 0.  0.
         12    1    3    3    0    0 -0.29113258820E+02 -0.20603110622E+02  0.27514422659E+02  0.45045681931E+02  0.00000000000E+00 0. -1.
         11    1    4    4    0    0  0.75445581443E+00  0.14203078887E+01  0.72228529514E+00  0.17630015267E+01  0.51100000000E-03 0. -1.
        -11    1    4    4    0    0  0.34413033720E+01  0.23320947417E+01 -0.33855722078E+01  0.53612810239E+01  0.51100000000E-03 0.  1.
         12    1    4    4    0    0  0.24917499633E+02  0.16850707992E+02 -0.24851135746E+02  0.39018035518E+02  0.00000000000E+00 0. -1.
</event>
<event>
 8    1  0.3278500E-009  0.9118800E+02  0.7816164E-02  0.1184000E+00
        -11   -1    0    0    0    0  0.00000000000E+00  0.00000000000E+00  0.45593999997E+02  0.45594000000E+02  0.51100000000E-03 0. -1.
         11   -1    0    0    0    0 -0.00000000000E+00 -0.00000000000E+00 -0.45593999997E+02  0.45594000000E+02  0.51100000000E-03 0.  1.
         23    2    1    2    0    0  0.00000000000E+00  0.00000000000E+00  0.00000000000E+00  0.91188000000E+02  0.91188000000E+02 0.  0.
    9900012    2    3    3    0    0  0.27738298399E+02  0.25355665026E+02 -0.24835268139E+02  0.46142317737E+02  0.99999997835E+01 0.  0.
         12    1    3    3    0    0 -0.27738298399E+02 -0.25355665026E+02  0.24835268139E+02  0.45045682263E+02  0.00000000000E+00 0. -1.
         11    1    4    4    0    0 -0.20872247741E+00  0.81546820128E+00 -0.12847086604E+00  0.85150366084E+00  0.51100000000E-03 0. -1.
        -11    1    4    4    0    0  0.26458974464E+02  0.20489243857E+02 -0.20392382502E+02  0.39188463964E+02  0.51100000000E-03 0.  1.
        -12    1    4    4    0    0  0.14880464116E+01  0.40509529677E+01 -0.43144147715E+01  0.61023501120E+01  0.00000000000E+00 0.  1.
</event>
<event>
 8    1  0.2882335E-009  0.9118800E+02  0.7816164E-02  0.1184000E+00
        -11   -1    0    0    0    0  0.00000000000E+00  0.00000000000E+00  0.45593999997E+02  0.45594000000E+02  0.51100000000E-03 0.  1.
         11   -1    0    0    0    0 -0.00000000000E+00 -0.00000000000E+00 -0.45593999997E+02  0.45594000000E+02  0.51100000000E-03 0. -1.
         23    2    1    2    0    0  0.00000000000E+00  0.00000000000E+00 -0.88817841970E-15  0.91188000000E+02  0.91188000000E+02 0.  0.
    9900012    2    3    3    0    0 -0.33189444789E+02  0.30232526474E+02 -0.36835540537E+01  0.46142317934E+02  0.10000001575E+02 0.  0.
        -12    1    3    3    0    0  0.33189444789E+02 -0.30232526474E+02  0.36835540537E+01  0.45045682066E+02  0.00000000000E+00 0.  1.
         11    1    4    4    0    0 -0.23647062151E+02  0.24447318787E+02 -0.55815131296E+01  0.34467495315E+02  0.51100000000E-03 0. -1.
        -11    1    4    4    0    0 -0.78153560248E+01  0.37099559464E+01  0.58052906578E+00  0.86706733980E+01  0.51100000000E-03 0.  1.
         12    1    4    4    0    0 -0.17270266132E+01  0.20752517405E+01  0.13174300101E+01  0.30041492208E+01  0.00000000000E+00 0. -1.
</event>
<event>
 8    1  0.2882335E-009  0.9118800E+02  0.7816164E-02  0.1184000E+00
        -11   -1    0    0    0    0  0.00000000000E+00  0.00000000000E+00  0.45593999997E+02  0.45594000000E+02  0.51100000000E-03 0.  1.
         11   -1    0    0    0    0 -0.00000000000E+00 -0.00000000000E+00 -0.45593999997E+02  0.45594000000E+02  0.51100000000E-03 0. -1.
         23    2    1    2    0    0  0.00000000000E+00  0.71054273576E-14 -0.44408920985E-15  0.91188000000E+02  0.91188000000E+02 0.  0.
    9900012    2    3    3    0    0  0.40694738604E+01  0.44808582635E+02  0.21780398404E+01  0.46142317046E+02  0.99999934778E+01 0.  0.
         12    1    3    3    0    0 -0.40694738604E+01 -0.44808582635E+02 -0.21780398404E+01  0.45045682954E+02  0.00000000000E+00 0. -1.
         11    1    4    4    0    0  0.35770109979E+01  0.18718052612E+02 -0.22597473316E+01  0.19190282945E+02  0.51100000000E-03 0. -1.
        -11    1    4    4    0    0  0.13913334131E+01  0.25297818045E+02  0.45747460479E+01  0.25745751264E+02  0.51100000000E-03 0.  1.
         12    1    4    4    0    0 -0.89887055062E+00  0.79271197831E+00 -0.13695887594E+00  0.12062828363E+01  0.00000000000E+00 0. -1.
</event>
<event>
 8    1  0.2882335E-009  0.9118800E+02  0.7816164E-02  0.1184000E+00
        -11   -1    0    0    0    0  0.00000000000E+00  0.00000000000E+00  0.45593999997E+02  0.45594000000E+02  0.51100000000E-03 0. -1.
         11   -1    0    0    0    0 -0.00000000000E+00 -0.00000000000E+00 -0.45593999997E+02  0.45594000000E+02  0.51100000000E-03 0.  1.
         23    2    1    2    0    0 -0.35527136788E-14  0.88817841970E-15  0.00000000000E+00  0.91188000000E+02  0.91188000000E+02 0.  0.
    9900012    2    3    3    0    0 -0.30361635904E+02 -0.72326047991E+01 -0.32480363748E+02  0.46142317231E+02  0.99999951634E+01 0.  0.
         12    1    3    3    0    0  0.30361635904E+02  0.72326047991E+01  0.32480363748E+02  0.45045682769E+02  0.00000000000E+00 0. -1.
         11    1    4    4    0    0 -0.87685101700E+01 -0.65484391301E+01 -0.11576916711E+02  0.15930907897E+02  0.51100000000E-03 0. -1.
        -11    1    4    4    0    0 -0.13525795454E+02 -0.17080236988E+01 -0.14041256375E+02  0.19570931722E+02  0.51100000000E-03 0.  1.
         12    1    4    4    0    0 -0.80673302807E+01  0.10238580299E+01 -0.68621906622E+01  0.10640477612E+02  0.00000000000E+00 0. -1.
</event>
<event>
 8    1  0.2882335E-009  0.9118800E+02  0.7816164E-02  0.1184000E+00
        -11   -1    0    0    0    0  0.00000000000E+00  0.00000000000E+00  0.45593999997E+02  0.45594000000E+02  0.51100000000E-03 0. -1.
         11   -1    0    0    0    0 -0.00000000000E+00 -0.00000000000E+00 -0.45593999997E+02  0.45594000000E+02  0.51100000000E-03 0.  1.
         23    2    1    2    0    0 -0.88817841970E-15 -0.71054273576E-14 -0.35527136788E-14  0.91188000000E+02  0.91188000000E+02 0.  0.
    9900012    2    3    3    0    0 -0.64907084262E+01 -0.38367251987E+02 -0.22692248650E+02  0.46142317968E+02  0.10000001886E+02 0.  0.
         12    1    3    3    0    0  0.64907084262E+01  0.38367251987E+02  0.22692248650E+02  0.45045682032E+02  0.00000000000E+00 0. -1.
         11    1    4    4    0    0  0.19102315741E+01 -0.86001323638E+01 -0.67697876708E+01  0.11110413436E+02  0.51100000000E-03 0. -1.
        -11    1    4    4    0    0 -0.55069455671E+01 -0.14961083650E+02 -0.63230215590E+01  0.17150541547E+02  0.51100000000E-03 0.  1.
         12    1    4    4    0    0 -0.28939944332E+01 -0.14806035974E+02 -0.95994394204E+01  0.17881362986E+02  0.00000000000E+00 0. -1.
</event>
<event>
 8    1  0.2882335E-009  0.9118800E+02  0.7816164E-02  0.1184000E+00
        -11   -1    0    0    0    0  0.00000000000E+00  0.00000000000E+00  0.45593999997E+02  0.45594000000E+02  0.51100000000E-03 0. -1.
         11   -1    0    0    0    0 -0.00000000000E+00 -0.00000000000E+00 -0.45593999997E+02  0.45594000000E+02  0.51100000000E-03 0.  1.
         23    2    1    2    0    0  0.00000000000E+00  0.00000000000E+00  0.00000000000E+00  0.91188000000E+02  0.91188000000E+02 0.  0.
    9900012    2    3    3    0    0 -0.76617919562E+01 -0.28975933481E+02 -0.33627455520E+02  0.46142317168E+02  0.99999945900E+01 0.  0.
         12    1    3    3    0    0  0.76617919562E+01  0.28975933481E+02  0.33627455520E+02  0.45045682832E+02  0.00000000000E+00 0. -1.
         11    1    4    4    0    0 -0.17786344013E+01 -0.11361007947E+01 -0.50317199845E+01  0.54564156378E+01  0.51100000000E-03 0. -1.
        -11    1    4    4    0    0 -0.25488546186E+01 -0.98981326329E+01 -0.68817799914E+01  0.12321874273E+02  0.51100000000E-03 0.  1.
         12    1    4    4    0    0 -0.33343029363E+01 -0.17941700054E+02 -0.21713955544E+02  0.28364027257E+02  0.00000000000E+00 0. -1.
</event>
<event>
 8    1  0.2882335E-009  0.9118800E+02  0.7816164E-02  0.1184000E+00
        -11   -1    0    0    0    0  0.00000000000E+00  0.00000000000E+00  0.45593999997E+02  0.45594000000E+02  0.51100000000E-03 0. -1.
         11   -1    0    0    0    0 -0.00000000000E+00 -0.00000000000E+00 -0.45593999997E+02  0.45594000000E+02  0.51100000000E-03 0.  1.
         23    2    1    2    0    0  0.00000000000E+00 -0.71054273576E-14 -0.35527136788E-14  0.91188000000E+02  0.91188000000E+02 0.  0.
    9900012    2    3    3    0    0 -0.16408931885E+02  0.30933123691E+02  0.28337296026E+02  0.46142317266E+02  0.99999954871E+01 0.  0.
        -12    1    3    3    0    0  0.16408931885E+02 -0.30933123691E+02 -0.28337296026E+02  0.45045682734E+02  0.00000000000E+00 0.  1.
         11    1    4    4    0    0 -0.21645686904E+01  0.13145865979E+00  0.53390482258E+00  0.22333144909E+01  0.51100000000E-03 0. -1.
        -11    1    4    4    0    0 -0.94689017000E+01  0.19997118289E+02  0.17021973551E+02  0.27915809555E+02  0.51100000000E-03 0.  1.
         12    1    4    4    0    0 -0.47754614943E+01  0.10804546742E+02  0.10781417653E+02  0.15993193221E+02  0.00000000000E+00 0. -1.
</event>
<event>
 8    1  0.2882335E-009  0.9118800E+02  0.7816164E-02  0.1184000E+00
        -11   -1    0    0    0    0  0.00000000000E+00  0.00000000000E+00  0.45593999997E+02  0.45594000000E+02  0.51100000000E-03 0. -1.
         11   -1    0    0    0    0 -0.00000000000E+00 -0.00000000000E+00 -0.45593999997E+02  0.45594000000E+02  0.51100000000E-03 0.  1.
         23    2    1    2    0    0 -0.27755575616E-16  0.88817841970E-15  0.00000000000E+00  0.91188000000E+02  0.91188000000E+02 0.  0.
    9900012    2    3    3    0    0  0.23167633764E+00  0.75662649629E+01  0.44405083569E+02  0.46142317785E+02  0.10000000218E+02 0.  0.
        -12    1    3    3    0    0 -0.23167633764E+00 -0.75662649629E+01 -0.44405083569E+02  0.45045682215E+02  0.00000000000E+00 0.  1.
         11    1    4    4    0    0 -0.60914941917E+00  0.52084197164E+01  0.32230705379E+02  0.32654510690E+02  0.51100000000E-03 0. -1.
        -11    1    4    4    0    0 -0.10264080493E+01  0.29093185726E+01  0.38232596374E+01  0.49127347330E+01  0.51100000000E-03 0.  1.
        -12    1    4    4    0    0  0.18672338061E+01 -0.55147332620E+00  0.83511185533E+01  0.85750723617E+01  0.00000000000E+00 0.  1.
</event>
<event>
 8    1  0.2882335E-009  0.9118800E+02  0.7816164E-02  0.1184000E+00
        -11   -1    0    0    0    0  0.00000000000E+00  0.00000000000E+00  0.45593999997E+02  0.45594000000E+02  0.51100000000E-03 0. -1.
         11   -1    0    0    0    0 -0.00000000000E+00 -0.00000000000E+00 -0.45593999997E+02  0.45594000000E+02  0.51100000000E-03 0.  1.
         23    2    1    2    0    0  0.00000000000E+00  0.00000000000E+00 -0.35527136788E-14  0.91188000000E+02  0.91188000000E+02 0.  0.
    9900012    2    3    3    0    0 -0.20914655444E+02 -0.25832578123E+02 -0.30403434719E+02  0.46142314884E+02  0.99999737674E+01 0.  0.
         12    1    3    3    0    0  0.20914655444E+02  0.25832578123E+02  0.30403434719E+02  0.45045685116E+02  0.00000000000E+00 0. -1.
         11    1    4    4    0    0 -0.72071345896E+01 -0.30116177365E+01 -0.54044488481E+01  0.94984576640E+01  0.51100000000E-03 0. -1.
        -11    1    4    4    0    0 -0.90186647079E+01 -0.17572052786E+02 -0.18659828829E+02  0.27171723619E+02  0.51100000000E-03 0.  1.
        -12    1    4    4    0    0 -0.46888561462E+01 -0.52489076001E+01 -0.63391570423E+01  0.94721336013E+01  0.00000000000E+00 0.  1.
</event>
<event>
 8    1  0.2882335E-009  0.9118800E+02  0.7816164E-02  0.1184000E+00
        -11   -1    0    0    0    0  0.00000000000E+00  0.00000000000E+00  0.45593999997E+02  0.45594000000E+02  0.51100000000E-03 0. -1.
         11   -1    0    0    0    0 -0.00000000000E+00 -0.00000000000E+00 -0.45593999997E+02  0.45594000000E+02  0.51100000000E-03 0.  1.
         23    2    1    2    0    0  0.00000000000E+00  0.00000000000E+00 -0.35527136788E-14  0.91188000000E+02  0.91188000000E+02 0.  0.
    9900012    2    3    3    0    0  0.13566802814E+02  0.28958657357E+02  0.31724629126E+02  0.46142311331E+02  0.99999413608E+01 0.  0.
        -12    1    3    3    0    0 -0.13566802814E+02 -0.28958657357E+02 -0.31724629126E+02  0.45045688669E+02  0.00000000000E+00 0.  1.
         11    1    4    4    0    0  0.70786529062E+00  0.41136077725E+01  0.33663127664E+01  0.53623599355E+01  0.51100000000E-03 0. -1.
        -11    1    4    4    0    0  0.70354882522E+01  0.10973887320E+02  0.19070195742E+02  0.23099711335E+02  0.51100000000E-03 0.  1.
        -12    1    4    4    0    0  0.58234492714E+01  0.13871162264E+02  0.92881206183E+01  0.17680240060E+02  0.00000000000E+00 0.  1.
</event>
<event>
 8    1  0.2882335E-009  0.9118800E+02  0.7816164E-02  0.1184000E+00
        -11   -1    0    0    0    0  0.00000000000E+00  0.00000000000E+00  0.45593999997E+02  0.45594000000E+02  0.51100000000E-03 0. -1.
         11   -1    0    0    0    0 -0.00000000000E+00 -0.00000000000E+00 -0.45593999997E+02  0.45594000000E+02  0.51100000000E-03 0.  1.
         23    2    1    2    0    0  0.00000000000E+00  0.00000000000E+00 -0.71054273576E-14  0.91188000000E+02  0.91188000000E+02 0.  0.
    9900012    2    3    3    0    0 -0.12632042100E+01 -0.27779965017E+02  0.35437151049E+02  0.46142314127E+02  0.99999668646E+01 0.  0.
        -12    1    3    3    0    0  0.12632042100E+01  0.27779965017E+02 -0.35437151049E+02  0.45045685873E+02  0.00000000000E+00 0.  1.
         11    1    4    4    0    0 -0.42322158682E+01 -0.12772067325E+02  0.13355431934E+02  0.18957977669E+02  0.51100000000E-03 0. -1.
        -11    1    4    4    0    0  0.38724548804E+01 -0.13245276123E+02  0.18353773659E+02  0.22962888628E+02  0.51100000000E-03 0.  1.
         12    1    4    4    0    0 -0.90344322208E+00 -0.17626215695E+01  0.37279454566E+01  0.42214478298E+01  0.00000000000E+00 0. -1.
</event>
<event>
 8    1  0.2882335E-009  0.9118800E+02  0.7816164E-02  0.1184000E+00
        -11   -1    0    0    0    0  0.00000000000E+00  0.00000000000E+00  0.45593999997E+02  0.45594000000E+02  0.51100000000E-03 0. -1.
         11   -1    0    0    0    0 -0.00000000000E+00 -0.00000000000E+00 -0.45593999997E+02  0.45594000000E+02  0.51100000000E-03 0.  1.
         23    2    1    2    0    0  0.00000000000E+00  0.00000000000E+00  0.00000000000E+00  0.91188000000E+02  0.91188000000E+02 0.  0.
    9900012    2    3    3    0    0  0.21540672811E+02 -0.32572918071E+02 -0.22452568707E+02  0.46142318538E+02  0.10000007083E+02 0.  0.
         12    1    3    3    0    0 -0.21540672811E+02  0.32572918071E+02  0.22452568707E+02  0.45045681462E+02  0.00000000000E+00 0. -1.
         11    1    4    4    0    0  0.13584317439E+01 -0.65914572654E+01 -0.28155853652E+01  0.72952153426E+01  0.51100000000E-03 0. -1.
        -11    1    4    4    0    0  0.21693632816E+01 -0.70952354661E+01 -0.43147188859E+01  0.85828493341E+01  0.51100000000E-03 0.  1.
         12    1    4    4    0    0  0.18012877786E+02 -0.18886225340E+02 -0.15322264456E+02  0.30264253861E+02  0.00000000000E+00 0. -1.
</event>
<event>
 8    1  0.2882335E-009  0.9118800E+02  0.7816164E-02  0.1184000E+00
        -11   -1    0    0    0    0  0.00000000000E+00  0.00000000000E+00  0.45593999997E+02  0.45594000000E+02  0.51100000000E-03 0. -1.
         11   -1    0    0    0    0 -0.00000000000E+00 -0.00000000000E+00 -0.45593999997E+02  0.45594000000E+02  0.51100000000E-03 0.  1.
         23    2    1    2    0    0  0.00000000000E+00  0.71054273576E-14  0.00000000000E+00  0.91188000000E+02  0.91188000000E+02 0.  0.
    9900012    2    3    3    0    0  0.22568463192E+02  0.34067435400E+02 -0.18952248112E+02  0.46142318807E+02  0.10000009541E+02 0.  0.
         12    1    3    3    0    0 -0.22568463192E+02 -0.34067435400E+02  0.18952248112E+02  0.45045681193E+02  0.00000000000E+00 0. -1.
         11    1    4    4    0    0  0.10273665375E+02  0.12259631291E+02 -0.11961701875E+02  0.19973208847E+02  0.51100000000E-03 0. -1.
        -11    1    4    4    0    0  0.29905913803E+01  0.45469881868E+01 -0.30086793264E+00  0.54506201618E+01  0.51100000000E-03 0.  1.
        -12    1    4    4    0    0  0.93042064369E+01  0.17260815922E+02 -0.66896783046E+01  0.20718489799E+02  0.00000000000E+00 0.  1.
</event>
<event>
 8    1  0.2882335E-009  0.9118800E+02  0.7816164E-02  0.1184000E+00
        -11   -1    0    0    0    0  0.00000000000E+00  0.00000000000E+00  0.45593999997E+02  0.45594000000E+02  0.51100000000E-03 0. -1.
         11   -1    0    0    0    0 -0.00000000000E+00 -0.00000000000E+00 -0.45593999997E+02  0.45594000000E+02  0.51100000000E-03 0.  1.
         23    2    1    2    0    0  0.00000000000E+00 -0.35527136788E-14  0.35527136788E-14  0.91188000000E+02  0.91188000000E+02 0.  0.
    9900012    2    3    3    0    0  0.26035702389E+02 -0.22866247495E+02 -0.28781772097E+02  0.46142317871E+02  0.10000001005E+02 0.  0.
         12    1    3    3    0    0 -0.26035702389E+02  0.22866247495E+02  0.28781772097E+02  0.45045682129E+02  0.00000000000E+00 0. -1.
         11    1    4    4    0    0  0.41008971835E+01 -0.20590754783E+01 -0.21450852056E+01  0.50654259777E+01  0.51100000000E-03 0. -1.
        -11    1    4    4    0    0  0.10271320987E+02 -0.99703100196E+01 -0.17888596611E+02  0.22910892730E+02  0.51100000000E-03 0.  1.
        -12    1    4    4    0    0  0.11663484219E+02 -0.10836861997E+02 -0.87480902804E+01  0.18165999164E+02  0.00000000000E+00 0.  1.
</event>
<event>
 8    1  0.2882335E-009  0.9118800E+02  0.7816164E-02  0.1184000E+00
        -11   -1    0    0    0    0  0.00000000000E+00  0.00000000000E+00  0.45593999997E+02  0.45594000000E+02  0.51100000000E-03 0. -1.
         11   -1    0    0    0    0 -0.00000000000E+00 -0.00000000000E+00 -0.45593999997E+02  0.45594000000E+02  0.51100000000E-03 0.  1.
         23    2    1    2    0    0 -0.35527136788E-14 -0.35527136788E-14  0.35527136788E-14  0.91188000000E+02  0.91188000000E+02 0.  0.
    9900012    2    3    3    0    0 -0.26024548454E+02 -0.18447620755E+02  0.31804426851E+02  0.46142318730E+02  0.10000008837E+02 0.  0.
        -12    1    3    3    0    0  0.26024548454E+02  0.18447620755E+02 -0.31804426851E+02  0.45045681270E+02  0.00000000000E+00 0.  1.
         11    1    4    4    0    0 -0.24350063955E+02 -0.15229068470E+02  0.25901437906E+02  0.38674728532E+02  0.51100000000E-03 0. -1.
        -11    1    4    4    0    0  0.28509468594E-01 -0.71572522524E+00  0.35821455592E+01  0.36530593284E+01  0.51100000000E-03 0.  1.
        -12    1    4    4    0    0 -0.17029939668E+01 -0.25028270599E+01  0.23208433850E+01  0.38145308703E+01  0.00000000000E+00 0.  1.
</event>
<event>
 8    1  0.2882335E-009  0.9118800E+02  0.7816164E-02  0.1184000E+00
        -11   -1    0    0    0    0  0.00000000000E+00  0.00000000000E+00  0.45593999997E+02  0.45594000000E+02  0.51100000000E-03 0.  1.
         11   -1    0    0    0    0 -0.00000000000E+00 -0.00000000000E+00 -0.45593999997E+02  0.45594000000E+02  0.51100000000E-03 0. -1.
         23    2    1    2    0    0  0.00000000000E+00  0.00000000000E+00  0.00000000000E+00  0.91188000000E+02  0.91188000000E+02 0.  0.
    9900012    2    3    3    0    0  0.32286403446E+02 -0.27107594334E+02  0.15870726994E+02  0.46142317705E+02  0.99999994891E+01 0.  0.
         12    1    3    3    0    0 -0.32286403446E+02  0.27107594334E+02 -0.15870726994E+02  0.45045682295E+02  0.00000000000E+00 0. -1.
         11    1    4    4    0    0  0.17977346111E+02 -0.88956741378E+01  0.75476705036E+01  0.21430943093E+02  0.51100000000E-03 0. -1.
        -11    1    4    4    0    0  0.72868372407E+01 -0.74864069053E+01  0.38174877252E+01  0.11122836784E+02  0.51100000000E-03 0.  1.
         12    1    4    4    0    0  0.70222200947E+01 -0.10725513291E+02  0.45055687656E+01  0.13588537829E+02  0.00000000000E+00 0. -1.
</event>
<event>
 8    1  0.2882335E-009  0.9118800E+02  0.7816164E-02  0.1184000E+00
        -11   -1    0    0    0    0  0.00000000000E+00  0.00000000000E+00  0.45593999997E+02  0.45594000000E+02  0.51100000000E-03 0. -1.
         11   -1    0    0    0    0 -0.00000000000E+00 -0.00000000000E+00 -0.45593999997E+02  0.45594000000E+02  0.51100000000E-03 0.  1.
         23    2    1    2    0    0 -0.14210854715E-13 -0.11102230246E-14 -0.35527136788E-14  0.91188000000E+02  0.91188000000E+02 0.  0.
    9900012    2    3    3    0    0  0.32957060721E+02  0.17537861374E+01  0.30657297723E+02  0.46142317400E+02  0.99999967084E+01 0.  0.
        -12    1    3    3    0    0 -0.32957060721E+02 -0.17537861374E+01 -0.30657297723E+02  0.45045682600E+02  0.00000000000E+00 0.  1.
         11    1    4    4    0    0  0.14953124931E+02 -0.94985343147E+00  0.98376491965E+01  0.17924215707E+02  0.51100000000E-03 0. -1.
        -11    1    4    4    0    0  0.14847684804E+02  0.42074014472E+01  0.18119208787E+02  0.23800455842E+02  0.51100000000E-03 0.  1.
        -12    1    4    4    0    0  0.31562509861E+01 -0.15037618783E+01  0.27004397404E+01  0.44176458510E+01  0.00000000000E+00 0.  1.
</event>
<event>
 8    1  0.2882335E-009  0.9118800E+02  0.7816164E-02  0.1184000E+00
        -11   -1    0    0    0    0  0.00000000000E+00  0.00000000000E+00  0.45593999997E+02  0.45594000000E+02  0.51100000000E-03 0. -1.
         11   -1    0    0    0    0 -0.00000000000E+00 -0.00000000000E+00 -0.45593999997E+02  0.45594000000E+02  0.51100000000E-03 0.  1.
         23    2    1    2    0    0  0.35527136788E-14  0.00000000000E+00 -0.17763568394E-14  0.91188000000E+02  0.91188000000E+02 0.  0.
    9900012    2    3    3    0    0 -0.31543095960E+02 -0.28061861910E+02  0.15706003309E+02  0.46142317226E+02  0.99999951237E+01 0.  0.
        -12    1    3    3    0    0  0.31543095960E+02  0.28061861910E+02 -0.15706003309E+02  0.45045682774E+02  0.00000000000E+00 0.  1.
         11    1    4    4    0    0 -0.16598150428E+02 -0.17588581885E+02  0.75595199919E+01  0.25337781141E+02  0.51100000000E-03 0. -1.
        -11    1    4    4    0    0  0.40949383442E+00 -0.49992983866E+00 -0.20862226130E+00  0.67907183202E+00  0.51100000000E-03 0.  1.
        -12    1    4    4    0    0 -0.15354439367E+02 -0.99733501854E+01  0.83551055785E+01  0.20125464253E+02  0.00000000000E+00 0.  1.
</event>
<event>
 8    1  0.2882335E-009  0.9118800E+02  0.7816164E-02  0.1184000E+00
        -11   -1    0    0    0    0  0.00000000000E+00  0.00000000000E+00  0.45593999997E+02  0.45594000000E+02  0.51100000000E-03 0. -1.
         11   -1    0    0    0    0 -0.00000000000E+00 -0.00000000000E+00 -0.45593999997E+02  0.45594000000E+02  0.51100000000E-03 0.  1.
         23    2    1    2    0    0  0.88817841970E-15  0.17763568394E-14 -0.71054273576E-14  0.91188000000E+02  0.91188000000E+02 0.  0.
    9900012    2    3    3    0    0 -0.69350160541E+01 -0.13903710461E+02  0.42281270208E+02  0.46142318491E+02  0.10000006653E+02 0.  0.
        -12    1    3    3    0    0  0.69350160541E+01  0.13903710461E+02 -0.42281270208E+02  0.45045681509E+02  0.00000000000E+00 0.  1.
         11    1    4    4    0    0 -0.20851015717E+01  0.20836630767E+00  0.67496547212E+01  0.70674538696E+01  0.51100000000E-03 0. -1.
        -11    1    4    4    0    0 -0.40583053887E+01 -0.10470330486E+02  0.18508737202E+02  0.21648810964E+02  0.51100000000E-03 0.  1.
        -12    1    4    4    0    0 -0.79160909369E+00 -0.36417462829E+01  0.17022878285E+02  0.17426053657E+02  0.00000000000E+00 0.  1.
</event>
<event>
 8    1  0.2882335E-009  0.9118800E+02  0.7816164E-02  0.1184000E+00
        -11   -1    0    0    0    0  0.00000000000E+00  0.00000000000E+00  0.45593999997E+02  0.45594000000E+02  0.51100000000E-03 0. -1.
         11   -1    0    0    0    0 -0.00000000000E+00 -0.00000000000E+00 -0.45593999997E+02  0.45594000000E+02  0.51100000000E-03 0.  1.
         23    2    1    2    0    0  0.00000000000E+00  0.71054273576E-14  0.00000000000E+00  0.91188000000E+02  0.91188000000E+02 0.  0.
    9900012    2    3    3    0    0 -0.75318420217E+01  0.39397843408E+02  0.20498653452E+02  0.46142317601E+02  0.99999985395E+01 0.  0.
        -12    1    3    3    0    0  0.75318420217E+01 -0.39397843408E+02 -0.20498653452E+02  0.45045682399E+02  0.00000000000E+00 0.  1.
         11    1    4    4    0    0 -0.10376972600E+00  0.22257315203E+02  0.13354068697E+02  0.25956309431E+02  0.51100000000E-03 0. -1.
        -11    1    4    4    0    0 -0.21383935272E+01  0.83106311605E+01  0.30190236893E+01  0.90969127433E+01  0.51100000000E-03 0.  1.
         12    1    4    4    0    0 -0.52896787685E+01  0.88298970443E+01  0.41255610653E+01  0.11089095427E+02  0.00000000000E+00 0. -1.
</event>
<event>
 8    1  0.2882335E-009  0.9118800E+02  0.7816164E-02  0.1184000E+00
        -11   -1    0    0    0    0  0.00000000000E+00  0.00000000000E+00  0.45593999997E+02  0.45594000000E+02  0.51100000000E-03 0. -1.
         11   -1    0    0    0    0 -0.00000000000E+00 -0.00000000000E+00 -0.45593999997E+02  0.45594000000E+02  0.51100000000E-03 0.  1.
         23    2    1    2    0    0  0.17763568394E-14 -0.71054273576E-14  0.00000000000E+00  0.91188000000E+02  0.91188000000E+02 0.  0.
    9900012    2    3    3    0    0  0.13544919260E+02 -0.39414767037E+02 -0.17091660646E+02  0.46142316944E+02  0.99999925454E+01 0.  0.
         12    1    3    3    0    0 -0.13544919260E+02  0.39414767037E+02  0.17091660646E+02  0.45045683056E+02  0.00000000000E+00 0. -1.
         11    1    4    4    0    0  0.89853310278E+01 -0.12089300153E+02 -0.65875208412E+01  0.16440279285E+02  0.51100000000E-03 0. -1.
        -11    1    4    4    0    0  0.24922526033E+01 -0.20460099616E+02 -0.79240006969E+01  0.22082046704E+02  0.51100000000E-03 0.  1.
        -12    1    4    4    0    0  0.20673356293E+01 -0.68653672686E+01 -0.25801391078E+01  0.76199909549E+01  0.00000000000E+00 0.  1.
</event>
<event>
 8    1  0.2882335E-009  0.9118800E+02  0.7816164E-02  0.1184000E+00
        -11   -1    0    0    0    0  0.00000000000E+00  0.00000000000E+00  0.45593999997E+02  0.45594000000E+02  0.51100000000E-03 0. -1.
         11   -1    0    0    0    0 -0.00000000000E+00 -0.00000000000E+00 -0.45593999997E+02  0.45594000000E+02  0.51100000000E-03 0.  1.
         23    2    1    2    0    0  0.00000000000E+00  0.35527136788E-14  0.00000000000E+00  0.91188000000E+02  0.91188000000E+02 0.  0.
    9900012    2    3    3    0    0 -0.15672044359E+02  0.26216636993E+02 -0.33108735396E+02  0.46142318863E+02  0.10000010044E+02 0.  0.
         12    1    3    3    0    0  0.15672044359E+02 -0.26216636993E+02  0.33108735396E+02  0.45045681137E+02  0.00000000000E+00 0. -1.
         11    1    4    4    0    0 -0.10245611114E+02  0.11121617537E+02 -0.19369449540E+02  0.24573125554E+02  0.51100000000E-03 0. -1.
        -11    1    4    4    0    0 -0.15776448500E+01  0.10568280127E+02 -0.88308874227E+01  0.13862253823E+02  0.51100000000E-03 0.  1.
        -12    1    4    4    0    0 -0.38487883951E+01  0.45267393291E+01 -0.49083984334E+01  0.77069394863E+01  0.00000000000E+00 0.  1.
</event>
<event>
 8    1  0.2882335E-009  0.9118800E+02  0.7816164E-02  0.1184000E+00
        -11   -1    0    0    0    0  0.00000000000E+00  0.00000000000E+00  0.45593999997E+02  0.45594000000E+02  0.51100000000E-03 0. -1.
         11   -1    0    0    0    0 -0.00000000000E+00 -0.00000000000E+00 -0.45593999997E+02  0.45594000000E+02  0.51100000000E-03 0.  1.
         23    2    1    2    0    0  0.00000000000E+00  0.00000000000E+00  0.00000000000E+00  0.91188000000E+02  0.91188000000E+02 0.  0.
    9900012    2    3    3    0    0  0.20791101012E+02  0.53326930950E+01  0.39603105114E+02  0.46142318391E+02  0.10000005741E+02 0.  0.
        -12    1    3    3    0    0 -0.20791101012E+02 -0.53326930950E+01 -0.39603105114E+02  0.45045681609E+02  0.00000000000E+00 0.  1.
         11    1    4    4    0    0  0.12036591806E+02  0.18568737670E+01  0.20874234232E+02  0.24167357686E+02  0.51100000000E-03 0. -1.
        -11    1    4    4    0    0  0.50098186407E+01 -0.11086433429E+01  0.57290343076E+01  0.76908521786E+01  0.51100000000E-03 0.  1.
         12    1    4    4    0    0  0.37446905654E+01  0.45844626709E+01  0.12999836575E+02  0.14284108526E+02  0.00000000000E+00 0. -1.
</event>
<event>
 8    1  0.2946816E-009  0.9118800E+02  0.7816164E-02  0.1184000E+00
        -11   -1    0    0    0    0  0.00000000000E+00  0.00000000000E+00  0.45593999997E+02  0.45594000000E+02  0.51100000000E-03 0. -1.
         11   -1    0    0    0    0 -0.00000000000E+00 -0.00000000000E+00 -0.45593999997E+02  0.45594000000E+02  0.51100000000E-03 0.  1.
         23    2    1    2    0    0  0.00000000000E+00  0.00000000000E+00  0.00000000000E+00  0.91188000000E+02  0.91188000000E+02 0.  0.
    9900012    2    3    3    0    0  0.37683034034E+02  0.12994915612E+02 -0.20981768641E+02  0.46142317620E+02  0.99999987146E+01 0.  0.
         12    1    3    3    0    0 -0.37683034034E+02 -0.12994915612E+02  0.20981768641E+02  0.45045682380E+02  0.00000000000E+00 0. -1.
         11    1    4    4    0    0  0.52239242698E+01  0.20549666272E+01 -0.60623057436E+01  0.82621924333E+01  0.51100000000E-03 0. -1.
        -11    1    4    4    0    0  0.17589555447E+02  0.28854305898E+01 -0.63506072180E+01  0.18922166441E+02  0.51100000000E-03 0.  1.
        -12    1    4    4    0    0  0.14869554317E+02  0.80545183952E+01 -0.85688556791E+01  0.18957958746E+02  0.00000000000E+00 0.  1.
</event>
<event>
 8    1  0.2882335E-009  0.9118800E+02  0.7816164E-02  0.1184000E+00
        -11   -1    0    0    0    0  0.00000000000E+00  0.00000000000E+00  0.45593999997E+02  0.45594000000E+02  0.51100000000E-03 0. -1.
         11   -1    0    0    0    0 -0.00000000000E+00 -0.00000000000E+00 -0.45593999997E+02  0.45594000000E+02  0.51100000000E-03 0.  1.
         23    2    1    2    0    0 -0.22204460493E-15 -0.71054273576E-14  0.00000000000E+00  0.91188000000E+02  0.91188000000E+02 0.  0.
    9900012    2    3    3    0    0 -0.18753604552E+01 -0.41548483073E+02  0.17300869200E+02  0.46142317658E+02  0.99999990624E+01 0.  0.
        -12    1    3    3    0    0  0.18753604552E+01  0.41548483073E+02 -0.17300869200E+02  0.45045682342E+02  0.00000000000E+00 0.  1.
         11    1    4    4    0    0 -0.92101770305E+00 -0.37402315610E+02  0.14989434787E+02  0.40304647897E+02  0.51100000000E-03 0. -1.
        -11    1    4    4    0    0  0.52567765757E+00  0.10621130307E+00  0.10218895669E+01  0.11540694904E+01  0.51100000000E-03 0.  1.
         12    1    4    4    0    0 -0.14800204098E+01 -0.42523787661E+01  0.12895448464E+01  0.46836002706E+01  0.00000000000E+00 0. -1.
</event>
<event>
 8    1  0.2882335E-009  0.9118800E+02  0.7816164E-02  0.1184000E+00
        -11   -1    0    0    0    0  0.00000000000E+00  0.00000000000E+00  0.45593999997E+02  0.45594000000E+02  0.51100000000E-03 0.  1.
         11   -1    0    0    0    0 -0.00000000000E+00 -0.00000000000E+00 -0.45593999997E+02  0.45594000000E+02  0.51100000000E-03 0. -1.
         23    2    1    2    0    0  0.00000000000E+00 -0.35527136788E-14  0.00000000000E+00  0.91188000000E+02  0.91188000000E+02 0.  0.
    9900012    2    3    3    0    0 -0.33152027591E+02 -0.25360019816E+02  0.16938887582E+02  0.46142318176E+02  0.10000003779E+02 0.  0.
        -12    1    3    3    0    0  0.33152027591E+02  0.25360019816E+02 -0.16938887582E+02  0.45045681824E+02  0.00000000000E+00 0.  1.
         11    1    4    4    0    0 -0.83098135583E+01 -0.30128236892E+01  0.21459094759E+01  0.90958801496E+01  0.51100000000E-03 0. -1.
        -11    1    4    4    0    0 -0.10540392614E+02 -0.13233761646E+02  0.87180039851E+01  0.19032496355E+02  0.51100000000E-03 0.  1.
        -12    1    4    4    0    0 -0.14301821419E+02 -0.91134344812E+01  0.60749741211E+01  0.18013941671E+02  0.00000000000E+00 0.  1.
</event>
<event>
 8    1  0.2882335E-009  0.9118800E+02  0.7816164E-02  0.1184000E+00
        -11   -1    0    0    0    0  0.00000000000E+00  0.00000000000E+00  0.45593999997E+02  0.45594000000E+02  0.51100000000E-03 0. -1.
         11   -1    0    0    0    0 -0.00000000000E+00 -0.00000000000E+00 -0.45593999997E+02  0.45594000000E+02  0.51100000000E-03 0.  1.
         23    2    1    2    0    0 -0.88817841970E-15 -0.71054273576E-14 -0.35527136788E-14  0.91188000000E+02  0.91188000000E+02 0.  0.
    9900012    2    3    3    0    0  0.50766537980E+01  0.36551267137E+02  0.25833039846E+02  0.46142317734E+02  0.99999997556E+01 0.  0.
        -12    1    3    3    0    0 -0.50766537980E+01 -0.36551267137E+02 -0.25833039846E+02  0.45045682266E+02  0.00000000000E+00 0.  1.
         11    1    4    4    0    0 -0.27835805650E+01  0.68587496609E+01  0.41488679514E+01  0.84855096024E+01  0.51100000000E-03 0. -1.
        -11    1    4    4    0    0  0.40982758682E+01  0.15297121743E+02  0.98972303357E+01  0.18674928843E+02  0.51100000000E-03 0.  1.
        -12    1    4    4    0    0  0.37619584948E+01  0.14395395732E+02  0.11786941559E+02  0.18981879289E+02  0.00000000000E+00 0.  1.
</event>
<event>
 8    1  0.2882335E-009  0.9118800E+02  0.7816164E-02  0.1184000E+00
        -11   -1    0    0    0    0  0.00000000000E+00  0.00000000000E+00  0.45593999997E+02  0.45594000000E+02  0.51100000000E-03 0. -1.
         11   -1    0    0    0    0 -0.00000000000E+00 -0.00000000000E+00 -0.45593999997E+02  0.45594000000E+02  0.51100000000E-03 0.  1.
         23    2    1    2    0    0 -0.35527136788E-14  0.35527136788E-14  0.00000000000E+00  0.91188000000E+02  0.91188000000E+02 0.  0.
    9900012    2    3    3    0    0 -0.17600706994E+02 -0.21969569547E+02  0.35166271511E+02  0.46142317357E+02  0.99999963178E+01 0.  0.
        -12    1    3    3    0    0  0.17600706994E+02  0.21969569547E+02 -0.35166271511E+02  0.45045682643E+02  0.00000000000E+00 0.  1.
         11    1    4    4    0    0 -0.73707766102E+01 -0.63550516967E+01  0.73077988007E+01  0.12170413036E+02  0.51100000000E-03 0. -1.
        -11    1    4    4    0    0 -0.17996523969E+01 -0.61425232385E+01  0.12597982754E+02  0.14130764672E+02  0.51100000000E-03 0.  1.
        -12    1    4    4    0    0 -0.84302779865E+01 -0.94719946113E+01  0.15260489957E+02  0.19841139649E+02  0.00000000000E+00 0.  1.
</event>
<event>
 8    1  0.2882335E-009  0.9118800E+02  0.7816164E-02  0.1184000E+00
        -11   -1    0    0    0    0  0.00000000000E+00  0.00000000000E+00  0.45593999997E+02  0.45594000000E+02  0.51100000000E-03 0. -1.
         11   -1    0    0    0    0 -0.00000000000E+00 -0.00000000000E+00 -0.45593999997E+02  0.45594000000E+02  0.51100000000E-03 0.  1.
         23    2    1    2    0    0  0.35527136788E-14  0.00000000000E+00  0.00000000000E+00  0.91188000000E+02  0.91188000000E+02 0.  0.
    9900012    2    3    3    0    0 -0.21871452535E+02 -0.10120883938E+02  0.38056809627E+02  0.46142317780E+02  0.10000000175E+02 0.  0.
        -12    1    3    3    0    0  0.21871452535E+02  0.10120883938E+02 -0.38056809627E+02  0.45045682220E+02  0.00000000000E+00 0.  1.
         11    1    4    4    0    0 -0.53352948438E+00 -0.73475143204E-02  0.43852939470E+01  0.44176363543E+01  0.51100000000E-03 0.  1.
        -11    1    4    4    0    0 -0.66724571131E+01 -0.21719210880E+00  0.12161527570E+02  0.13873413763E+02  0.51100000000E-03 0. -1.
        -12    1    4    4    0    0 -0.14665465937E+02 -0.98963443151E+01  0.21509988109E+02  0.27851267663E+02  0.00000000000E+00 0.  1.
</event>
<event>
 8    1  0.2882335E-009  0.9118800E+02  0.7816164E-02  0.1184000E+00
        -11   -1    0    0    0    0  0.00000000000E+00  0.00000000000E+00  0.45593999997E+02  0.45594000000E+02  0.51100000000E-03 0. -1.
         11   -1    0    0    0    0 -0.00000000000E+00 -0.00000000000E+00 -0.45593999997E+02  0.45594000000E+02  0.51100000000E-03 0.  1.
         23    2    1    2    0    0  0.00000000000E+00 -0.17763568394E-14  0.00000000000E+00  0.91188000000E+02  0.91188000000E+02 0.  0.
    9900012    2    3    3    0    0  0.41730007457E+02  0.14586445808E+02  0.86576915968E+01  0.46142317105E+02  0.99999940180E+01 0.  0.
        -12    1    3    3    0    0 -0.41730007457E+02 -0.14586445808E+02 -0.86576915968E+01  0.45045682895E+02  0.00000000000E+00 0.  1.
         11    1    4    4    0    0  0.12819731451E+00  0.15900246317E+01  0.29857956571E+00  0.16228872108E+01  0.51100000000E-03 0. -1.
        -11    1    4    4    0    0  0.73185924642E+01  0.35848954217E+01  0.21669063679E+01  0.84326006848E+01  0.51100000000E-03 0.  1.
         12    1    4    4    0    0  0.34283217679E+02  0.94115257543E+01  0.61922056632E+01  0.36086829210E+02  0.00000000000E+00 0. -1.
</event>
<event>
 8    1  0.2882335E-009  0.9118800E+02  0.7816164E-02  0.1184000E+00
        -11   -1    0    0    0    0  0.00000000000E+00  0.00000000000E+00  0.45593999997E+02  0.45594000000E+02  0.51100000000E-03 0. -1.
         11   -1    0    0    0    0 -0.00000000000E+00 -0.00000000000E+00 -0.45593999997E+02  0.45594000000E+02  0.51100000000E-03 0.  1.
         23    2    1    2    0    0 -0.71054273576E-14  0.00000000000E+00 -0.17763568394E-14  0.91188000000E+02  0.91188000000E+02 0.  0.
    9900012    2    3    3    0    0  0.40409126710E+02  0.12705697664E+02  0.15322571422E+02  0.46142317969E+02  0.10000001898E+02 0.  0.
        -12    1    3    3    0    0 -0.40409126710E+02 -0.12705697664E+02 -0.15322571422E+02  0.45045682031E+02  0.00000000000E+00 0.  1.
         11    1    4    4    0    0  0.28544349968E+02  0.10771452965E+02  0.12522327634E+02  0.32978975177E+02  0.51100000000E-03 0. -1.
        -11    1    4    4    0    0  0.41027925422E+01 -0.79444968402E+00 -0.67260928298E+00  0.42327840074E+01  0.51100000000E-03 0.  1.
        -12    1    4    4    0    0  0.77619841999E+01  0.27286943834E+01  0.34728530706E+01  0.89305587848E+01  0.00000000000E+00 0.  1.
</event>
<event>
 8    1  0.2882335E-009  0.9118800E+02  0.7816164E-02  0.1184000E+00
        -11   -1    0    0    0    0  0.00000000000E+00  0.00000000000E+00  0.45593999997E+02  0.45594000000E+02  0.51100000000E-03 0. -1.
         11   -1    0    0    0    0 -0.00000000000E+00 -0.00000000000E+00 -0.45593999997E+02  0.45594000000E+02  0.51100000000E-03 0.  1.
         23    2    1    2    0    0  0.35527136788E-14  0.00000000000E+00  0.14210854715E-13  0.91188000000E+02  0.91188000000E+02 0.  0.
    9900012    2    3    3    0    0 -0.19057847278E+02  0.19358173097E+02  0.35932893717E+02  0.46142320302E+02  0.10000023174E+02 0.  0.
        -12    1    3    3    0    0  0.19057847278E+02 -0.19358173097E+02 -0.35932893717E+02  0.45045679698E+02  0.00000000000E+00 0.  1.
         11    1    4    4    0    0 -0.13532692915E+02  0.16832786467E+02  0.31887063964E+02  0.38513131868E+02  0.51100000000E-03 0. -1.
        -11    1    4    4    0    0 -0.23168873380E+01  0.28010225747E+00  0.24978326842E+01  0.34184196043E+01  0.51100000000E-03 0.  1.
         12    1    4    4    0    0 -0.32082670250E+01  0.22452843723E+01  0.15479970696E+01  0.42107688304E+01  0.00000000000E+00 0. -1.
</event>
<event>
 8    1  0.2882335E-009  0.9118800E+02  0.7816164E-02  0.1184000E+00
        -11   -1    0    0    0    0  0.00000000000E+00  0.00000000000E+00  0.45593999997E+02  0.45594000000E+02  0.51100000000E-03 0. -1.
         11   -1    0    0    0    0 -0.00000000000E+00 -0.00000000000E+00 -0.45593999997E+02  0.45594000000E+02  0.51100000000E-03 0.  1.
         23    2    1    2    0    0  0.00000000000E+00  0.00000000000E+00  0.00000000000E+00  0.91188000000E+02  0.91188000000E+02 0.  0.
    9900012    2    3    3    0    0 -0.23527860102E+02  0.36571357423E+02 -0.11751138199E+02  0.46142316148E+02  0.99999852860E+01 0.  0.
         12    1    3    3    0    0  0.23527860102E+02 -0.36571357423E+02  0.11751138199E+02  0.45045683852E+02  0.00000000000E+00 0. -1.
         11    1    4    4    0    0 -0.12805023276E+01  0.15795605118E+01  0.10636869839E+01  0.22948045412E+01  0.51100000000E-03 0. -1.
        -11    1    4    4    0    0 -0.70388998492E+01  0.77976617190E+01 -0.54352424190E+01  0.11827573707E+02  0.51100000000E-03 0.  1.
        -12    1    4    4    0    0 -0.15208457925E+02  0.27194135193E+02 -0.73795827639E+01  0.32019937900E+02  0.00000000000E+00 0.  1.
</event>
<event>
 8    1  0.2882335E-009  0.9118800E+02  0.7816164E-02  0.1184000E+00
        -11   -1    0    0    0    0  0.00000000000E+00  0.00000000000E+00  0.45593999997E+02  0.45594000000E+02  0.51100000000E-03 0. -1.
         11   -1    0    0    0    0 -0.00000000000E+00 -0.00000000000E+00 -0.45593999997E+02  0.45594000000E+02  0.51100000000E-03 0.  1.
         23    2    1    2    0    0 -0.71054273576E-14  0.00000000000E+00  0.35527136788E-14  0.91188000000E+02  0.91188000000E+02 0.  0.
    9900012    2    3    3    0    0 -0.36570099302E+02  0.17370490637E+02  0.19748604473E+02  0.46142317781E+02  0.10000000183E+02 0.  0.
        -12    1    3    3    0    0  0.36570099302E+02 -0.17370490637E+02 -0.19748604473E+02  0.45045682219E+02  0.00000000000E+00 0.  1.
         11    1    4    4    0    0 -0.26762715709E+02  0.14405771678E+02  0.17310443371E+02  0.34977430719E+02  0.51100000000E-03 0. -1.
        -11    1    4    4    0    0 -0.32563224198E+01  0.17940870080E-02 -0.68222557062E+00  0.33270213271E+01  0.51100000000E-03 0.  1.
         12    1    4    4    0    0 -0.65510611729E+01  0.29629248722E+01  0.31203866728E+01  0.78378657348E+01  0.00000000000E+00 0. -1.
</event>
<event>
 8    1  0.2882335E-009  0.9118800E+02  0.7816164E-02  0.1184000E+00
        -11   -1    0    0    0    0  0.00000000000E+00  0.00000000000E+00  0.45593999997E+02  0.45594000000E+02  0.51100000000E-03 0. -1.
         11   -1    0    0    0    0 -0.00000000000E+00 -0.00000000000E+00 -0.45593999997E+02  0.45594000000E+02  0.51100000000E-03 0.  1.
         23    2    1    2    0    0  0.00000000000E+00  0.00000000000E+00  0.00000000000E+00  0.91188000000E+02  0.91188000000E+02 0.  0.
    9900012    2    3    3    0    0  0.35606321443E+01 -0.23937375123E+01  0.44840886441E+02  0.46142321213E+02  0.10000031480E+02 0.  0.
        -12    1    3    3    0    0 -0.35606321443E+01  0.23937375123E+01 -0.44840886441E+02  0.45045678787E+02  0.00000000000E+00 0.  1.
         11    1    4    4    0    0  0.27212645905E+01  0.22442688823E+01  0.29586586718E+02  0.29796109438E+02  0.51100000000E-03 0. -1.
        -11    1    4    4    0    0 -0.10903988119E+01 -0.98007207675E+00  0.21308542703E+01  0.25865132953E+01  0.51100000000E-03 0.  1.
        -12    1    4    4    0    0  0.19297663656E+01 -0.36579343179E+01  0.13123445453E+02  0.13759698480E+02  0.00000000000E+00 0.  1.
</event>
<event>
 8    1  0.2882335E-009  0.9118800E+02  0.7816164E-02  0.1184000E+00
        -11   -1    0    0    0    0  0.00000000000E+00  0.00000000000E+00  0.45593999997E+02  0.45594000000E+02  0.51100000000E-03 0. -1.
         11   -1    0    0    0    0 -0.00000000000E+00 -0.00000000000E+00 -0.45593999997E+02  0.45594000000E+02  0.51100000000E-03 0.  1.
         23    2    1    2    0    0  0.35527136788E-14  0.17763568394E-14  0.71054273576E-14  0.91188000000E+02  0.91188000000E+02 0.  0.
    9900012    2    3    3    0    0 -0.28716218282E+02 -0.13835822082E+02 -0.31828640406E+02  0.46142317463E+02  0.99999972831E+01 0.  0.
         12    1    3    3    0    0  0.28716218282E+02  0.13835822082E+02  0.31828640406E+02  0.45045682537E+02  0.00000000000E+00 0. -1.
         11    1    4    4    0    0 -0.11983897959E+02 -0.49915196196E+01 -0.72616842327E+01  0.14874849127E+02  0.51100000000E-03 0. -1.
        -11    1    4    4    0    0 -0.13274332491E+02 -0.87182498252E+01 -0.20078977266E+02  0.25600412329E+02  0.51100000000E-03 0.  1.
         12    1    4    4    0    0 -0.34579878320E+01 -0.12605263741E+00 -0.44879789076E+01  0.56670560071E+01  0.00000000000E+00 0. -1.
</event>
<event>
 8    1  0.2882335E-009  0.9118800E+02  0.7816164E-02  0.1184000E+00
        -11   -1    0    0    0    0  0.00000000000E+00  0.00000000000E+00  0.45593999997E+02  0.45594000000E+02  0.51100000000E-03 0. -1.
         11   -1    0    0    0    0 -0.00000000000E+00 -0.00000000000E+00 -0.45593999997E+02  0.45594000000E+02  0.51100000000E-03 0.  1.
         23    2    1    2    0    0  0.00000000000E+00  0.00000000000E+00  0.00000000000E+00  0.91188000000E+02  0.91188000000E+02 0.  0.
    9900012    2    3    3    0    0  0.70759274947E+01 -0.31433983456E+02  0.31479349076E+02  0.46142317809E+02  0.10000000437E+02 0.  0.
        -12    1    3    3    0    0 -0.70759274947E+01  0.31433983456E+02 -0.31479349076E+02  0.45045682191E+02  0.00000000000E+00 0.  1.
         11    1    4    4    0    0  0.44798154166E+00 -0.10489529473E+02  0.69444379886E+01  0.12587936100E+02  0.51100000000E-03 0. -1.
        -11    1    4    4    0    0  0.18305885603E+00 -0.49800135895E+01  0.24535776264E+01  0.55546457426E+01  0.51100000000E-03 0.  1.
         12    1    4    4    0    0  0.64448870970E+01 -0.15964440394E+02  0.22081333461E+02  0.27999735966E+02  0.00000000000E+00 0. -1.
</event>
<event>
 8    1  0.2882335E-009  0.9118800E+02  0.7816164E-02  0.1184000E+00
        -11   -1    0    0    0    0  0.00000000000E+00  0.00000000000E+00  0.45593999997E+02  0.45594000000E+02  0.51100000000E-03 0.  1.
         11   -1    0    0    0    0 -0.00000000000E+00 -0.00000000000E+00 -0.45593999997E+02  0.45594000000E+02  0.51100000000E-03 0. -1.
         23    2    1    2    0    0  0.00000000000E+00  0.71054273576E-14  0.00000000000E+00  0.91188000000E+02  0.91188000000E+02 0.  0.
    9900012    2    3    3    0    0 -0.18769940942E+02  0.39310645325E+02  0.11466288093E+02  0.46142320058E+02  0.10000020944E+02 0.  0.
         12    1    3    3    0    0  0.18769940942E+02 -0.39310645325E+02 -0.11466288093E+02  0.45045679942E+02  0.00000000000E+00 0. -1.
         11    1    4    4    0    0 -0.56263055008E-01  0.38108958966E+00  0.11942463668E+01  0.12548384168E+01  0.51100000000E-03 0. -1.
        -11    1    4    4    0    0 -0.76228335136E+01  0.15258657091E+02  0.73894868121E+01  0.18588671889E+02  0.51100000000E-03 0.  1.
        -12    1    4    4    0    0 -0.11090844374E+02  0.23670898644E+02  0.28825549142E+01  0.26298809752E+02  0.00000000000E+00 0.  1.
</event>
<event>
 8    1  0.2882335E-009  0.9118800E+02  0.7816164E-02  0.1184000E+00
        -11   -1    0    0    0    0  0.00000000000E+00  0.00000000000E+00  0.45593999997E+02  0.45594000000E+02  0.51100000000E-03 0. -1.
         11   -1    0    0    0    0 -0.00000000000E+00 -0.00000000000E+00 -0.45593999997E+02  0.45594000000E+02  0.51100000000E-03 0.  1.
         23    2    1    2    0    0  0.00000000000E+00 -0.17763568394E-14  0.00000000000E+00  0.91188000000E+02  0.91188000000E+02 0.  0.
    9900012    2    3    3    0    0  0.44130340486E+01  0.14939842566E+02  0.42266295506E+02  0.46142317619E+02  0.99999986997E+01 0.  0.
        -12    1    3    3    0    0 -0.44130340486E+01 -0.14939842566E+02 -0.42266295506E+02  0.45045682381E+02  0.00000000000E+00 0.  1.
         11    1    4    4    0    0  0.11945252196E+01  0.44112268832E+01  0.12587120759E+02  0.13391094891E+02  0.51100000000E-03 0. -1.
        -11    1    4    4    0    0  0.10219127070E+01 -0.11501076722E+01  0.67780011901E+01  0.69504211118E+01  0.51100000000E-03 0.  1.
        -12    1    4    4    0    0  0.21965961219E+01  0.11678723355E+02  0.22901173557E+02  0.25800801616E+02  0.00000000000E+00 0.  1.
</event>
<event>
 8    1  0.2882335E-009  0.9118800E+02  0.7816164E-02  0.1184000E+00
        -11   -1    0    0    0    0  0.00000000000E+00  0.00000000000E+00  0.45593999997E+02  0.45594000000E+02  0.51100000000E-03 0. -1.
         11   -1    0    0    0    0 -0.00000000000E+00 -0.00000000000E+00 -0.45593999997E+02  0.45594000000E+02  0.51100000000E-03 0.  1.
         23    2    1    2    0    0 -0.35527136788E-14 -0.44408920985E-15  0.00000000000E+00  0.91188000000E+02  0.91188000000E+02 0.  0.
    9900012    2    3    3    0    0  0.29720545099E+02  0.90152327894E+00 -0.33837699289E+02  0.46142318316E+02  0.10000005060E+02 0.  0.
         12    1    3    3    0    0 -0.29720545099E+02 -0.90152327894E+00  0.33837699289E+02  0.45045681684E+02  0.00000000000E+00 0. -1.
         11    1    4    4    0    0  0.22566494037E+02  0.21194787613E+01 -0.21866957333E+02  0.31494486289E+02  0.51100000000E-03 0. -1.
        -11    1    4    4    0    0  0.28764028658E+01  0.15764972641E+01 -0.54883119317E+01  0.63937942719E+01  0.51100000000E-03 0.  1.
         12    1    4    4    0    0  0.42776481958E+01 -0.27944527465E+01 -0.64824300249E+01  0.82540377554E+01  0.00000000000E+00 0. -1.
</event>
<event>
 8    1  0.2882335E-009  0.9118800E+02  0.7816164E-02  0.1184000E+00
        -11   -1    0    0    0    0  0.00000000000E+00  0.00000000000E+00  0.45593999997E+02  0.45594000000E+02  0.51100000000E-03 0. -1.
         11   -1    0    0    0    0 -0.00000000000E+00 -0.00000000000E+00 -0.45593999997E+02  0.45594000000E+02  0.51100000000E-03 0.  1.
         23    2    1    2    0    0 -0.35527136788E-14  0.35527136788E-14  0.00000000000E+00  0.91188000000E+02  0.91188000000E+02 0.  0.
    9900012    2    3    3    0    0 -0.27350901085E+02  0.29751293301E+02 -0.19897290073E+02  0.46142318792E+02  0.10000009399E+02 0.  0.
         12    1    3    3    0    0  0.27350901085E+02 -0.29751293301E+02  0.19897290073E+02  0.45045681208E+02  0.00000000000E+00 0. -1.
         11    1    4    4    0    0 -0.26376068525E+01 -0.31776868727E+00 -0.80037808886E+00  0.27746264961E+01  0.51100000000E-03 0. -1.
        -11    1    4    4    0    0 -0.16314128801E+02  0.19272489776E+02 -0.12790539094E+02  0.28305079956E+02  0.51100000000E-03 0.  1.
         12    1    4    4    0    0 -0.83991654316E+01  0.10796572212E+02 -0.63063728897E+01  0.15062612340E+02  0.00000000000E+00 0. -1.
</event>
<event>
 8    1  0.2882335E-009  0.9118800E+02  0.7816164E-02  0.1184000E+00
        -11   -1    0    0    0    0  0.00000000000E+00  0.00000000000E+00  0.45593999997E+02  0.45594000000E+02  0.51100000000E-03 0. -1.
         11   -1    0    0    0    0 -0.00000000000E+00 -0.00000000000E+00 -0.45593999997E+02  0.45594000000E+02  0.51100000000E-03 0.  1.
         23    2    1    2    0    0 -0.22204460493E-15  0.00000000000E+00  0.00000000000E+00  0.91188000000E+02  0.91188000000E+02 0.  0.
    9900012    2    3    3    0    0 -0.51867279457E+00  0.17658454638E+02 -0.41436971492E+02  0.46142327088E+02  0.10000085048E+02 0.  0.
         12    1    3    3    0    0  0.51867279457E+00 -0.17658454638E+02  0.41436971492E+02  0.45045672912E+02  0.00000000000E+00 0. -1.
         11    1    4    4    0    0  0.69876917238E+00  0.12467300124E+01 -0.17161102680E+01  0.22333044560E+01  0.51100000000E-03 0. -1.
        -11    1    4    4    0    0  0.13928707844E+01  0.16723368690E+01 -0.13848806646E+02  0.14018781880E+02  0.51100000000E-03 0.  1.
        -12    1    4    4    0    0 -0.26103127514E+01  0.14739387756E+02 -0.25872054579E+02  0.29890240752E+02  0.00000000000E+00 0.  1.
</event>
<event>
 8    1  0.2882335E-009  0.9118800E+02  0.7816164E-02  0.1184000E+00
        -11   -1    0    0    0    0  0.00000000000E+00  0.00000000000E+00  0.45593999997E+02  0.45594000000E+02  0.51100000000E-03 0. -1.
         11   -1    0    0    0    0 -0.00000000000E+00 -0.00000000000E+00 -0.45593999997E+02  0.45594000000E+02  0.51100000000E-03 0.  1.
         23    2    1    2    0    0 -0.88817841970E-15  0.35527136788E-14  0.00000000000E+00  0.91188000000E+02  0.91188000000E+02 0.  0.
    9900012    2    3    3    0    0 -0.62097920695E+01 -0.18186425019E+02  0.40740713856E+02  0.46142319430E+02  0.10000015221E+02 0.  0.
        -12    1    3    3    0    0  0.62097920695E+01  0.18186425019E+02 -0.40740713856E+02  0.45045680570E+02  0.00000000000E+00 0.  1.
         11    1    4    4    0    0 -0.49887434237E+01 -0.54252860963E+01  0.11127596472E+02  0.13347085588E+02  0.51100000000E-03 0.  1.
        -11    1    4    4    0    0 -0.29231015687E+01 -0.34869181797E+01  0.11665871534E+02  0.12521808179E+02  0.51100000000E-03 0. -1.
         12    1    4    4    0    0  0.17020529228E+01 -0.92742207426E+01  0.17947245849E+02  0.20273425663E+02  0.00000000000E+00 0. -1.
</event>
<event>
 8    1  0.2882335E-009  0.9118800E+02  0.7816164E-02  0.1184000E+00
        -11   -1    0    0    0    0  0.00000000000E+00  0.00000000000E+00  0.45593999997E+02  0.45594000000E+02  0.51100000000E-03 0.  1.
         11   -1    0    0    0    0 -0.00000000000E+00 -0.00000000000E+00 -0.45593999997E+02  0.45594000000E+02  0.51100000000E-03 0. -1.
         23    2    1    2    0    0  0.44408920985E-15 -0.71054273576E-14  0.35527136788E-14  0.91188000000E+02  0.91188000000E+02 0.  0.
    9900012    2    3    3    0    0 -0.17930363946E+01  0.41911077347E+02 -0.16412192505E+02  0.46142318223E+02  0.10000004211E+02 0.  0.
        -12    1    3    3    0    0  0.17930363946E+01 -0.41911077347E+02  0.16412192505E+02  0.45045681777E+02  0.00000000000E+00 0.  1.
         11    1    4    4    0    0 -0.10778025031E+01  0.57639076248E+01 -0.11537943299E+01  0.59762472305E+01  0.51100000000E-03 0. -1.
        -11    1    4    4    0    0  0.19380546015E+01  0.16674935277E+01 -0.13617650163E+01  0.28967213404E+01  0.51100000000E-03 0.  1.
        -12    1    4    4    0    0 -0.26532884929E+01  0.34479676195E+02 -0.13896633159E+02  0.37269349652E+02  0.00000000000E+00 0.  1.
</event>
<event>
 8    1  0.2882335E-009  0.9118800E+02  0.7816164E-02  0.1184000E+00
        -11   -1    0    0    0    0  0.00000000000E+00  0.00000000000E+00  0.45593999997E+02  0.45594000000E+02  0.51100000000E-03 0. -1.
         11   -1    0    0    0    0 -0.00000000000E+00 -0.00000000000E+00 -0.45593999997E+02  0.45594000000E+02  0.51100000000E-03 0.  1.
         23    2    1    2    0    0 -0.44408920985E-15  0.00000000000E+00  0.00000000000E+00  0.91188000000E+02  0.91188000000E+02 0.  0.
    9900012    2    3    3    0    0  0.37828214986E+01  0.17563740989E+02  0.41307612525E+02  0.46142316650E+02  0.99999898636E+01 0.  0.
        -12    1    3    3    0    0 -0.37828214986E+01 -0.17563740989E+02 -0.41307612525E+02  0.45045683350E+02  0.00000000000E+00 0.  1.
         11    1    4    4    0    0  0.27824954815E+01  0.12353714164E+02  0.19931446454E+02  0.23613959701E+02  0.51100000000E-03 0. -1.
        -11    1    4    4    0    0 -0.14117559294E+01  0.51749573469E-01  0.46067131054E+01  0.48184581268E+01  0.51100000000E-03 0.  1.
         12    1    4    4    0    0  0.24120819465E+01  0.51582772516E+01  0.16769452965E+02  0.17709898822E+02  0.00000000000E+00 0. -1.
</event>
<event>
 8    1  0.2882335E-009  0.9118800E+02  0.7816164E-02  0.1184000E+00
        -11   -1    0    0    0    0  0.00000000000E+00  0.00000000000E+00  0.45593999997E+02  0.45594000000E+02  0.51100000000E-03 0. -1.
         11   -1    0    0    0    0 -0.00000000000E+00 -0.00000000000E+00 -0.45593999997E+02  0.45594000000E+02  0.51100000000E-03 0.  1.
         23    2    1    2    0    0  0.35527136788E-14  0.17763568394E-14  0.00000000000E+00  0.91188000000E+02  0.91188000000E+02 0.  0.
    9900012    2    3    3    0    0 -0.19181718432E+02 -0.11383848034E+02  0.39135447877E+02  0.46142316537E+02  0.99999888415E+01 0.  0.
        -12    1    3    3    0    0  0.19181718432E+02  0.11383848034E+02 -0.39135447877E+02  0.45045683463E+02  0.00000000000E+00 0.  1.
         11    1    4    4    0    0 -0.40486655688E+01 -0.83941635687E+00  0.12741424841E+02  0.13395529849E+02  0.51100000000E-03 0. -1.
        -11    1    4    4    0    0 -0.65918698110E+01 -0.74437738294E+01  0.10659115798E+02  0.14576668559E+02  0.51100000000E-03 0.  1.
        -12    1    4    4    0    0 -0.85411830521E+01 -0.31006578479E+01  0.15734907239E+02  0.18170118129E+02  0.00000000000E+00 0.  1.
</event>
<event>
 8    1  0.2882335E-009  0.9118800E+02  0.7816164E-02  0.1184000E+00
        -11   -1    0    0    0    0  0.00000000000E+00  0.00000000000E+00  0.45593999997E+02  0.45594000000E+02  0.51100000000E-03 0. -1.
         11   -1    0    0    0    0 -0.00000000000E+00 -0.00000000000E+00 -0.45593999997E+02  0.45594000000E+02  0.51100000000E-03 0.  1.
         23    2    1    2    0    0  0.35527136788E-14  0.71054273576E-14  0.00000000000E+00  0.91188000000E+02  0.91188000000E+02 0.  0.
    9900012    2    3    3    0    0  0.28920288322E+02  0.33730003483E+02 -0.74173643996E+01  0.46142317563E+02  0.99999981894E+01 0.  0.
         12    1    3    3    0    0 -0.28920288322E+02 -0.33730003483E+02  0.74173643996E+01  0.45045682437E+02  0.00000000000E+00 0. -1.
         11    1    4    4    0    0  0.26229991453E+01  0.68880471192E+00 -0.35721161121E+00  0.27353568037E+01  0.51100000000E-03 0. -1.
        -11    1    4    4    0    0  0.25730391516E+02  0.32852558493E+02 -0.78040134966E+01  0.42452871210E+02  0.51100000000E-03 0.  1.
        -12    1    4    4    0    0  0.56689766152E+00  0.18864027795E+00  0.74386070822E+00  0.95408954838E+00  0.00000000000E+00 0.  1.
</event>
<event>
 8    1  0.2882335E-009  0.9118800E+02  0.7816164E-02  0.1184000E+00
        -11   -1    0    0    0    0  0.00000000000E+00  0.00000000000E+00  0.45593999997E+02  0.45594000000E+02  0.51100000000E-03 0. -1.
         11   -1    0    0    0    0 -0.00000000000E+00 -0.00000000000E+00 -0.45593999997E+02  0.45594000000E+02  0.51100000000E-03 0.  1.
         23    2    1    2    0    0  0.88817841970E-15 -0.71054273576E-14  0.35527136788E-14  0.91188000000E+02  0.91188000000E+02 0.  0.
    9900012    2    3    3    0    0 -0.72248919894E+01  0.38030105875E+02 -0.23035312057E+02  0.46142316315E+02  0.99999868105E+01 0.  0.
         12    1    3    3    0    0  0.72248919894E+01 -0.38030105875E+02  0.23035312057E+02  0.45045683685E+02  0.00000000000E+00 0. -1.
         11    1    4    4    0    0 -0.38025981793E+01  0.43455919605E+01 -0.21292547790E+01  0.61544819908E+01  0.51100000000E-03 0. -1.
        -11    1    4    4    0    0 -0.39288691267E+01  0.31001599180E+02 -0.20040775228E+02  0.37123682957E+02  0.51100000000E-03 0.  1.
         12    1    4    4    0    0  0.50657531656E+00  0.26829147348E+01 -0.86528205021E+00  0.28641513668E+01  0.00000000000E+00 0. -1.
</event>
<event>
 8    1  0.2882335E-009  0.9118800E+02  0.7816164E-02  0.1184000E+00
        -11   -1    0    0    0    0  0.00000000000E+00  0.00000000000E+00  0.45593999997E+02  0.45594000000E+02  0.51100000000E-03 0. -1.
         11   -1    0    0    0    0 -0.00000000000E+00 -0.00000000000E+00 -0.45593999997E+02  0.45594000000E+02  0.51100000000E-03 0.  1.
         23    2    1    2    0    0 -0.22204460493E-15  0.22204460493E-15  0.71054273576E-14  0.91188000000E+02  0.91188000000E+02 0.  0.
    9900012    2    3    3    0    0 -0.11980086566E+01 -0.13805890348E+01 -0.45008580495E+02  0.46142316866E+02  0.99999918417E+01 0.  0.
         12    1    3    3    0    0  0.11980086566E+01  0.13805890348E+01  0.45008580495E+02  0.45045683134E+02  0.00000000000E+00 0. -1.
         11    1    4    4    0    0 -0.15997452712E+01 -0.14601643323E+01 -0.11978959474E+02  0.12173197409E+02  0.51100000000E-03 0.  1.
        -11    1    4    4    0    0  0.40505918854E+01 -0.75962106333E+00 -0.19517263506E+02  0.19947628777E+02  0.51100000000E-03 0. -1.
        -12    1    4    4    0    0 -0.36488552708E+01  0.83919636088E+00 -0.13512357514E+02  0.14021490681E+02  0.00000000000E+00 0.  1.
</event>
<event>
 8    1  0.2882335E-009  0.9118800E+02  0.7816164E-02  0.1184000E+00
        -11   -1    0    0    0    0  0.00000000000E+00  0.00000000000E+00  0.45593999997E+02  0.45594000000E+02  0.51100000000E-03 0. -1.
         11   -1    0    0    0    0 -0.00000000000E+00 -0.00000000000E+00 -0.45593999997E+02  0.45594000000E+02  0.51100000000E-03 0.  1.
         23    2    1    2    0    0  0.00000000000E+00  0.88817841970E-15 -0.14210854715E-13  0.91188000000E+02  0.91188000000E+02 0.  0.
    9900012    2    3    3    0    0  0.44615899328E+01 -0.36073927611E+01  0.44678791976E+02  0.46142317414E+02  0.99999968304E+01 0.  0.
        -12    1    3    3    0    0 -0.44615899328E+01  0.36073927611E+01 -0.44678791976E+02  0.45045682586E+02  0.00000000000E+00 0.  1.
         11    1    4    4    0    0  0.35317887978E+01 -0.22809384000E+01  0.13596740628E+02  0.14231920744E+02  0.51100000000E-03 0. -1.
        -11    1    4    4    0    0 -0.87711848743E+00 -0.93038484557E+00  0.29344997133E+02  0.29372841364E+02  0.51100000000E-03 0.  1.
        -12    1    4    4    0    0  0.18069196224E+01 -0.39606951559E+00  0.17370542150E+01  0.25375553056E+01  0.00000000000E+00 0.  1.
</event>
<event>
 8    1  0.2882335E-009  0.9118800E+02  0.7816164E-02  0.1184000E+00
        -11   -1    0    0    0    0  0.00000000000E+00  0.00000000000E+00  0.45593999997E+02  0.45594000000E+02  0.51100000000E-03 0. -1.
         11   -1    0    0    0    0 -0.00000000000E+00 -0.00000000000E+00 -0.45593999997E+02  0.45594000000E+02  0.51100000000E-03 0.  1.
         23    2    1    2    0    0 -0.17763568394E-14  0.00000000000E+00  0.00000000000E+00  0.91188000000E+02  0.91188000000E+02 0.  0.
    9900012    2    3    3    0    0  0.99772997278E+01 -0.15210387238E+02  0.41209356662E+02  0.46142318006E+02  0.10000002235E+02 0.  0.
        -12    1    3    3    0    0 -0.99772997278E+01  0.15210387238E+02 -0.41209356662E+02  0.45045681994E+02  0.00000000000E+00 0.  1.
         11    1    4    4    0    0  0.27592508022E+00 -0.71047396198E+01  0.11748680790E+02  0.13732623941E+02  0.51100000000E-03 0. -1.
        -11    1    4    4    0    0  0.36459361349E+01 -0.35250513125E+00  0.84661841292E+01  0.92246075330E+01  0.51100000000E-03 0.  1.
        -12    1    4    4    0    0  0.60554385126E+01 -0.77531424868E+01  0.20994491742E+02  0.23185086533E+02  0.00000000000E+00 0.  1.
</event>
<event>
 8    1  0.2882335E-009  0.9118800E+02  0.7816164E-02  0.1184000E+00
        -11   -1    0    0    0    0  0.00000000000E+00  0.00000000000E+00  0.45593999997E+02  0.45594000000E+02  0.51100000000E-03 0. -1.
         11   -1    0    0    0    0 -0.00000000000E+00 -0.00000000000E+00 -0.45593999997E+02  0.45594000000E+02  0.51100000000E-03 0.  1.
         23    2    1    2    0    0  0.17763568394E-14  0.35527136788E-14  0.00000000000E+00  0.91188000000E+02  0.91188000000E+02 0.  0.
    9900012    2    3    3    0    0 -0.75332749159E+01 -0.25451478814E+02  0.36394854524E+02  0.46142318291E+02  0.10000004832E+02 0.  0.
        -12    1    3    3    0    0  0.75332749159E+01  0.25451478814E+02 -0.36394854524E+02  0.45045681709E+02  0.00000000000E+00 0.  1.
         11    1    4    4    0    0 -0.25705157488E+01 -0.12780972271E+02  0.18145175932E+02  0.22342967871E+02  0.51100000000E-03 0. -1.
        -11    1    4    4    0    0 -0.67359960800E+01 -0.10177569681E+02  0.14961585943E+02  0.19308175004E+02  0.51100000000E-03 0.  1.
        -12    1    4    4    0    0  0.17732369129E+01 -0.24929368628E+01  0.32880926492E+01  0.44911754164E+01  0.00000000000E+00 0.  1.
</event>
<event>
 8    1  0.2882335E-009  0.9118800E+02  0.7816164E-02  0.1184000E+00
        -11   -1    0    0    0    0  0.00000000000E+00  0.00000000000E+00  0.45593999997E+02  0.45594000000E+02  0.51100000000E-03 0. -1.
         11   -1    0    0    0    0 -0.00000000000E+00 -0.00000000000E+00 -0.45593999997E+02  0.45594000000E+02  0.51100000000E-03 0.  1.
         23    2    1    2    0    0  0.00000000000E+00  0.35527136788E-14  0.00000000000E+00  0.91188000000E+02  0.91188000000E+02 0.  0.
    9900012    2    3    3    0    0 -0.23359306786E+02 -0.25519222312E+02 -0.28848322779E+02  0.46142315988E+02  0.99999838306E+01 0.  0.
         12    1    3    3    0    0  0.23359306786E+02  0.25519222312E+02  0.28848322779E+02  0.45045684012E+02  0.00000000000E+00 0. -1.
         11    1    4    4    0    0 -0.16715173107E+02 -0.21393629175E+02 -0.25396780045E+02  0.37176347564E+02  0.51100000000E-03 0. -1.
        -11    1    4    4    0    0 -0.42559852635E+01 -0.18011999211E+01 -0.32055085457E+01  0.56243236942E+01  0.51100000000E-03 0.  1.
         12    1    4    4    0    0 -0.23881484159E+01 -0.23243932156E+01 -0.24603418827E+00  0.33416447296E+01  0.00000000000E+00 0. -1.
</event>
<event>
 8    1  0.2882335E-009  0.9118800E+02  0.7816164E-02  0.1184000E+00
        -11   -1    0    0    0    0  0.00000000000E+00  0.00000000000E+00  0.45593999997E+02  0.45594000000E+02  0.51100000000E-03 0. -1.
         11   -1    0    0    0    0 -0.00000000000E+00 -0.00000000000E+00 -0.45593999997E+02  0.45594000000E+02  0.51100000000E-03 0.  1.
         23    2    1    2    0    0 -0.44408920985E-15  0.00000000000E+00  0.00000000000E+00  0.91188000000E+02  0.91188000000E+02 0.  0.
    9900012    2    3    3    0    0  0.21887540056E+01 -0.12802393876E+02  0.43132605680E+02  0.46142316458E+02  0.99999881158E+01 0.  0.
        -12    1    3    3    0    0 -0.21887540056E+01  0.12802393876E+02 -0.43132605680E+02  0.45045683542E+02  0.00000000000E+00 0.  1.
         11    1    4    4    0    0  0.26465852899E+01 -0.70084380638E+01  0.17095009688E+02  0.18664457514E+02  0.51100000000E-03 0. -1.
        -11    1    4    4    0    0  0.64511770532E+00 -0.38690856455E+01  0.51545095293E+01  0.64772655754E+01  0.51100000000E-03 0.  1.
        -12    1    4    4    0    0 -0.11029489896E+01 -0.19248701665E+01  0.20883086462E+02  0.21000593369E+02  0.00000000000E+00 0.  1.
</event>
<event>
 8    1  0.2882335E-009  0.9118800E+02  0.7816164E-02  0.1184000E+00
        -11   -1    0    0    0    0  0.00000000000E+00  0.00000000000E+00  0.45593999997E+02  0.45594000000E+02  0.51100000000E-03 0. -1.
         11   -1    0    0    0    0 -0.00000000000E+00 -0.00000000000E+00 -0.45593999997E+02  0.45594000000E+02  0.51100000000E-03 0.  1.
         23    2    1    2    0    0  0.00000000000E+00 -0.17763568394E-14  0.71054273576E-14  0.91188000000E+02  0.91188000000E+02 0.  0.
    9900012    2    3    3    0    0  0.82205513039E+01  0.99186939382E+01 -0.43164284791E+02  0.46142318357E+02  0.10000005433E+02 0.  0.
         12    1    3    3    0    0 -0.82205513039E+01 -0.99186939382E+01  0.43164284791E+02  0.45045681643E+02  0.00000000000E+00 0. -1.
         11    1    4    4    0    0  0.80729022017E+01  0.37875745238E+01 -0.18368597542E+02  0.20418688662E+02  0.51100000000E-03 0. -1.
        -11    1    4    4    0    0 -0.14262085042E+01  0.27884572354E+01 -0.12364909165E+02  0.12755412317E+02  0.51100000000E-03 0.  1.
        -12    1    4    4    0    0  0.15738576064E+01  0.33426621790E+01 -0.12430778084E+02  0.12968217378E+02  0.00000000000E+00 0.  1.
</event>
<event>
 8    1  0.2882335E-009  0.9118800E+02  0.7816164E-02  0.1184000E+00
        -11   -1    0    0    0    0  0.00000000000E+00  0.00000000000E+00  0.45593999997E+02  0.45594000000E+02  0.51100000000E-03 0. -1.
         11   -1    0    0    0    0 -0.00000000000E+00 -0.00000000000E+00 -0.45593999997E+02  0.45594000000E+02  0.51100000000E-03 0.  1.
         23    2    1    2    0    0  0.00000000000E+00  0.00000000000E+00  0.00000000000E+00  0.91188000000E+02  0.91188000000E+02 0.  0.
    9900012    2    3    3    0    0 -0.52797165786E+01 -0.26275554869E+02 -0.36205430555E+02  0.46142318826E+02  0.10000009709E+02 0.  0.
         12    1    3    3    0    0  0.52797165786E+01  0.26275554869E+02  0.36205430555E+02  0.45045681174E+02  0.00000000000E+00 0. -1.
         11    1    4    4    0    0 -0.34356060588E+01 -0.51582529130E+01 -0.65013153963E+01  0.89820968737E+01  0.51100000000E-03 0. -1.
        -11    1    4    4    0    0  0.19664150599E+01 -0.13831283834E+02 -0.20627361582E+02  0.24913033673E+02  0.51100000000E-03 0.  1.
        -12    1    4    4    0    0 -0.38105255797E+01 -0.72860181221E+01 -0.90767535761E+01  0.12247188279E+02  0.00000000000E+00 0.  1.
</event>
<event>
 8    1  0.2882335E-009  0.9118800E+02  0.7816164E-02  0.1184000E+00
        -11   -1    0    0    0    0  0.00000000000E+00  0.00000000000E+00  0.45593999997E+02  0.45594000000E+02  0.51100000000E-03 0. -1.
         11   -1    0    0    0    0 -0.00000000000E+00 -0.00000000000E+00 -0.45593999997E+02  0.45594000000E+02  0.51100000000E-03 0.  1.
         23    2    1    2    0    0  0.00000000000E+00  0.00000000000E+00  0.00000000000E+00  0.91188000000E+02  0.91188000000E+02 0.  0.
    9900012    2    3    3    0    0 -0.24405481183E+01  0.15749486457E+02  0.42132064510E+02  0.46142318091E+02  0.10000003005E+02 0.  0.
        -12    1    3    3    0    0  0.24405481183E+01 -0.15749486457E+02 -0.42132064510E+02  0.45045681909E+02  0.00000000000E+00 0.  1.
         11    1    4    4    0    0 -0.29644026627E+01  0.53314264890E+01  0.72188181063E+01  0.94510912951E+01  0.51100000000E-03 0. -1.
        -11    1    4    4    0    0  0.54486593523E+00  0.65437671771E+01  0.14555707836E+02  0.15968293541E+02  0.51100000000E-03 0.  1.
         12    1    4    4    0    0 -0.21011390849E-01  0.38742927908E+01  0.20357538568E+02  0.20722933254E+02  0.00000000000E+00 0. -1.
</event>
<event>
 8    1  0.2882335E-009  0.9118800E+02  0.7816164E-02  0.1184000E+00
        -11   -1    0    0    0    0  0.00000000000E+00  0.00000000000E+00  0.45593999997E+02  0.45594000000E+02  0.51100000000E-03 0. -1.
         11   -1    0    0    0    0 -0.00000000000E+00 -0.00000000000E+00 -0.45593999997E+02  0.45594000000E+02  0.51100000000E-03 0.  1.
         23    2    1    2    0    0  0.00000000000E+00  0.00000000000E+00  0.00000000000E+00  0.91188000000E+02  0.91188000000E+02 0.  0.
    9900012    2    3    3    0    0  0.50728513071E+00  0.12290561070E+02  0.43333577829E+02  0.46142309894E+02  0.99999282617E+01 0.  0.
        -12    1    3    3    0    0 -0.50728513071E+00 -0.12290561070E+02 -0.43333577829E+02  0.45045690106E+02  0.00000000000E+00 0.  1.
         11    1    4    4    0    0  0.14432022019E-01  0.66507714789E+01  0.12701233552E+02  0.14337165115E+02  0.51100000000E-03 0. -1.
        -11    1    4    4    0    0 -0.16452327351E+00  0.34486676087E+01  0.28399046774E+02  0.28608149785E+02  0.51100000000E-03 0.  1.
        -12    1    4    4    0    0  0.65737638220E+00  0.21911219827E+01  0.22332975038E+01  0.31969949939E+01  0.00000000000E+00 0.  1.
</event>
<event>
 8    1  0.2882335E-009  0.9118800E+02  0.7816164E-02  0.1184000E+00
        -11   -1    0    0    0    0  0.00000000000E+00  0.00000000000E+00  0.45593999997E+02  0.45594000000E+02  0.51100000000E-03 0. -1.
         11   -1    0    0    0    0 -0.00000000000E+00 -0.00000000000E+00 -0.45593999997E+02  0.45594000000E+02  0.51100000000E-03 0.  1.
         23    2    1    2    0    0  0.00000000000E+00  0.00000000000E+00  0.00000000000E+00  0.91188000000E+02  0.91188000000E+02 0.  0.
    9900012    2    3    3    0    0 -0.19105603296E+02 -0.14311768140E+02 -0.38200297365E+02  0.46142317594E+02  0.99999984774E+01 0.  0.
         12    1    3    3    0    0  0.19105603296E+02  0.14311768140E+02  0.38200297365E+02  0.45045682406E+02  0.00000000000E+00 0. -1.
         11    1    4    4    0    0 -0.58175767209E+01 -0.11755204577E+01 -0.87655697594E+01  0.10585899145E+02  0.51100000000E-03 0. -1.
        -11    1    4    4    0    0 -0.79482113304E+01 -0.94437572057E+01 -0.13201586380E+02  0.18073198298E+02  0.51100000000E-03 0.  1.
        -12    1    4    4    0    0 -0.53398152447E+01 -0.36924904767E+01 -0.16233141226E+02  0.17483220151E+02  0.00000000000E+00 0.  1.
</event>
<event>
 8    1  0.2882335E-009  0.9118800E+02  0.7816164E-02  0.1184000E+00
        -11   -1    0    0    0    0  0.00000000000E+00  0.00000000000E+00  0.45593999997E+02  0.45594000000E+02  0.51100000000E-03 0. -1.
         11   -1    0    0    0    0 -0.00000000000E+00 -0.00000000000E+00 -0.45593999997E+02  0.45594000000E+02  0.51100000000E-03 0.  1.
         23    2    1    2    0    0  0.00000000000E+00 -0.35527136788E-14 -0.35527136788E-14  0.91188000000E+02  0.91188000000E+02 0.  0.
    9900012    2    3    3    0    0 -0.30993409633E+02 -0.26217648005E+02  0.19523244646E+02  0.46142316643E+02  0.99999898073E+01 0.  0.
        -12    1    3    3    0    0  0.30993409633E+02  0.26217648005E+02 -0.19523244646E+02  0.45045683357E+02  0.00000000000E+00 0.  1.
         11    1    4    4    0    0 -0.16237522210E+02 -0.13851472689E+02  0.53559815754E+01  0.22004703180E+02  0.51100000000E-03 0. -1.
        -11    1    4    4    0    0 -0.95581014136E+01 -0.77048826959E+01  0.10948279583E+02  0.16449539388E+02  0.51100000000E-03 0.  1.
         12    1    4    4    0    0 -0.51977860093E+01 -0.46612926204E+01  0.32189834875E+01  0.76880740751E+01  0.00000000000E+00 0. -1.
</event>
<event>
 8    1  0.2882335E-009  0.9118800E+02  0.7816164E-02  0.1184000E+00
        -11   -1    0    0    0    0  0.00000000000E+00  0.00000000000E+00  0.45593999997E+02  0.45594000000E+02  0.51100000000E-03 0. -1.
         11   -1    0    0    0    0 -0.00000000000E+00 -0.00000000000E+00 -0.45593999997E+02  0.45594000000E+02  0.51100000000E-03 0.  1.
         23    2    1    2    0    0  0.00000000000E+00 -0.35527136788E-14  0.00000000000E+00  0.91188000000E+02  0.91188000000E+02 0.  0.
    9900012    2    3    3    0    0  0.67549504734E+01  0.24835797567E+02 -0.36968463012E+02  0.46142318141E+02  0.10000003462E+02 0.  0.
         12    1    3    3    0    0 -0.67549504734E+01 -0.24835797567E+02  0.36968463012E+02  0.45045681859E+02  0.00000000000E+00 0. -1.
         11    1    4    4    0    0  0.81224717698E+00  0.13720360846E+01 -0.34735197500E+01  0.38219848520E+01  0.51100000000E-03 0. -1.
        -11    1    4    4    0    0  0.70728217249E+01  0.10669392112E+02 -0.13953540597E+02  0.18935734225E+02  0.51100000000E-03 0.  1.
        -12    1    4    4    0    0 -0.11301184284E+01  0.12794369370E+02 -0.19541402665E+02  0.23384599063E+02  0.00000000000E+00 0.  1.
</event>
<event>
 8    1  0.2882335E-009  0.9118800E+02  0.7816164E-02  0.1184000E+00
        -11   -1    0    0    0    0  0.00000000000E+00  0.00000000000E+00  0.45593999997E+02  0.45594000000E+02  0.51100000000E-03 0.  1.
         11   -1    0    0    0    0 -0.00000000000E+00 -0.00000000000E+00 -0.45593999997E+02  0.45594000000E+02  0.51100000000E-03 0. -1.
         23    2    1    2    0    0 -0.17763568394E-14  0.00000000000E+00 -0.19081958236E-15  0.91188000000E+02  0.91188000000E+02 0.  0.
    9900012    2    3    3    0    0 -0.90927912295E+01  0.44118412630E+02  0.17292743578E-01  0.46142317806E+02  0.10000000407E+02 0.  0.
         12    1    3    3    0    0  0.90927912295E+01 -0.44118412630E+02 -0.17292743578E-01  0.45045682194E+02  0.00000000000E+00 0. -1.
         11    1    4    4    0    0 -0.28965778691E+00 -0.42940519627E-01 -0.34046826068E+00  0.44907061739E+00  0.51100000000E-03 0. -1.
        -11    1    4    4    0    0 -0.65267041841E+01  0.16939147061E+02  0.23448472372E+01  0.18303848762E+02  0.51100000000E-03 0.  1.
        -12    1    4    4    0    0 -0.22764292586E+01  0.27222206088E+02 -0.19870862329E+01  0.27389398427E+02  0.00000000000E+00 0.  1.
</event>
<event>
 8    1  0.2882335E-009  0.9118800E+02  0.7816164E-02  0.1184000E+00
        -11   -1    0    0    0    0  0.00000000000E+00  0.00000000000E+00  0.45593999997E+02  0.45594000000E+02  0.51100000000E-03 0. -1.
         11   -1    0    0    0    0 -0.00000000000E+00 -0.00000000000E+00 -0.45593999997E+02  0.45594000000E+02  0.51100000000E-03 0.  1.
         23    2    1    2    0    0 -0.44408920985E-15  0.00000000000E+00  0.00000000000E+00  0.91188000000E+02  0.91188000000E+02 0.  0.
    9900012    2    3    3    0    0 -0.36122458868E+01 -0.14685583159E+02  0.42431105347E+02  0.46142319030E+02  0.10000011569E+02 0.  0.
        -12    1    3    3    0    0  0.36122458868E+01  0.14685583159E+02 -0.42431105347E+02  0.45045680970E+02  0.00000000000E+00 0.  1.
         11    1    4    4    0    0 -0.19480760231E+01 -0.96846315237E+01  0.34206209902E+02  0.35604099259E+02  0.51100000000E-03 0. -1.
        -11    1    4    4    0    0 -0.20556336107E+01 -0.20546307809E+01  0.64545239647E+01  0.70787016507E+01  0.51100000000E-03 0.  1.
         12    1    4    4    0    0  0.39146374703E+00 -0.29463208546E+01  0.17703714811E+01  0.34595181203E+01  0.00000000000E+00 0. -1.
</event>
<event>
 8    1  0.2882335E-009  0.9118800E+02  0.7816164E-02  0.1184000E+00
        -11   -1    0    0    0    0  0.00000000000E+00  0.00000000000E+00  0.45593999997E+02  0.45594000000E+02  0.51100000000E-03 0. -1.
         11   -1    0    0    0    0 -0.00000000000E+00 -0.00000000000E+00 -0.45593999997E+02  0.45594000000E+02  0.51100000000E-03 0.  1.
         23    2    1    2    0    0 -0.88817841970E-15  0.00000000000E+00  0.00000000000E+00  0.91188000000E+02  0.91188000000E+02 0.  0.
    9900012    2    3    3    0    0  0.57408284151E+01  0.20983503815E+02  0.39444251466E+02  0.46142317444E+02  0.99999971054E+01 0.  0.
        -12    1    3    3    0    0 -0.57408284151E+01 -0.20983503815E+02 -0.39444251466E+02  0.45045682556E+02  0.00000000000E+00 0.  1.
         11    1    4    4    0    0  0.22168266964E+01  0.82073902648E+00  0.81952680400E+01  0.85293816693E+01  0.51100000000E-03 0. -1.
        -11    1    4    4    0    0 -0.40958527920E+00  0.71362250776E+01  0.85128424379E+01  0.11115842527E+02  0.51100000000E-03 0.  1.
         12    1    4    4    0    0  0.39335869979E+01  0.13026539711E+02  0.22736140988E+02  0.26497093247E+02  0.00000000000E+00 0. -1.
</event>
<event>
 8    1  0.2882335E-009  0.9118800E+02  0.7816164E-02  0.1184000E+00
        -11   -1    0    0    0    0  0.00000000000E+00  0.00000000000E+00  0.45593999997E+02  0.45594000000E+02  0.51100000000E-03 0. -1.
         11   -1    0    0    0    0 -0.00000000000E+00 -0.00000000000E+00 -0.45593999997E+02  0.45594000000E+02  0.51100000000E-03 0.  1.
         23    2    1    2    0    0  0.00000000000E+00  0.00000000000E+00  0.00000000000E+00  0.91188000000E+02  0.91188000000E+02 0.  0.
    9900012    2    3    3    0    0  0.44448545212E+02  0.52357137064E+01  0.51017338682E+01  0.46142316989E+02  0.99999929623E+01 0.  0.
        -12    1    3    3    0    0 -0.44448545212E+02 -0.52357137064E+01 -0.51017338682E+01  0.45045683011E+02  0.00000000000E+00 0.  1.
         11    1    4    4    0    0  0.12515817846E+02  0.50491510917E+01  0.28047337273E+01  0.13784272003E+02  0.51100000000E-03 0. -1.
        -11    1    4    4    0    0  0.26952765103E+02  0.53522773250E+00  0.36032598392E+01  0.27197821552E+02  0.51100000000E-03 0.  1.
         12    1    4    4    0    0  0.49799622620E+01 -0.34866511786E+00 -0.13062596983E+01  0.51602234346E+01  0.00000000000E+00 0. -1.
</event>
<event>
 8    1  0.2882335E-009  0.9118800E+02  0.7816164E-02  0.1184000E+00
        -11   -1    0    0    0    0  0.00000000000E+00  0.00000000000E+00  0.45593999997E+02  0.45594000000E+02  0.51100000000E-03 0. -1.
         11   -1    0    0    0    0 -0.00000000000E+00 -0.00000000000E+00 -0.45593999997E+02  0.45594000000E+02  0.51100000000E-03 0.  1.
         23    2    1    2    0    0 -0.88817841970E-15  0.35527136788E-14  0.00000000000E+00  0.91188000000E+02  0.91188000000E+02 0.  0.
    9900012    2    3    3    0    0 -0.78339905896E+01  0.19227900391E+02  0.39975378816E+02  0.46142306826E+02  0.99999002864E+01 0.  0.
        -12    1    3    3    0    0  0.78339905896E+01 -0.19227900391E+02 -0.39975378816E+02  0.45045693174E+02  0.00000000000E+00 0.  1.
         11    1    4    4    0    0 -0.35045079124E+01  0.50058285121E+01  0.61474470405E+01  0.86678140369E+01  0.51100000000E-03 0. -1.
        -11    1    4    4    0    0 -0.31530836065E-01  0.13214628335E+00 -0.28561730941E+00  0.31628206143E+00  0.51100000000E-03 0.  1.
         12    1    4    4    0    0 -0.42979518411E+01  0.14089925596E+02  0.34113549085E+02  0.37158210728E+02  0.00000000000E+00 0. -1.
</event>
<event>
 8    1  0.2882335E-009  0.9118800E+02  0.7816164E-02  0.1184000E+00
        -11   -1    0    0    0    0  0.00000000000E+00  0.00000000000E+00  0.45593999997E+02  0.45594000000E+02  0.51100000000E-03 0. -1.
         11   -1    0    0    0    0 -0.00000000000E+00 -0.00000000000E+00 -0.45593999997E+02  0.45594000000E+02  0.51100000000E-03 0.  1.
         23    2    1    2    0    0 -0.35527136788E-14 -0.35527136788E-14  0.35527136788E-14  0.91188000000E+02  0.91188000000E+02 0.  0.
    9900012    2    3    3    0    0 -0.29599953368E+02 -0.21574399877E+02  0.26220253383E+02  0.46142315890E+02  0.99999829370E+01 0.  0.
        -12    1    3    3    0    0  0.29599953368E+02  0.21574399877E+02 -0.26220253383E+02  0.45045684110E+02  0.00000000000E+00 0.  1.
         11    1    4    4    0    0 -0.13241025595E+02 -0.79467103131E+01  0.96054445909E+01  0.18186245618E+02  0.51100000000E-03 0. -1.
        -11    1    4    4    0    0 -0.11602913394E+02 -0.10550849513E+02  0.15749250562E+02  0.22225816481E+02  0.51100000000E-03 0.  1.
        -12    1    4    4    0    0 -0.47560143789E+01 -0.30768400505E+01  0.86555822998E+00  0.57302537918E+01  0.00000000000E+00 0.  1.
</event>
<event>
 8    1  0.2882335E-009  0.9118800E+02  0.7816164E-02  0.1184000E+00
        -11   -1    0    0    0    0  0.00000000000E+00  0.00000000000E+00  0.45593999997E+02  0.45594000000E+02  0.51100000000E-03 0. -1.
         11   -1    0    0    0    0 -0.00000000000E+00 -0.00000000000E+00 -0.45593999997E+02  0.45594000000E+02  0.51100000000E-03 0.  1.
         23    2    1    2    0    0 -0.35527136788E-14  0.35527136788E-14 -0.35527136788E-14  0.91188000000E+02  0.91188000000E+02 0.  0.
    9900012    2    3    3    0    0 -0.20701343599E+02  0.30094594207E+02 -0.26360637850E+02  0.46142318130E+02  0.10000003360E+02 0.  0.
         12    1    3    3    0    0  0.20701343599E+02 -0.30094594207E+02  0.26360637850E+02  0.45045681870E+02  0.00000000000E+00 0. -1.
         11    1    4    4    0    0 -0.35883688715E-01  0.14545738078E+01  0.47638606427E+00  0.15310181399E+01  0.51100000000E-03 0. -1.
        -11    1    4    4    0    0 -0.75022217401E+01  0.12569529897E+02 -0.13586680274E+02  0.19971837522E+02  0.51100000000E-03 0.  1.
        -12    1    4    4    0    0 -0.13163238171E+02  0.16070490502E+02 -0.13250343640E+02  0.24639462467E+02  0.00000000000E+00 0.  1.
</event>
<event>
 8    1  0.2882335E-009  0.9118800E+02  0.7816164E-02  0.1184000E+00
        -11   -1    0    0    0    0  0.00000000000E+00  0.00000000000E+00  0.45593999997E+02  0.45594000000E+02  0.51100000000E-03 0. -1.
         11   -1    0    0    0    0 -0.00000000000E+00 -0.00000000000E+00 -0.45593999997E+02  0.45594000000E+02  0.51100000000E-03 0.  1.
         23    2    1    2    0    0  0.00000000000E+00  0.00000000000E+00  0.00000000000E+00  0.91188000000E+02  0.91188000000E+02 0.  0.
    9900012    2    3    3    0    0  0.26971922342E+02 -0.32509028644E+02 -0.15645835600E+02  0.46142315303E+02  0.99999775850E+01 0.  0.
         12    1    3    3    0    0 -0.26971922342E+02  0.32509028644E+02  0.15645835600E+02  0.45045684697E+02  0.00000000000E+00 0. -1.
         11    1    4    4    0    0  0.12045207219E+00 -0.14315409819E+01  0.53361085340E+00  0.15325009261E+01  0.51100000000E-03 0. -1.
        -11    1    4    4    0    0  0.13639516588E+02 -0.11052842831E+02 -0.60557559879E+01  0.18570781574E+02  0.51100000000E-03 0.  1.
        -12    1    4    4    0    0  0.13211953682E+02 -0.20024644831E+02 -0.10123690465E+02  0.26039032803E+02  0.00000000000E+00 0.  1.
</event>
<event>
 8    1  0.2882335E-009  0.9118800E+02  0.7816164E-02  0.1184000E+00
        -11   -1    0    0    0    0  0.00000000000E+00  0.00000000000E+00  0.45593999997E+02  0.45594000000E+02  0.51100000000E-03 0. -1.
         11   -1    0    0    0    0 -0.00000000000E+00 -0.00000000000E+00 -0.45593999997E+02  0.45594000000E+02  0.51100000000E-03 0.  1.
         23    2    1    2    0    0  0.00000000000E+00 -0.35527136788E-14  0.00000000000E+00  0.91188000000E+02  0.91188000000E+02 0.  0.
    9900012    2    3    3    0    0 -0.22051698048E+02 -0.29502334179E+02 -0.25931608730E+02  0.46142318297E+02  0.10000004884E+02 0.  0.
         12    1    3    3    0    0  0.22051698048E+02  0.29502334179E+02  0.25931608730E+02  0.45045681703E+02  0.00000000000E+00 0. -1.
         11    1    4    4    0    0 -0.43624882452E+01 -0.89638845181E+01 -0.95902924521E+01  0.13833157229E+02  0.51100000000E-03 0. -1.
        -11    1    4    4    0    0 -0.15022247261E+02 -0.20158270144E+02 -0.14242540985E+02  0.28894181801E+02  0.51100000000E-03 0.  1.
         12    1    4    4    0    0 -0.26669625417E+01 -0.38017951662E+00 -0.20987752926E+01  0.34149792667E+01  0.00000000000E+00 0. -1.
</event>
<event>
 8    1  0.2882335E-009  0.9118800E+02  0.7816164E-02  0.1184000E+00
        -11   -1    0    0    0    0  0.00000000000E+00  0.00000000000E+00  0.45593999997E+02  0.45594000000E+02  0.51100000000E-03 0. -1.
         11   -1    0    0    0    0 -0.00000000000E+00 -0.00000000000E+00 -0.45593999997E+02  0.45594000000E+02  0.51100000000E-03 0.  1.
         23    2    1    2    0    0 -0.35527136788E-14 -0.35527136788E-14  0.00000000000E+00  0.91188000000E+02  0.91188000000E+02 0.  0.
    9900012    2    3    3    0    0 -0.19271505209E+02 -0.19820040923E+02 -0.35565272608E+02  0.46142317067E+02  0.99999936717E+01 0.  0.
         12    1    3    3    0    0  0.19271505209E+02  0.19820040923E+02  0.35565272608E+02  0.45045682933E+02  0.00000000000E+00 0. -1.
         11    1    4    4    0    0  0.47329432750E+00 -0.40316349471E+00 -0.16121502752E+01  0.17278822572E+01  0.51100000000E-03 0. -1.
        -11    1    4    4    0    0 -0.10789798666E+02 -0.58560964602E+01 -0.12744201956E+02  0.17695431748E+02  0.51100000000E-03 0.  1.
        -12    1    4    4    0    0 -0.89550008706E+01 -0.13560780968E+02 -0.21208920377E+02  0.26719003062E+02  0.00000000000E+00 0.  1.
</event>
<event>
 8    1  0.2882335E-009  0.9118800E+02  0.7816164E-02  0.1184000E+00
        -11   -1    0    0    0    0  0.00000000000E+00  0.00000000000E+00  0.45593999997E+02  0.45594000000E+02  0.51100000000E-03 0. -1.
         11   -1    0    0    0    0 -0.00000000000E+00 -0.00000000000E+00 -0.45593999997E+02  0.45594000000E+02  0.51100000000E-03 0.  1.
         23    2    1    2    0    0  0.88817841970E-15  0.00000000000E+00  0.00000000000E+00  0.91188000000E+02  0.91188000000E+02 0.  0.
    9900012    2    3    3    0    0  0.57931995257E+01  0.21200432504E+02  0.39320389701E+02  0.46142328229E+02  0.10000095454E+02 0.  0.
        -12    1    3    3    0    0 -0.57931995257E+01 -0.21200432504E+02 -0.39320389701E+02  0.45045671771E+02  0.00000000000E+00 0.  1.
         11    1    4    4    0    0  0.69064008709E+00  0.97306790687E+01  0.14382756370E+02  0.17378917686E+02  0.51100000000E-03 0. -1.
        -11    1    4    4    0    0 -0.10210439176E+01 -0.49438235494E-01  0.70327619089E+00  0.12407951010E+01  0.51100000000E-03 0.  1.
        -12    1    4    4    0    0  0.61236033562E+01  0.11519191670E+02  0.24234357140E+02  0.27522615442E+02  0.00000000000E+00 0.  1.
</event>
<event>
 8    1  0.2882335E-009  0.9118800E+02  0.7816164E-02  0.1184000E+00
        -11   -1    0    0    0    0  0.00000000000E+00  0.00000000000E+00  0.45593999997E+02  0.45594000000E+02  0.51100000000E-03 0. -1.
         11   -1    0    0    0    0 -0.00000000000E+00 -0.00000000000E+00 -0.45593999997E+02  0.45594000000E+02  0.51100000000E-03 0.  1.
         23    2    1    2    0    0  0.00000000000E+00  0.00000000000E+00  0.00000000000E+00  0.91188000000E+02  0.91188000000E+02 0.  0.
    9900012    2    3    3    0    0 -0.18405323412E+02  0.25796655772E+02  0.32013906836E+02  0.46142316412E+02  0.99999877011E+01 0.  0.
        -12    1    3    3    0    0  0.18405323412E+02 -0.25796655772E+02 -0.32013906836E+02  0.45045683588E+02  0.00000000000E+00 0.  1.
         11    1    4    4    0    0 -0.72148942184E+01  0.78557698738E+01  0.79256978207E+01  0.13288510266E+02  0.51100000000E-03 0. -1.
        -11    1    4    4    0    0 -0.86242738791E+01  0.17704531856E+02  0.22082363038E+02  0.29588161582E+02  0.51100000000E-03 0.  1.
        -12    1    4    4    0    0 -0.25661553150E+01  0.23635404225E+00  0.20058459780E+01  0.32656445644E+01  0.00000000000E+00 0.  1.
</event>
<event>
 8    1  0.2882335E-009  0.9118800E+02  0.7816164E-02  0.1184000E+00
        -11   -1    0    0    0    0  0.00000000000E+00  0.00000000000E+00  0.45593999997E+02  0.45594000000E+02  0.51100000000E-03 0. -1.
         11   -1    0    0    0    0 -0.00000000000E+00 -0.00000000000E+00 -0.45593999997E+02  0.45594000000E+02  0.51100000000E-03 0.  1.
         23    2    1    2    0    0 -0.35527136788E-14  0.17763568394E-14  0.00000000000E+00  0.91188000000E+02  0.91188000000E+02 0.  0.
    9900012    2    3    3    0    0 -0.23439070645E+02  0.13392143675E+02 -0.36060694095E+02  0.46142320923E+02  0.10000028833E+02 0.  0.
         12    1    3    3    0    0  0.23439070645E+02 -0.13392143675E+02  0.36060694095E+02  0.45045679077E+02  0.00000000000E+00 0. -1.
         11    1    4    4    0    0 -0.52205618118E+01  0.22072869567E+01 -0.25485934003E+01  0.62146367489E+01  0.51100000000E-03 0. -1.
        -11    1    4    4    0    0 -0.62377099420E+01  0.53669393711E+01 -0.15198187878E+02  0.17282881084E+02  0.51100000000E-03 0.  1.
        -12    1    4    4    0    0 -0.11980798891E+02  0.58179173475E+01 -0.18313912816E+02  0.22644803090E+02  0.00000000000E+00 0.  1.
</event>
<event>
 8    1  0.2882335E-009  0.9118800E+02  0.7816164E-02  0.1184000E+00
        -11   -1    0    0    0    0  0.00000000000E+00  0.00000000000E+00  0.45593999997E+02  0.45594000000E+02  0.51100000000E-03 0. -1.
         11   -1    0    0    0    0 -0.00000000000E+00 -0.00000000000E+00 -0.45593999997E+02  0.45594000000E+02  0.51100000000E-03 0.  1.
         23    2    1    2    0    0  0.00000000000E+00  0.00000000000E+00 -0.35527136788E-14  0.91188000000E+02  0.91188000000E+02 0.  0.
    9900012    2    3    3    0    0  0.32070530822E+02  0.23412392307E+02 -0.21270974727E+02  0.46142318447E+02  0.10000006255E+02 0.  0.
         12    1    3    3    0    0 -0.32070530822E+02 -0.23412392307E+02  0.21270974727E+02  0.45045681553E+02  0.00000000000E+00 0. -1.
         11    1    4    4    0    0  0.13001890802E+02  0.65241553099E+01 -0.10434912231E+02  0.17902546200E+02  0.51100000000E-03 0. -1.
        -11    1    4    4    0    0  0.16875049904E+02  0.12111462281E+02 -0.79315295539E+01  0.22234297586E+02  0.51100000000E-03 0.  1.
        -12    1    4    4    0    0  0.21935901168E+01  0.47767747157E+01 -0.29045329422E+01  0.60054746604E+01  0.00000000000E+00 0.  1.
</event>
<event>
 8    1  0.2882335E-009  0.9118800E+02  0.7816164E-02  0.1184000E+00
        -11   -1    0    0    0    0  0.00000000000E+00  0.00000000000E+00  0.45593999997E+02  0.45594000000E+02  0.51100000000E-03 0. -1.
         11   -1    0    0    0    0 -0.00000000000E+00 -0.00000000000E+00 -0.45593999997E+02  0.45594000000E+02  0.51100000000E-03 0.  1.
         23    2    1    2    0    0  0.00000000000E+00  0.35527136788E-14 -0.71054273576E-14  0.91188000000E+02  0.91188000000E+02 0.  0.
    9900012    2    3    3    0    0  0.62495528428E+01 -0.18614494479E+02  0.40540805632E+02  0.46142320554E+02  0.10000025465E+02 0.  0.
        -12    1    3    3    0    0 -0.62495528428E+01  0.18614494479E+02 -0.40540805632E+02  0.45045679446E+02  0.00000000000E+00 0.  1.
         11    1    4    4    0    0  0.10772009063E+01  0.55837502325E-01  0.40042384911E+01  0.41469754972E+01  0.51100000000E-03 0. -1.
        -11    1    4    4    0    0  0.57017801097E+01 -0.70481490621E+01  0.16454182973E+02  0.18786347149E+02  0.51100000000E-03 0.  1.
        -12    1    4    4    0    0 -0.52942817316E+00 -0.11622182919E+02  0.20082384168E+02  0.23208997908E+02  0.00000000000E+00 0.  1.
</event>
<event>
 8    1  0.2882335E-009  0.9118800E+02  0.7816164E-02  0.1184000E+00
        -11   -1    0    0    0    0  0.00000000000E+00  0.00000000000E+00  0.45593999997E+02  0.45594000000E+02  0.51100000000E-03 0.  1.
         11   -1    0    0    0    0 -0.00000000000E+00 -0.00000000000E+00 -0.45593999997E+02  0.45594000000E+02  0.51100000000E-03 0. -1.
         23    2    1    2    0    0 -0.71054273576E-14  0.88817841970E-15  0.00000000000E+00  0.91188000000E+02  0.91188000000E+02 0.  0.
    9900012    2    3    3    0    0  0.44378370228E+02  0.73577189774E+01 -0.23532251083E+01  0.46142318287E+02  0.10000004792E+02 0.  0.
        -12    1    3    3    0    0 -0.44378370228E+02 -0.73577189774E+01  0.23532251083E+01  0.45045681713E+02  0.00000000000E+00 0.  1.
         11    1    4    4    0    0  0.87195073082E+01 -0.18246323572E+01 -0.65455116547E+00  0.89323864911E+01  0.51100000000E-03 0. -1.
        -11    1    4    4    0    0  0.34845572307E+02  0.82288521696E+01 -0.10996797845E+01  0.35820904697E+02  0.51100000000E-03 0.  1.
         12    1    4    4    0    0  0.81329061212E+00  0.95349916498E+00 -0.59899415835E+00  0.13890270981E+01  0.00000000000E+00 0. -1.
</event>
<event>
 8    1  0.2882335E-009  0.9118800E+02  0.7816164E-02  0.1184000E+00
        -11   -1    0    0    0    0  0.00000000000E+00  0.00000000000E+00  0.45593999997E+02  0.45594000000E+02  0.51100000000E-03 0. -1.
         11   -1    0    0    0    0 -0.00000000000E+00 -0.00000000000E+00 -0.45593999997E+02  0.45594000000E+02  0.51100000000E-03 0.  1.
         23    2    1    2    0    0  0.00000000000E+00  0.00000000000E+00  0.00000000000E+00  0.91188000000E+02  0.91188000000E+02 0.  0.
    9900012    2    3    3    0    0 -0.26799469228E+02 -0.16403068177E+02  0.32277564876E+02  0.46142318843E+02  0.10000009870E+02 0.  0.
        -12    1    3    3    0    0  0.26799469228E+02  0.16403068177E+02 -0.32277564876E+02  0.45045681157E+02  0.00000000000E+00 0.  1.
         11    1    4    4    0    0 -0.11355006900E+02 -0.90092796716E+01  0.13818228761E+02  0.20026151609E+02  0.51100000000E-03 0. -1.
        -11    1    4    4    0    0 -0.14918730431E+02 -0.48576409972E+01  0.14371528501E+02  0.21276889469E+02  0.51100000000E-03 0.  1.
        -12    1    4    4    0    0 -0.52573189654E+00 -0.25361475080E+01  0.40878076134E+01  0.48392777657E+01  0.00000000000E+00 0.  1.
</event>
<event>
 8    1  0.2882335E-009  0.9118800E+02  0.7816164E-02  0.1184000E+00
        -11   -1    0    0    0    0  0.00000000000E+00  0.00000000000E+00  0.45593999997E+02  0.45594000000E+02  0.51100000000E-03 0. -1.
         11   -1    0    0    0    0 -0.00000000000E+00 -0.00000000000E+00 -0.45593999997E+02  0.45594000000E+02  0.51100000000E-03 0.  1.
         23    2    1    2    0    0  0.17763568394E-14  0.71054273576E-14  0.00000000000E+00  0.91188000000E+02  0.91188000000E+02 0.  0.
    9900012    2    3    3    0    0 -0.12427108279E+02  0.42846650665E+02 -0.62325740900E+01  0.46142317930E+02  0.10000001540E+02 0.  0.
         12    1    3    3    0    0  0.12427108279E+02 -0.42846650665E+02  0.62325740900E+01  0.45045682070E+02  0.00000000000E+00 0. -1.
         11    1    4    4    0    0 -0.15112314124E+01  0.19458699762E+02 -0.60090756048E+00  0.19526543651E+02  0.51100000000E-03 0. -1.
        -11    1    4    4    0    0 -0.92019535412E+01  0.16887888034E+02 -0.49506016232E+01  0.19859133111E+02  0.51100000000E-03 0.  1.
        -12    1    4    4    0    0 -0.17139233253E+01  0.65000628683E+01 -0.68106490637E+00  0.67566411673E+01  0.00000000000E+00 0.  1.
</event>
<event>
 8    1  0.2882335E-009  0.9118800E+02  0.7816164E-02  0.1184000E+00
        -11   -1    0    0    0    0  0.00000000000E+00  0.00000000000E+00  0.45593999997E+02  0.45594000000E+02  0.51100000000E-03 0. -1.
         11   -1    0    0    0    0 -0.00000000000E+00 -0.00000000000E+00 -0.45593999997E+02  0.45594000000E+02  0.51100000000E-03 0.  1.
         23    2    1    2    0    0  0.00000000000E+00  0.00000000000E+00  0.00000000000E+00  0.91188000000E+02  0.91188000000E+02 0.  0.
    9900012    2    3    3    0    0  0.10744286467E+02 -0.25406213210E+01 -0.43671718154E+02  0.46142318576E+02  0.10000007435E+02 0.  0.
         12    1    3    3    0    0 -0.10744286467E+02  0.25406213210E+01  0.43671718154E+02  0.45045681424E+02  0.00000000000E+00 0. -1.
         11    1    4    4    0    0  0.63419042232E+01 -0.56581287757E+01 -0.21558367238E+02  0.23173203677E+02  0.51100000000E-03 0. -1.
        -11    1    4    4    0    0  0.20447450724E+01  0.10255081159E+01 -0.42184793613E+01  0.47987725191E+01  0.51100000000E-03 0.  1.
         12    1    4    4    0    0  0.23576371711E+01  0.20919993389E+01 -0.17894871555E+02  0.18170342381E+02  0.00000000000E+00 0. -1.
</event>
<event>
 8    1  0.2882335E-009  0.9118800E+02  0.7816164E-02  0.1184000E+00
        -11   -1    0    0    0    0  0.00000000000E+00  0.00000000000E+00  0.45593999997E+02  0.45594000000E+02  0.51100000000E-03 0. -1.
         11   -1    0    0    0    0 -0.00000000000E+00 -0.00000000000E+00 -0.45593999997E+02  0.45594000000E+02  0.51100000000E-03 0.  1.
         23    2    1    2    0    0 -0.35527136788E-14 -0.88817841970E-15 -0.35527136788E-14  0.91188000000E+02  0.91188000000E+02 0.  0.
    9900012    2    3    3    0    0 -0.30865671999E+02 -0.73673294473E+01 -0.31971022680E+02  0.46142317162E+02  0.99999945342E+01 0.  0.
         12    1    3    3    0    0  0.30865671999E+02  0.73673294473E+01  0.31971022680E+02  0.45045682838E+02  0.00000000000E+00 0. -1.
         11    1    4    4    0    0 -0.10130237929E+02 -0.59161066587E+01 -0.12068274826E+02  0.16830487101E+02  0.51100000000E-03 0. -1.
        -11    1    4    4    0    0 -0.75137620789E+01 -0.22560403191E-01 -0.10951489423E+02  0.13281274427E+02  0.51100000000E-03 0.  1.
         12    1    4    4    0    0 -0.13221671991E+02 -0.14286623854E+01 -0.89512584307E+01  0.16030555634E+02  0.00000000000E+00 0. -1.
</event>
<event>
 8    1  0.2882335E-009  0.9118800E+02  0.7816164E-02  0.1184000E+00
        -11   -1    0    0    0    0  0.00000000000E+00  0.00000000000E+00  0.45593999997E+02  0.45594000000E+02  0.51100000000E-03 0. -1.
         11   -1    0    0    0    0 -0.00000000000E+00 -0.00000000000E+00 -0.45593999997E+02  0.45594000000E+02  0.51100000000E-03 0.  1.
         23    2    1    2    0    0 -0.88817841970E-15  0.00000000000E+00  0.00000000000E+00  0.91188000000E+02  0.91188000000E+02 0.  0.
    9900012    2    3    3    0    0 -0.65471746826E+01  0.11694028857E+02  0.43005780801E+02  0.46142323298E+02  0.10000050487E+02 0.  0.
        -12    1    3    3    0    0  0.65471746826E+01 -0.11694028857E+02 -0.43005780801E+02  0.45045676702E+02  0.00000000000E+00 0.  1.
         11    1    4    4    0    0 -0.43546523912E+01  0.69030003066E+01  0.25311862888E+02  0.26595202834E+02  0.51100000000E-03 0. -1.
        -11    1    4    4    0    0  0.11878788289E+01 -0.97958472976E+00  0.23552640625E+01  0.28138783592E+01  0.51100000000E-03 0.  1.
        -12    1    4    4    0    0 -0.33804011203E+01  0.57706132797E+01  0.15338653851E+02  0.16733242104E+02  0.00000000000E+00 0.  1.
</event>
<event>
 8    1  0.2882335E-009  0.9118800E+02  0.7816164E-02  0.1184000E+00
        -11   -1    0    0    0    0  0.00000000000E+00  0.00000000000E+00  0.45593999997E+02  0.45594000000E+02  0.51100000000E-03 0. -1.
         11   -1    0    0    0    0 -0.00000000000E+00 -0.00000000000E+00 -0.45593999997E+02  0.45594000000E+02  0.51100000000E-03 0.  1.
         23    2    1    2    0    0 -0.17763568394E-14 -0.71054273576E-14  0.71054273576E-14  0.91188000000E+02  0.91188000000E+02 0.  0.
    9900012    2    3    3    0    0  0.13771093165E+02  0.22629626035E+02 -0.36433095788E+02  0.46142318185E+02  0.10000003869E+02 0.  0.
         12    1    3    3    0    0 -0.13771093165E+02 -0.22629626035E+02  0.36433095788E+02  0.45045681815E+02  0.00000000000E+00 0. -1.
         11    1    4    4    0    0  0.29435906820E+01  0.13397666575E+02 -0.18833662827E+02  0.23299550457E+02  0.51100000000E-03 0. -1.
        -11    1    4    4    0    0  0.77007893815E+01  0.49426430229E+01 -0.12416495756E+02  0.15424047597E+02  0.51100000000E-03 0.  1.
         12    1    4    4    0    0  0.31267131015E+01  0.42893164375E+01 -0.51829372049E+01  0.74187201315E+01  0.00000000000E+00 0. -1.
</event>
<event>
 8    1  0.2882335E-009  0.9118800E+02  0.7816164E-02  0.1184000E+00
        -11   -1    0    0    0    0  0.00000000000E+00  0.00000000000E+00  0.45593999997E+02  0.45594000000E+02  0.51100000000E-03 0. -1.
         11   -1    0    0    0    0 -0.00000000000E+00 -0.00000000000E+00 -0.45593999997E+02  0.45594000000E+02  0.51100000000E-03 0.  1.
         23    2    1    2    0    0  0.00000000000E+00  0.00000000000E+00  0.00000000000E+00  0.91188000000E+02  0.91188000000E+02 0.  0.
    9900012    2    3    3    0    0 -0.12317356637E+02  0.21877835436E+02 -0.37399953594E+02  0.46142317780E+02  0.10000000169E+02 0.  0.
         12    1    3    3    0    0  0.12317356637E+02 -0.21877835436E+02  0.37399953594E+02  0.45045682220E+02  0.00000000000E+00 0. -1.
         11    1    4    4    0    0 -0.17727866236E+01  0.52212756314E+01 -0.16550777579E+02  0.17445134862E+02  0.51100000000E-03 0. -1.
        -11    1    4    4    0    0 -0.53363537161E+01  0.86828014894E+01 -0.10507570527E+02  0.14638194948E+02  0.51100000000E-03 0.  1.
         12    1    4    4    0    0 -0.52082162969E+01  0.79737583148E+01 -0.10341605488E+02  0.14058987970E+02  0.00000000000E+00 0. -1.
</event>
<event>
 8    1  0.2882335E-009  0.9118800E+02  0.7816164E-02  0.1184000E+00
        -11   -1    0    0    0    0  0.00000000000E+00  0.00000000000E+00  0.45593999997E+02  0.45594000000E+02  0.51100000000E-03 0. -1.
         11   -1    0    0    0    0 -0.00000000000E+00 -0.00000000000E+00 -0.45593999997E+02  0.45594000000E+02  0.51100000000E-03 0.  1.
         23    2    1    2    0    0  0.17763568394E-14  0.00000000000E+00  0.71054273576E-14  0.91188000000E+02  0.91188000000E+02 0.  0.
    9900012    2    3    3    0    0  0.10334000741E+02  0.95538418128E+01  0.42790723942E+02  0.46142317408E+02  0.99999967788E+01 0.  0.
        -12    1    3    3    0    0 -0.10334000741E+02 -0.95538418128E+01 -0.42790723942E+02  0.45045682592E+02  0.00000000000E+00 0.  1.
         11    1    4    4    0    0  0.73755393516E+01  0.10520463687E+02  0.25516886992E+02  0.28569043718E+02  0.51100000000E-03 0. -1.
        -11    1    4    4    0    0  0.10619365592E+01 -0.76904065916E-01  0.76754048612E+01  0.77489007953E+01  0.51100000000E-03 0.  1.
         12    1    4    4    0    0  0.18965248306E+01 -0.88971780862E+00  0.95984320884E+01  0.98243728944E+01  0.00000000000E+00 0. -1.
</event>
<event>
 8    1  0.2882335E-009  0.9118800E+02  0.7816164E-02  0.1184000E+00
        -11   -1    0    0    0    0  0.00000000000E+00  0.00000000000E+00  0.45593999997E+02  0.45594000000E+02  0.51100000000E-03 0. -1.
         11   -1    0    0    0    0 -0.00000000000E+00 -0.00000000000E+00 -0.45593999997E+02  0.45594000000E+02  0.51100000000E-03 0.  1.
         23    2    1    2    0    0  0.00000000000E+00 -0.88817841970E-15  0.00000000000E+00  0.91188000000E+02  0.91188000000E+02 0.  0.
    9900012    2    3    3    0    0  0.16206490681E+02  0.77265895683E+01 -0.41312989877E+02  0.46142315866E+02  0.99999827180E+01 0.  0.
         12    1    3    3    0    0 -0.16206490681E+02 -0.77265895683E+01  0.41312989877E+02  0.45045684134E+02  0.00000000000E+00 0. -1.
         11    1    4    4    0    0  0.50189231857E+01  0.52075535179E+01 -0.87638351201E+01  0.11362790584E+02  0.51100000000E-03 0. -1.
        -11    1    4    4    0    0  0.65361015353E+01  0.34447370193E+01 -0.22155648930E+02  0.23355076882E+02  0.51100000000E-03 0.  1.
         12    1    4    4    0    0  0.46514659595E+01 -0.92570096891E+00 -0.10393505827E+02  0.11424448399E+02  0.00000000000E+00 0. -1.
</event>
<event>
 8    1  0.2882335E-009  0.9118800E+02  0.7816164E-02  0.1184000E+00
        -11   -1    0    0    0    0  0.00000000000E+00  0.00000000000E+00  0.45593999997E+02  0.45594000000E+02  0.51100000000E-03 0. -1.
         11   -1    0    0    0    0 -0.00000000000E+00 -0.00000000000E+00 -0.45593999997E+02  0.45594000000E+02  0.51100000000E-03 0.  1.
         23    2    1    2    0    0  0.00000000000E+00  0.17763568394E-14  0.71054273576E-14  0.91188000000E+02  0.91188000000E+02 0.  0.
    9900012    2    3    3    0    0  0.18062343581E+02  0.81668384719E+01 -0.40449572946E+02  0.46142318101E+02  0.10000003096E+02 0.  0.
         12    1    3    3    0    0 -0.18062343581E+02 -0.81668384719E+01  0.40449572946E+02  0.45045681899E+02  0.00000000000E+00 0. -1.
         11    1    4    4    0    0  0.61773110745E+00 -0.57739543350E+00 -0.53545753787E+01  0.54209274995E+01  0.51100000000E-03 0. -1.
        -11    1    4    4    0    0  0.25213191905E+01  0.41007656094E+00 -0.10256911979E+02  0.10570215554E+02  0.51100000000E-03 0.  1.
        -12    1    4    4    0    0  0.14923293283E+02  0.83341573445E+01 -0.24838085589E+02  0.30151175048E+02  0.00000000000E+00 0.  1.
</event>
<event>
 8    1  0.2882335E-009  0.9118800E+02  0.7816164E-02  0.1184000E+00
        -11   -1    0    0    0    0  0.00000000000E+00  0.00000000000E+00  0.45593999997E+02  0.45594000000E+02  0.51100000000E-03 0. -1.
         11   -1    0    0    0    0 -0.00000000000E+00 -0.00000000000E+00 -0.45593999997E+02  0.45594000000E+02  0.51100000000E-03 0.  1.
         23    2    1    2    0    0  0.71054273576E-14  0.35527136788E-14  0.00000000000E+00  0.91188000000E+02  0.91188000000E+02 0.  0.
    9900012    2    3    3    0    0  0.40829950269E+02  0.19016911683E+02 -0.62104351416E+00  0.46142318032E+02  0.10000002473E+02 0.  0.
        -12    1    3    3    0    0 -0.40829950269E+02 -0.19016911683E+02  0.62104351416E+00  0.45045681968E+02  0.00000000000E+00 0.  1.
         11    1    4    4    0    0  0.22215874727E+02  0.10833923395E+02 -0.21066718279E+00  0.24717673170E+02  0.51100000000E-03 0. -1.
        -11    1    4    4    0    0 -0.54573004976E+00  0.53386995914E+00 -0.21627937647E+00  0.79348311280E+00  0.51100000000E-03 0.  1.
        -12    1    4    4    0    0  0.19159805591E+02  0.76491183287E+01 -0.19409695490E+00  0.20631161749E+02  0.00000000000E+00 0.  1.
</event>
<event>
 8    1  0.2882335E-009  0.9118800E+02  0.7816164E-02  0.1184000E+00
        -11   -1    0    0    0    0  0.00000000000E+00  0.00000000000E+00  0.45593999997E+02  0.45594000000E+02  0.51100000000E-03 0. -1.
         11   -1    0    0    0    0 -0.00000000000E+00 -0.00000000000E+00 -0.45593999997E+02  0.45594000000E+02  0.51100000000E-03 0.  1.
         23    2    1    2    0    0  0.44408920985E-15  0.00000000000E+00  0.00000000000E+00  0.91188000000E+02  0.91188000000E+02 0.  0.
    9900012    2    3    3    0    0  0.21603988359E+01  0.17623917525E+02 -0.41398596536E+02  0.46142316664E+02  0.99999899959E+01 0.  0.
         12    1    3    3    0    0 -0.21603988359E+01 -0.17623917525E+02  0.41398596536E+02  0.45045683336E+02  0.00000000000E+00 0. -1.
         11    1    4    4    0    0  0.13869792192E+01  0.10251004802E+01 -0.33298243931E+00  0.17565363404E+01  0.51100000000E-03 0. -1.
        -11    1    4    4    0    0  0.13117476078E+01  0.73264573121E+01 -0.15749614649E+02  0.17419759481E+02  0.51100000000E-03 0.  1.
        -12    1    4    4    0    0 -0.53832799114E+00  0.92723597332E+01 -0.25315999447E+02  0.26966020842E+02  0.00000000000E+00 0.  1.
</event>
<event>
 8    1  0.2882335E-009  0.9118800E+02  0.7816164E-02  0.1184000E+00
        -11   -1    0    0    0    0  0.00000000000E+00  0.00000000000E+00  0.45593999997E+02  0.45594000000E+02  0.51100000000E-03 0. -1.
         11   -1    0    0    0    0 -0.00000000000E+00 -0.00000000000E+00 -0.45593999997E+02  0.45594000000E+02  0.51100000000E-03 0.  1.
         23    2    1    2    0    0  0.88817841970E-15  0.88817841970E-15  0.71054273576E-14  0.91188000000E+02  0.91188000000E+02 0.  0.
    9900012    2    3    3    0    0  0.75773236374E+01  0.57498599258E+01  0.44029952813E+02  0.46142317994E+02  0.10000002124E+02 0.  0.
        -12    1    3    3    0    0 -0.75773236374E+01 -0.57498599258E+01 -0.44029952813E+02  0.45045682006E+02  0.00000000000E+00 0.  1.
         11    1    4    4    0    0  0.36553046314E+01  0.46901797750E+01  0.25814013285E+02  0.26490041910E+02  0.51100000000E-03 0. -1.
        -11    1    4    4    0    0  0.15425461728E+01 -0.18345580366E+01  0.23750328453E+01  0.33742900234E+01  0.51100000000E-03 0.  1.
        -12    1    4    4    0    0  0.23794728331E+01  0.28942381873E+01  0.15840906683E+02  0.16277986060E+02  0.00000000000E+00 0.  1.
</event>
<event>
 8    1  0.2882335E-009  0.9118800E+02  0.7816164E-02  0.1184000E+00
        -11   -1    0    0    0    0  0.00000000000E+00  0.00000000000E+00  0.45593999997E+02  0.45594000000E+02  0.51100000000E-03 0. -1.
         11   -1    0    0    0    0 -0.00000000000E+00 -0.00000000000E+00 -0.45593999997E+02  0.45594000000E+02  0.51100000000E-03 0.  1.
         23    2    1    2    0    0 -0.44408920985E-15  0.00000000000E+00  0.00000000000E+00  0.91188000000E+02  0.91188000000E+02 0.  0.
    9900012    2    3    3    0    0  0.21968031092E+01 -0.19272655880E+02 -0.40655285338E+02  0.46142318359E+02  0.10000005454E+02 0.  0.
         12    1    3    3    0    0 -0.21968031092E+01  0.19272655880E+02  0.40655285338E+02  0.45045681641E+02  0.00000000000E+00 0. -1.
         11    1    4    4    0    0  0.15061807769E+01 -0.44362550701E+01 -0.81943263784E+01  0.94390637585E+01  0.51100000000E-03 0. -1.
        -11    1    4    4    0    0 -0.11881825711E+00 -0.91825626784E+01 -0.10216210400E+02  0.13736976753E+02  0.51100000000E-03 0.  1.
         12    1    4    4    0    0  0.80944058939E+00 -0.56538381317E+01 -0.22244748560E+02  0.22966277848E+02  0.00000000000E+00 0. -1.
</event>
<event>
 8    1  0.2882335E-009  0.9118800E+02  0.7816164E-02  0.1184000E+00
        -11   -1    0    0    0    0  0.00000000000E+00  0.00000000000E+00  0.45593999997E+02  0.45594000000E+02  0.51100000000E-03 0. -1.
         11   -1    0    0    0    0 -0.00000000000E+00 -0.00000000000E+00 -0.45593999997E+02  0.45594000000E+02  0.51100000000E-03 0.  1.
         23    2    1    2    0    0  0.00000000000E+00  0.00000000000E+00  0.00000000000E+00  0.91188000000E+02  0.91188000000E+02 0.  0.
    9900012    2    3    3    0    0 -0.12628415903E+02  0.33439712989E+02  0.27412082061E+02  0.46142317233E+02  0.99999951832E+01 0.  0.
        -12    1    3    3    0    0  0.12628415903E+02 -0.33439712989E+02 -0.27412082061E+02  0.45045682767E+02  0.00000000000E+00 0.  1.
         11    1    4    4    0    0 -0.54399107203E+01  0.13408310011E+02  0.82414602924E+01  0.16652239309E+02  0.51100000000E-03 0.  1.
        -11    1    4    4    0    0 -0.40872375060E+01  0.17280835282E+02  0.17751137360E+02  0.25108477778E+02  0.51100000000E-03 0. -1.
        -12    1    4    4    0    0 -0.31012676767E+01  0.27505676962E+01  0.14194844090E+01  0.43816001462E+01  0.00000000000E+00 0.  1.
</event>
<event>
 8    1  0.2882335E-009  0.9118800E+02  0.7816164E-02  0.1184000E+00
        -11   -1    0    0    0    0  0.00000000000E+00  0.00000000000E+00  0.45593999997E+02  0.45594000000E+02  0.51100000000E-03 0.  1.
         11   -1    0    0    0    0 -0.00000000000E+00 -0.00000000000E+00 -0.45593999997E+02  0.45594000000E+02  0.51100000000E-03 0. -1.
         23    2    1    2    0    0  0.00000000000E+00  0.17763568394E-14  0.00000000000E+00  0.91188000000E+02  0.91188000000E+02 0.  0.
    9900012    2    3    3    0    0  0.43826539351E+02  0.10304824677E+02  0.14691066067E+01  0.46142320548E+02  0.10000025409E+02 0.  0.
        -12    1    3    3    0    0 -0.43826539351E+02 -0.10304824677E+02 -0.14691066067E+01  0.45045679452E+02  0.00000000000E+00 0.  1.
         11    1    4    4    0    0  0.25310332546E+02  0.73236350189E+01  0.14542984022E+01  0.26388701134E+02  0.51100000000E-03 0. -1.
        -11    1    4    4    0    0  0.10714416330E+02 -0.40262545440E+00  0.22614027412E+01  0.10957863258E+02  0.51100000000E-03 0.  1.
        -12    1    4    4    0    0  0.78017904750E+01  0.33838151126E+01 -0.22465945367E+01  0.87957561553E+01  0.00000000000E+00 0.  1.
</event>
<event>
 8    1  0.2882335E-009  0.9118800E+02  0.7816164E-02  0.1184000E+00
        -11   -1    0    0    0    0  0.00000000000E+00  0.00000000000E+00  0.45593999997E+02  0.45594000000E+02  0.51100000000E-03 0. -1.
         11   -1    0    0    0    0 -0.00000000000E+00 -0.00000000000E+00 -0.45593999997E+02  0.45594000000E+02  0.51100000000E-03 0.  1.
         23    2    1    2    0    0 -0.35527136788E-14  0.35527136788E-14 -0.17763568394E-14  0.91188000000E+02  0.91188000000E+02 0.  0.
    9900012    2    3    3    0    0  0.29162503077E+02  0.31977369815E+02  0.12494387427E+02  0.46142317819E+02  0.10000000526E+02 0.  0.
        -12    1    3    3    0    0 -0.29162503077E+02 -0.31977369815E+02 -0.12494387427E+02  0.45045682181E+02  0.00000000000E+00 0.  1.
         11    1    4    4    0    0  0.33893768546E+01  0.60279584797E+01  0.31293208396E+01  0.75905736327E+01  0.51100000000E-03 0.  1.
        -11    1    4    4    0    0  0.19571568163E+02  0.23752300215E+02  0.70227744645E+01  0.31567980728E+02  0.51100000000E-03 0. -1.
        -12    1    4    4    0    0  0.62015580598E+01  0.21971111208E+01  0.23422921226E+01  0.69837634578E+01  0.00000000000E+00 0.  1.
</event>
<event>
 8    1  0.2882335E-009  0.9118800E+02  0.7816164E-02  0.1184000E+00
        -11   -1    0    0    0    0  0.00000000000E+00  0.00000000000E+00  0.45593999997E+02  0.45594000000E+02  0.51100000000E-03 0. -1.
         11   -1    0    0    0    0 -0.00000000000E+00 -0.00000000000E+00 -0.45593999997E+02  0.45594000000E+02  0.51100000000E-03 0.  1.
         23    2    1    2    0    0  0.00000000000E+00  0.00000000000E+00  0.00000000000E+00  0.91188000000E+02  0.91188000000E+02 0.  0.
    9900012    2    3    3    0    0 -0.18046788088E+02  0.36173621547E+02  0.19871987661E+02  0.46142319300E+02  0.10000014035E+02 0.  0.
        -12    1    3    3    0    0  0.18046788088E+02 -0.36173621547E+02 -0.19871987661E+02  0.45045680700E+02  0.00000000000E+00 0.  1.
         11    1    4    4    0    0 -0.89809408737E+01  0.19311746268E+02  0.11896509025E+02  0.24395240727E+02  0.51100000000E-03 0. -1.
        -11    1    4    4    0    0 -0.10031971697E+02  0.15573101796E+02  0.78876990004E+01  0.20133994920E+02  0.51100000000E-03 0.  1.
         12    1    4    4    0    0  0.96612448285E+00  0.12887734829E+01  0.87779636336E-01  0.16130836529E+01  0.00000000000E+00 0. -1.
</event>
<event>
 8    1  0.2882335E-009  0.9118800E+02  0.7816164E-02  0.1184000E+00
        -11   -1    0    0    0    0  0.00000000000E+00  0.00000000000E+00  0.45593999997E+02  0.45594000000E+02  0.51100000000E-03 0. -1.
         11   -1    0    0    0    0 -0.00000000000E+00 -0.00000000000E+00 -0.45593999997E+02  0.45594000000E+02  0.51100000000E-03 0.  1.
         23    2    1    2    0    0  0.00000000000E+00  0.35527136788E-14  0.71054273576E-14  0.91188000000E+02  0.91188000000E+02 0.  0.
    9900012    2    3    3    0    0  0.89912521835E+01 -0.24504155990E+02 -0.36712631308E+02  0.46142316809E+02  0.99999913171E+01 0.  0.
         12    1    3    3    0    0 -0.89912521835E+01  0.24504155990E+02  0.36712631308E+02  0.45045683191E+02  0.00000000000E+00 0. -1.
         11    1    4    4    0    0  0.45227854304E+00 -0.15991110279E+01 -0.83126062119E+01  0.84770946825E+01  0.51100000000E-03 0. -1.
        -11    1    4    4    0    0  0.40507115275E+01 -0.60734125014E+01 -0.76935760732E+01  0.10605928359E+02  0.51100000000E-03 0.  1.
         12    1    4    4    0    0  0.44882621130E+01 -0.16831632461E+02 -0.20706449023E+02  0.27059293768E+02  0.00000000000E+00 0. -1.
</event>
<event>
 8    1  0.2882335E-009  0.9118800E+02  0.7816164E-02  0.1184000E+00
        -11   -1    0    0    0    0  0.00000000000E+00  0.00000000000E+00  0.45593999997E+02  0.45594000000E+02  0.51100000000E-03 0. -1.
         11   -1    0    0    0    0 -0.00000000000E+00 -0.00000000000E+00 -0.45593999997E+02  0.45594000000E+02  0.51100000000E-03 0.  1.
         23    2    1    2    0    0 -0.71054273576E-14  0.00000000000E+00  0.71054273576E-14  0.91188000000E+02  0.91188000000E+02 0.  0.
    9900012    2    3    3    0    0 -0.25559353457E+02  0.10272672285E+02  0.35641340240E+02  0.46142317864E+02  0.10000000936E+02 0.  0.
        -12    1    3    3    0    0  0.25559353457E+02 -0.10272672285E+02 -0.35641340240E+02  0.45045682136E+02  0.00000000000E+00 0.  1.
         11    1    4    4    0    0 -0.20868812459E+02  0.39664934754E+01  0.26589731870E+02  0.34033134518E+02  0.51100000000E-03 0. -1.
        -11    1    4    4    0    0 -0.19290296693E+01  0.36329980499E+01  0.55630706386E+01  0.69186404363E+01  0.51100000000E-03 0.  1.
         12    1    4    4    0    0 -0.27615113281E+01  0.26731807594E+01  0.34885377315E+01  0.51905429091E+01  0.00000000000E+00 0. -1.
</event>
<event>
 8    1  0.2882335E-009  0.9118800E+02  0.7816164E-02  0.1184000E+00
        -11   -1    0    0    0    0  0.00000000000E+00  0.00000000000E+00  0.45593999997E+02  0.45594000000E+02  0.51100000000E-03 0.  1.
         11   -1    0    0    0    0 -0.00000000000E+00 -0.00000000000E+00 -0.45593999997E+02  0.45594000000E+02  0.51100000000E-03 0. -1.
         23    2    1    2    0    0  0.00000000000E+00  0.00000000000E+00  0.00000000000E+00  0.91188000000E+02  0.91188000000E+02 0.  0.
    9900012    2    3    3    0    0 -0.24595127430E+01  0.40842098637E+02  0.18841107162E+02  0.46142317153E+02  0.99999944586E+01 0.  0.
        -12    1    3    3    0    0  0.24595127430E+01 -0.40842098637E+02 -0.18841107162E+02  0.45045682847E+02  0.00000000000E+00 0.  1.
         11    1    4    4    0    0  0.52641274007E+00  0.19810468196E+02  0.50563193770E+01  0.20452337920E+02  0.51100000000E-03 0. -1.
        -11    1    4    4    0    0 -0.15097619053E+01  0.25406617280E+01  0.84816110458E+00  0.30746903172E+01  0.51100000000E-03 0.  1.
        -12    1    4    4    0    0 -0.14761635778E+01  0.18490968713E+02  0.12936626681E+02  0.22615288916E+02  0.00000000000E+00 0.  1.
</event>
<event>
 8    1  0.2882335E-009  0.9118800E+02  0.7816164E-02  0.1184000E+00
        -11   -1    0    0    0    0  0.00000000000E+00  0.00000000000E+00  0.45593999997E+02  0.45594000000E+02  0.51100000000E-03 0. -1.
         11   -1    0    0    0    0 -0.00000000000E+00 -0.00000000000E+00 -0.45593999997E+02  0.45594000000E+02  0.51100000000E-03 0.  1.
         23    2    1    2    0    0 -0.71054273576E-14 -0.35527136788E-14  0.00000000000E+00  0.91188000000E+02  0.91188000000E+02 0.  0.
    9900012    2    3    3    0    0  0.36564885854E+02  0.25782582008E+02 -0.52326879245E+01  0.46142318349E+02  0.10000005360E+02 0.  0.
         12    1    3    3    0    0 -0.36564885854E+02 -0.25782582008E+02  0.52326879245E+01  0.45045681651E+02  0.00000000000E+00 0. -1.
         11    1    4    4    0    0  0.16412032723E+02  0.82477399647E+01 -0.47683903442E+01  0.18976764197E+02  0.51100000000E-03 0. -1.
        -11    1    4    4    0    0  0.12105684818E+02  0.10722775433E+02 -0.26790220899E+01  0.16392152925E+02  0.51100000000E-03 0.  1.
         12    1    4    4    0    0  0.80471683121E+01  0.68120666108E+01  0.22147245096E+01  0.10773401227E+02  0.00000000000E+00 0. -1.
</event>
<event>
 8    1  0.2882335E-009  0.9118800E+02  0.7816164E-02  0.1184000E+00
        -11   -1    0    0    0    0  0.00000000000E+00  0.00000000000E+00  0.45593999997E+02  0.45594000000E+02  0.51100000000E-03 0. -1.
         11   -1    0    0    0    0 -0.00000000000E+00 -0.00000000000E+00 -0.45593999997E+02  0.45594000000E+02  0.51100000000E-03 0.  1.
         23    2    1    2    0    0  0.00000000000E+00  0.00000000000E+00  0.00000000000E+00  0.91188000000E+02  0.91188000000E+02 0.  0.
    9900012    2    3    3    0    0 -0.21093303996E+02  0.70834378451E+01 -0.39166451712E+02  0.46142317577E+02  0.99999983256E+01 0.  0.
         12    1    3    3    0    0  0.21093303996E+02 -0.70834378451E+01  0.39166451712E+02  0.45045682423E+02  0.00000000000E+00 0. -1.
         11    1    4    4    0    0 -0.44249258945E+01 -0.13879433280E+01 -0.47741081916E+01  0.66557092139E+01  0.51100000000E-03 0. -1.
        -11    1    4    4    0    0 -0.14948931860E+02  0.57498732149E+01 -0.30370261167E+02  0.34334885603E+02  0.51100000000E-03 0.  1.
        -12    1    4    4    0    0 -0.17194462416E+01  0.27215079583E+01 -0.40220823538E+01  0.51517227610E+01  0.00000000000E+00 0.  1.
</event>
<event>
 8    1  0.2882335E-009  0.9118800E+02  0.7816164E-02  0.1184000E+00
        -11   -1    0    0    0    0  0.00000000000E+00  0.00000000000E+00  0.45593999997E+02  0.45594000000E+02  0.51100000000E-03 0.  1.
         11   -1    0    0    0    0 -0.00000000000E+00 -0.00000000000E+00 -0.45593999997E+02  0.45594000000E+02  0.51100000000E-03 0. -1.
         23    2    1    2    0    0  0.00000000000E+00  0.71054273576E-14 -0.17763568394E-14  0.91188000000E+02  0.91188000000E+02 0.  0.
    9900012    2    3    3    0    0  0.13442119465E+02 -0.40526383095E+02 -0.14353927754E+02  0.46142317139E+02  0.99999943250E+01 0.  0.
         12    1    3    3    0    0 -0.13442119465E+02  0.40526383095E+02  0.14353927754E+02  0.45045682861E+02  0.00000000000E+00 0. -1.
         11    1    4    4    0    0  0.47932135327E+01 -0.71950685534E+01 -0.28500281810E+01  0.91031076206E+01  0.51100000000E-03 0. -1.
        -11    1    4    4    0    0  0.32640553065E+01 -0.23928193455E+02 -0.59919778692E+01  0.24882047707E+02  0.51100000000E-03 0.  1.
        -12    1    4    4    0    0  0.53848506258E+01 -0.94031210870E+01 -0.55119217033E+01  0.12157161811E+02  0.00000000000E+00 0.  1.
</event>
<event>
 8    1  0.2882335E-009  0.9118800E+02  0.7816164E-02  0.1184000E+00
        -11   -1    0    0    0    0  0.00000000000E+00  0.00000000000E+00  0.45593999997E+02  0.45594000000E+02  0.51100000000E-03 0. -1.
         11   -1    0    0    0    0 -0.00000000000E+00 -0.00000000000E+00 -0.45593999997E+02  0.45594000000E+02  0.51100000000E-03 0.  1.
         23    2    1    2    0    0  0.22204460493E-15  0.35527136788E-14  0.00000000000E+00  0.91188000000E+02  0.91188000000E+02 0.  0.
    9900012    2    3    3    0    0 -0.17689782836E+01 -0.16978636964E+02  0.41685848308E+02  0.46142319336E+02  0.10000014357E+02 0.  0.
        -12    1    3    3    0    0  0.17689782836E+01  0.16978636964E+02 -0.41685848308E+02  0.45045680664E+02  0.00000000000E+00 0.  1.
         11    1    4    4    0    0 -0.19500805275E+01 -0.29556561673E+01  0.16615928582E+02  0.16989049425E+02  0.51100000000E-03 0.  1.
        -11    1    4    4    0    0 -0.11162634731E+01 -0.13279185666E+02  0.23244833589E+02  0.26793751229E+02  0.51100000000E-03 0. -1.
        -12    1    4    4    0    0  0.12973657170E+01 -0.74379513094E+00  0.18250861374E+01  0.23595186817E+01  0.00000000000E+00 0.  1.
</event>
<event>
 8    1  0.2882335E-009  0.9118800E+02  0.7816164E-02  0.1184000E+00
        -11   -1    0    0    0    0  0.00000000000E+00  0.00000000000E+00  0.45593999997E+02  0.45594000000E+02  0.51100000000E-03 0. -1.
         11   -1    0    0    0    0 -0.00000000000E+00 -0.00000000000E+00 -0.45593999997E+02  0.45594000000E+02  0.51100000000E-03 0.  1.
         23    2    1    2    0    0  0.71054273576E-14  0.00000000000E+00  0.00000000000E+00  0.91188000000E+02  0.91188000000E+02 0.  0.
    9900012    2    3    3    0    0 -0.32585319709E+02  0.16693882361E+02  0.26241660104E+02  0.46142317700E+02  0.99999994470E+01 0.  0.
        -12    1    3    3    0    0  0.32585319709E+02 -0.16693882361E+02 -0.26241660104E+02  0.45045682300E+02  0.00000000000E+00 0.  1.
         11    1    4    4    0    0 -0.17175740576E+02  0.11242580129E+02  0.19314271863E+02  0.28185861174E+02  0.51100000000E-03 0. -1.
        -11    1    4    4    0    0 -0.10529657093E+02  0.34275516154E+01  0.59942021470E+01  0.12591753183E+02  0.51100000000E-03 0.  1.
         12    1    4    4    0    0 -0.48799220403E+01  0.20237506161E+01  0.93318609400E+00  0.53647033433E+01  0.00000000000E+00 0. -1.
</event>
<event>
 8    1  0.2882335E-009  0.9118800E+02  0.7816164E-02  0.1184000E+00
        -11   -1    0    0    0    0  0.00000000000E+00  0.00000000000E+00  0.45593999997E+02  0.45594000000E+02  0.51100000000E-03 0. -1.
         11   -1    0    0    0    0 -0.00000000000E+00 -0.00000000000E+00 -0.45593999997E+02  0.45594000000E+02  0.51100000000E-03 0.  1.
         23    2    1    2    0    0  0.44408920985E-15  0.00000000000E+00  0.00000000000E+00  0.91188000000E+02  0.91188000000E+02 0.  0.
    9900012    2    3    3    0    0 -0.31613109692E+01  0.43275191500E+02  0.12098633724E+02  0.46142322911E+02  0.10000046963E+02 0.  0.
        -12    1    3    3    0    0  0.31613109692E+01 -0.43275191500E+02 -0.12098633724E+02  0.45045677089E+02  0.00000000000E+00 0.  1.
         11    1    4    4    0    0 -0.21582262102E+01  0.11245907761E+02  0.42925626815E+01  0.12229246762E+02  0.51100000000E-03 0. -1.
        -11    1    4    4    0    0 -0.92697260769E+00  0.22006995121E+02  0.90507478629E+01  0.23813507713E+02  0.51100000000E-03 0.  1.
        -12    1    4    4    0    0 -0.76112151293E-01  0.10022288618E+02 -0.12446768200E+01  0.10099568436E+02  0.00000000000E+00 0.  1.
</event>
<event>
 8    1  0.2882335E-009  0.9118800E+02  0.7816164E-02  0.1184000E+00
        -11   -1    0    0    0    0  0.00000000000E+00  0.00000000000E+00  0.45593999997E+02  0.45594000000E+02  0.51100000000E-03 0. -1.
         11   -1    0    0    0    0 -0.00000000000E+00 -0.00000000000E+00 -0.45593999997E+02  0.45594000000E+02  0.51100000000E-03 0.  1.
         23    2    1    2    0    0 -0.35527136788E-14  0.00000000000E+00  0.35527136788E-14  0.91188000000E+02  0.91188000000E+02 0.  0.
    9900012    2    3    3    0    0  0.26226838385E+02 -0.24759455970E+02 -0.26985833609E+02  0.46142323991E+02  0.10000056805E+02 0.  0.
         12    1    3    3    0    0 -0.26226838385E+02  0.24759455970E+02  0.26985833609E+02  0.45045676009E+02  0.00000000000E+00 0. -1.
         11    1    4    4    0    0  0.54760670279E+01 -0.91324813438E+00 -0.34820869071E+01  0.65533397393E+01  0.51100000000E-03 0. -1.
        -11    1    4    4    0    0  0.19139664130E+02 -0.22736031416E+02 -0.20902850005E+02  0.36334322701E+02  0.51100000000E-03 0.  1.
        -12    1    4    4    0    0  0.16111072268E+01 -0.11101764198E+01 -0.26008966968E+01  0.32546615503E+01  0.00000000000E+00 0.  1.
</event>
<event>
 8    1  0.2882335E-009  0.9118800E+02  0.7816164E-02  0.1184000E+00
        -11   -1    0    0    0    0  0.00000000000E+00  0.00000000000E+00  0.45593999997E+02  0.45594000000E+02  0.51100000000E-03 0.  1.
         11   -1    0    0    0    0 -0.00000000000E+00 -0.00000000000E+00 -0.45593999997E+02  0.45594000000E+02  0.51100000000E-03 0. -1.
         23    2    1    2    0    0  0.00000000000E+00  0.00000000000E+00 -0.22204460493E-15  0.91188000000E+02  0.91188000000E+02 0.  0.
    9900012    2    3    3    0    0  0.30758581319E+02  0.32880053652E+02  0.13874685881E+01  0.46142319608E+02  0.10000016841E+02 0.  0.
        -12    1    3    3    0    0 -0.30758581319E+02 -0.32880053652E+02 -0.13874685881E+01  0.45045680392E+02  0.00000000000E+00 0.  1.
         11    1    4    4    0    0  0.13763270703E+01  0.42977657929E+01  0.22302961470E+01  0.50338144761E+01  0.51100000000E-03 0. -1.
        -11    1    4    4    0    0  0.59660330524E+01  0.42427281516E+01  0.77453905512E-01  0.73212220236E+01  0.51100000000E-03 0.  1.
         12    1    4    4    0    0  0.23416221197E+02  0.24339559707E+02 -0.92028146448E+00  0.33787283108E+02  0.00000000000E+00 0. -1.
</event>
<event>
 8    1  0.3567146E-009  0.9118800E+02  0.7816164E-02  0.1184000E+00
        -11   -1    0    0    0    0  0.00000000000E+00  0.00000000000E+00  0.45593999997E+02  0.45594000000E+02  0.51100000000E-03 0. -1.
         11   -1    0    0    0    0 -0.00000000000E+00 -0.00000000000E+00 -0.45593999997E+02  0.45594000000E+02  0.51100000000E-03 0.  1.
         23    2    1    2    0    0  0.17763568394E-14  0.00000000000E+00  0.00000000000E+00  0.91188000000E+02  0.91188000000E+02 0.  0.
    9900012    2    3    3    0    0 -0.15909010846E+02  0.18264732985E+02 -0.37979157299E+02  0.46142317784E+02  0.10000000213E+02 0.  0.
         12    1    3    3    0    0  0.15909010846E+02 -0.18264732985E+02  0.37979157299E+02  0.45045682216E+02  0.00000000000E+00 0. -1.
         11    1    4    4    0    0 -0.60185075473E+00 -0.16669620806E+00 -0.80826467234E+00  0.10214225367E+01  0.51100000000E-03 0. -1.
        -11    1    4    4    0    0 -0.93322927494E+01  0.16250994338E+02 -0.23616242696E+02  0.30148191061E+02  0.51100000000E-03 0.  1.
        -12    1    4    4    0    0 -0.59748673416E+01  0.21804348554E+01 -0.13554649931E+02  0.14972704187E+02  0.00000000000E+00 0.  1.
</event>
<event>
 8    1  0.2882335E-009  0.9118800E+02  0.7816164E-02  0.1184000E+00
        -11   -1    0    0    0    0  0.00000000000E+00  0.00000000000E+00  0.45593999997E+02  0.45594000000E+02  0.51100000000E-03 0. -1.
         11   -1    0    0    0    0 -0.00000000000E+00 -0.00000000000E+00 -0.45593999997E+02  0.45594000000E+02  0.51100000000E-03 0.  1.
         23    2    1    2    0    0  0.00000000000E+00  0.17763568394E-14  0.00000000000E+00  0.91188000000E+02  0.91188000000E+02 0.  0.
    9900012    2    3    3    0    0  0.35481454816E+02 -0.12842430316E+02 -0.24601870021E+02  0.46142315847E+02  0.99999825478E+01 0.  0.
         12    1    3    3    0    0 -0.35481454816E+02  0.12842430316E+02  0.24601870021E+02  0.45045684153E+02  0.00000000000E+00 0. -1.
         11    1    4    4    0    0  0.40064143942E+01  0.83735806696E+00 -0.46126087927E+01  0.61667402220E+01  0.51100000000E-03 0. -1.
        -11    1    4    4    0    0  0.15189070980E+02 -0.83210553726E+01 -0.81549222336E+01  0.19142899379E+02  0.51100000000E-03 0.  1.
         12    1    4    4    0    0  0.16285969441E+02 -0.53587330107E+01 -0.11834338994E+02  0.20832676246E+02  0.00000000000E+00 0. -1.
</event>
<event>
 8    1  0.2882335E-009  0.9118800E+02  0.7816164E-02  0.1184000E+00
        -11   -1    0    0    0    0  0.00000000000E+00  0.00000000000E+00  0.45593999997E+02  0.45594000000E+02  0.51100000000E-03 0. -1.
         11   -1    0    0    0    0 -0.00000000000E+00 -0.00000000000E+00 -0.45593999997E+02  0.45594000000E+02  0.51100000000E-03 0.  1.
         23    2    1    2    0    0  0.00000000000E+00  0.00000000000E+00  0.00000000000E+00  0.91188000000E+02  0.91188000000E+02 0.  0.
    9900012    2    3    3    0    0  0.10907847215E+02 -0.21251688714E+02  0.38190288763E+02  0.46142316968E+02  0.99999927648E+01 0.  0.
        -12    1    3    3    0    0 -0.10907847215E+02  0.21251688714E+02 -0.38190288763E+02  0.45045683032E+02  0.00000000000E+00 0.  1.
         11    1    4    4    0    0  0.41605979747E+01 -0.82891019100E+01  0.16389290980E+02  0.18831586366E+02  0.51100000000E-03 0. -1.
        -11    1    4    4    0    0  0.19417185148E+01 -0.62062394421E+01  0.15770153859E+02  0.17058295102E+02  0.51100000000E-03 0.  1.
        -12    1    4    4    0    0  0.48055307254E+01 -0.67563473623E+01  0.60308439239E+01  0.10252435499E+02  0.00000000000E+00 0.  1.
</event>
<event>
 8    1  0.3094823E-009  0.9118800E+02  0.7816164E-02  0.1184000E+00
        -11   -1    0    0    0    0  0.00000000000E+00  0.00000000000E+00  0.45593999997E+02  0.45594000000E+02  0.51100000000E-03 0. -1.
         11   -1    0    0    0    0 -0.00000000000E+00 -0.00000000000E+00 -0.45593999997E+02  0.45594000000E+02  0.51100000000E-03 0.  1.
         23    2    1    2    0    0 -0.35527136788E-14  0.00000000000E+00 -0.71054273576E-14  0.91188000000E+02  0.91188000000E+02 0.  0.
    9900012    2    3    3    0    0 -0.27125655220E+02  0.12997569961E+01 -0.35939154663E+02  0.46142318995E+02  0.10000011248E+02 0.  0.
         12    1    3    3    0    0  0.27125655220E+02 -0.12997569961E+01  0.35939154663E+02  0.45045681005E+02  0.00000000000E+00 0. -1.
         11    1    4    4    0    0 -0.15855777637E+00  0.48684057581E+00 -0.39945962485E+01  0.40272762215E+01  0.51100000000E-03 0. -1.
        -11    1    4    4    0    0 -0.26249461112E+02 -0.14867393442E-01 -0.29840093115E+02  0.39742490953E+02  0.51100000000E-03 0.  1.
        -12    1    4    4    0    0 -0.71763633129E+00  0.82778381371E+00 -0.21044652989E+01  0.23725518204E+01  0.00000000000E+00 0.  1.
</event>
<event>
 8    1  0.3754798E-009  0.9118800E+02  0.7816164E-02  0.1184000E+00
        -11   -1    0    0    0    0  0.00000000000E+00  0.00000000000E+00  0.45593999997E+02  0.45594000000E+02  0.51100000000E-03 0. -1.
         11   -1    0    0    0    0 -0.00000000000E+00 -0.00000000000E+00 -0.45593999997E+02  0.45594000000E+02  0.51100000000E-03 0.  1.
         23    2    1    2    0    0  0.00000000000E+00  0.00000000000E+00  0.71054273576E-14  0.91188000000E+02  0.91188000000E+02 0.  0.
    9900012    2    3    3    0    0  0.82915815714E+01 -0.14149226818E+02  0.41954291903E+02  0.46142317038E+02  0.99999934027E+01 0.  0.
        -12    1    3    3    0    0 -0.82915815714E+01  0.14149226818E+02 -0.41954291903E+02  0.45045682962E+02  0.00000000000E+00 0.  1.
         11    1    4    4    0    0  0.92575813910E+00 -0.82324010851E+01  0.18772691226E+02  0.20519341897E+02  0.51100000000E-03 0. -1.
        -11    1    4    4    0    0  0.25936940042E+00 -0.13821453576E+01  0.61808823045E+00  0.15361092399E+01  0.51100000000E-03 0.  1.
         12    1    4    4    0    0  0.71064540319E+01 -0.45346803755E+01  0.22563512446E+02  0.24086865901E+02  0.00000000000E+00 0. -1.
</event>
<event>
 8    1  0.2882335E-009  0.9118800E+02  0.7816164E-02  0.1184000E+00
        -11   -1    0    0    0    0  0.00000000000E+00  0.00000000000E+00  0.45593999997E+02  0.45594000000E+02  0.51100000000E-03 0. -1.
         11   -1    0    0    0    0 -0.00000000000E+00 -0.00000000000E+00 -0.45593999997E+02  0.45594000000E+02  0.51100000000E-03 0.  1.
         23    2    1    2    0    0 -0.17763568394E-14 -0.71054273576E-14 -0.88817841970E-15  0.91188000000E+02  0.91188000000E+02 0.  0.
    9900012    2    3    3    0    0 -0.15753922413E+02 -0.41703600490E+02 -0.64604279092E+01  0.46142317699E+02  0.99999994319E+01 0.  0.
         12    1    3    3    0    0  0.15753922413E+02  0.41703600490E+02  0.64604279092E+01  0.45045682301E+02  0.00000000000E+00 0. -1.
         11    1    4    4    0    0 -0.10869444319E+02 -0.19916770496E+02 -0.71063306724E+01  0.23776511575E+02  0.51100000000E-03 0. -1.
        -11    1    4    4    0    0 -0.12146513829E+01 -0.64275284892E+01  0.65662990892E+00  0.65741663775E+01  0.51100000000E-03 0.  1.
         12    1    4    4    0    0 -0.36698267109E+01 -0.15359301504E+02 -0.10727145736E-01  0.15791639746E+02  0.00000000000E+00 0. -1.
</event>
<event>
 8    1  0.2882335E-009  0.9118800E+02  0.7816164E-02  0.1184000E+00
        -11   -1    0    0    0    0  0.00000000000E+00  0.00000000000E+00  0.45593999997E+02  0.45594000000E+02  0.51100000000E-03 0. -1.
         11   -1    0    0    0    0 -0.00000000000E+00 -0.00000000000E+00 -0.45593999997E+02  0.45594000000E+02  0.51100000000E-03 0.  1.
         23    2    1    2    0    0  0.00000000000E+00  0.00000000000E+00 -0.71054273576E-14  0.91188000000E+02  0.91188000000E+02 0.  0.
    9900012    2    3    3    0    0 -0.23822717026E+02  0.16531272520E+02 -0.34471852109E+02  0.46142318681E+02  0.10000008387E+02 0.  0.
         12    1    3    3    0    0  0.23822717026E+02 -0.16531272520E+02  0.34471852109E+02  0.45045681319E+02  0.00000000000E+00 0. -1.
         11    1    4    4    0    0 -0.26397371467E+01 -0.86047944401E+00 -0.28279318849E+01  0.39630589302E+01  0.51100000000E-03 0. -1.
        -11    1    4    4    0    0 -0.10868699079E+02  0.10981285164E+02 -0.20708984514E+02  0.25837555678E+02  0.51100000000E-03 0.  1.
        -12    1    4    4    0    0 -0.10314280800E+02  0.64104668005E+01 -0.10934935711E+02  0.16341704073E+02  0.00000000000E+00 0.  1.
</event>
<event>
 8    1  0.2882335E-009  0.9118800E+02  0.7816164E-02  0.1184000E+00
        -11   -1    0    0    0    0  0.00000000000E+00  0.00000000000E+00  0.45593999997E+02  0.45594000000E+02  0.51100000000E-03 0.  1.
         11   -1    0    0    0    0 -0.00000000000E+00 -0.00000000000E+00 -0.45593999997E+02  0.45594000000E+02  0.51100000000E-03 0. -1.
         23    2    1    2    0    0 -0.35527136788E-14  0.35527136788E-14  0.00000000000E+00  0.91188000000E+02  0.91188000000E+02 0.  0.
    9900012    2    3    3    0    0  0.29567921330E+02 -0.31075716920E+02  0.13753231745E+02  0.46142317218E+02  0.99999950478E+01 0.  0.
         12    1    3    3    0    0 -0.29567921330E+02  0.31075716920E+02 -0.13753231745E+02  0.45045682782E+02  0.00000000000E+00 0. -1.
         11    1    4    4    0    0  0.14337587763E+01 -0.30833568611E+01  0.27124177174E+01  0.43497084841E+01  0.51100000000E-03 0. -1.
        -11    1    4    4    0    0  0.92468979590E+01 -0.12878218113E+02  0.67200934179E+01  0.17219560953E+02  0.51100000000E-03 0.  1.
         12    1    4    4    0    0  0.18887264595E+02 -0.15114141946E+02  0.43207206099E+01  0.24573047781E+02  0.00000000000E+00 0. -1.
</event>
<event>
 8    1  0.2882335E-009  0.9118800E+02  0.7816164E-02  0.1184000E+00
        -11   -1    0    0    0    0  0.00000000000E+00  0.00000000000E+00  0.45593999997E+02  0.45594000000E+02  0.51100000000E-03 0. -1.
         11   -1    0    0    0    0 -0.00000000000E+00 -0.00000000000E+00 -0.45593999997E+02  0.45594000000E+02  0.51100000000E-03 0.  1.
         23    2    1    2    0    0  0.00000000000E+00 -0.71054273576E-14  0.00000000000E+00  0.91188000000E+02  0.91188000000E+02 0.  0.
    9900012    2    3    3    0    0  0.18145484188E+02  0.36715502352E+02  0.18757056695E+02  0.46142313356E+02  0.99999598317E+01 0.  0.
        -12    1    3    3    0    0 -0.18145484188E+02 -0.36715502352E+02 -0.18757056695E+02  0.45045686644E+02  0.00000000000E+00 0.  1.
         11    1    4    4    0    0  0.13062991126E+02  0.22687611344E+02  0.93545913821E+01  0.27800680313E+02  0.51100000000E-03 0. -1.
        -11    1    4    4    0    0  0.34921419688E+01  0.30021172983E+01  0.29200864500E+01  0.54529504802E+01  0.51100000000E-03 0.  1.
         12    1    4    4    0    0  0.15903510926E+01  0.11025773709E+02  0.64823788631E+01  0.12888682563E+02  0.00000000000E+00 0. -1.
</event>
<event>
 8    1  0.2882335E-009  0.9118800E+02  0.7816164E-02  0.1184000E+00
        -11   -1    0    0    0    0  0.00000000000E+00  0.00000000000E+00  0.45593999997E+02  0.45594000000E+02  0.51100000000E-03 0. -1.
         11   -1    0    0    0    0 -0.00000000000E+00 -0.00000000000E+00 -0.45593999997E+02  0.45594000000E+02  0.51100000000E-03 0.  1.
         23    2    1    2    0    0  0.17763568394E-14  0.35527136788E-14 -0.71054273576E-14  0.91188000000E+02  0.91188000000E+02 0.  0.
    9900012    2    3    3    0    0 -0.97316584970E+01 -0.21283468884E+02  0.38489249341E+02  0.46142317191E+02  0.99999948033E+01 0.  0.
        -12    1    3    3    0    0  0.97316584970E+01  0.21283468884E+02 -0.38489249341E+02  0.45045682809E+02  0.00000000000E+00 0.  1.
         11    1    4    4    0    0  0.55636293733E+00 -0.80565004115E+01  0.14820651369E+02  0.16878046269E+02  0.51100000000E-03 0. -1.
        -11    1    4    4    0    0 -0.82855288407E+01 -0.83648573755E+01  0.14323959938E+02  0.18541754384E+02  0.51100000000E-03 0.  1.
        -12    1    4    4    0    0 -0.20024925936E+01 -0.48621110973E+01  0.93446380347E+01  0.10722516538E+02  0.00000000000E+00 0.  1.
</event>
<event>
 8    1  0.2882335E-009  0.9118800E+02  0.7816164E-02  0.1184000E+00
        -11   -1    0    0    0    0  0.00000000000E+00  0.00000000000E+00  0.45593999997E+02  0.45594000000E+02  0.51100000000E-03 0. -1.
         11   -1    0    0    0    0 -0.00000000000E+00 -0.00000000000E+00 -0.45593999997E+02  0.45594000000E+02  0.51100000000E-03 0.  1.
         23    2    1    2    0    0  0.00000000000E+00 -0.88817841970E-15  0.35527136788E-14  0.91188000000E+02  0.91188000000E+02 0.  0.
    9900012    2    3    3    0    0  0.38737671471E+02  0.72418263297E+01  0.21818851604E+02  0.46142317356E+02  0.99999963034E+01 0.  0.
        -12    1    3    3    0    0 -0.38737671471E+02 -0.72418263297E+01 -0.21818851604E+02  0.45045682644E+02  0.00000000000E+00 0.  1.
         11    1    4    4    0    0  0.23097019220E+02  0.34833211791E+01  0.76073766175E+01  0.24565789272E+02  0.51100000000E-03 0. -1.
        -11    1    4    4    0    0  0.15255592989E+02  0.32525290232E+01  0.13610869066E+02  0.20701879612E+02  0.51100000000E-03 0.  1.
         12    1    4    4    0    0  0.38505926144E+00  0.50597612748E+00  0.60060592117E+00  0.87464847164E+00  0.00000000000E+00 0. -1.
</event>
<event>
 8    1  0.2882335E-009  0.9118800E+02  0.7816164E-02  0.1184000E+00
        -11   -1    0    0    0    0  0.00000000000E+00  0.00000000000E+00  0.45593999997E+02  0.45594000000E+02  0.51100000000E-03 0.  1.
         11   -1    0    0    0    0 -0.00000000000E+00 -0.00000000000E+00 -0.45593999997E+02  0.45594000000E+02  0.51100000000E-03 0. -1.
         23    2    1    2    0    0  0.00000000000E+00  0.00000000000E+00  0.00000000000E+00  0.91188000000E+02  0.91188000000E+02 0.  0.
    9900012    2    3    3    0    0  0.16962522160E+02 -0.41031132636E+02 -0.76047535383E+01  0.46142320076E+02  0.10000021112E+02 0.  0.
        -12    1    3    3    0    0 -0.16962522160E+02  0.41031132636E+02  0.76047535383E+01  0.45045679924E+02  0.00000000000E+00 0.  1.
         11    1    4    4    0    0  0.36562976376E+01 -0.11339181020E+02 -0.59405940226E+01  0.13313008534E+02  0.51100000000E-03 0.  1.
        -11    1    4    4    0    0  0.95209159615E+01 -0.19386063946E+02  0.65580674405E+00  0.21607808746E+02  0.51100000000E-03 0. -1.
         12    1    4    4    0    0  0.37853085613E+01 -0.10305887670E+02 -0.23199662597E+01  0.11221502796E+02  0.00000000000E+00 0. -1.
</event>
<event>
 8    1  0.2882335E-009  0.9118800E+02  0.7816164E-02  0.1184000E+00
        -11   -1    0    0    0    0  0.00000000000E+00  0.00000000000E+00  0.45593999997E+02  0.45594000000E+02  0.51100000000E-03 0. -1.
         11   -1    0    0    0    0 -0.00000000000E+00 -0.00000000000E+00 -0.45593999997E+02  0.45594000000E+02  0.51100000000E-03 0.  1.
         23    2    1    2    0    0  0.00000000000E+00  0.00000000000E+00 -0.88817841970E-15  0.91188000000E+02  0.91188000000E+02 0.  0.
    9900012    2    3    3    0    0 -0.22005365316E+02  0.39051345611E+02 -0.44575631371E+01  0.46142316901E+02  0.99999921606E+01 0.  0.
         12    1    3    3    0    0  0.22005365316E+02 -0.39051345611E+02  0.44575631371E+01  0.45045683099E+02  0.00000000000E+00 0. -1.
         11    1    4    4    0    0 -0.79583170187E+01  0.12367076825E+02 -0.43602217324E+01  0.15339195963E+02  0.51100000000E-03 0.  1.
        -11    1    4    4    0    0 -0.86936611190E+01  0.18967389839E+02  0.26131912024E+01  0.21027847951E+02  0.51100000000E-03 0. -1.
         12    1    4    4    0    0 -0.53533871778E+01  0.77168789475E+01 -0.27105326072E+01  0.97752729875E+01  0.00000000000E+00 0. -1.
</event>
<event>
 8    1  0.2882335E-009  0.9118800E+02  0.7816164E-02  0.1184000E+00
        -11   -1    0    0    0    0  0.00000000000E+00  0.00000000000E+00  0.45593999997E+02  0.45594000000E+02  0.51100000000E-03 0.  1.
         11   -1    0    0    0    0 -0.00000000000E+00 -0.00000000000E+00 -0.45593999997E+02  0.45594000000E+02  0.51100000000E-03 0. -1.
         23    2    1    2    0    0 -0.17763568394E-14  0.00000000000E+00  0.00000000000E+00  0.91188000000E+02  0.91188000000E+02 0.  0.
    9900012    2    3    3    0    0 -0.12658411583E+02  0.42706668303E+02 -0.67095876848E+01  0.46142317984E+02  0.10000002036E+02 0.  0.
        -12    1    3    3    0    0  0.12658411583E+02 -0.42706668303E+02  0.67095876848E+01  0.45045682016E+02  0.00000000000E+00 0.  1.
         11    1    4    4    0    0 -0.10567440079E+02  0.19394952561E+02 -0.40382036555E+01  0.22453108107E+02  0.51100000000E-03 0. -1.
        -11    1    4    4    0    0 -0.13055018546E+01  0.15893708285E+02 -0.29803336075E+01  0.16223337721E+02  0.51100000000E-03 0.  1.
         12    1    4    4    0    0 -0.78546964944E+00  0.74180074570E+01  0.30894957815E+00  0.74658721556E+01  0.00000000000E+00 0. -1.
</event>
<event>
 8    1  0.2882335E-009  0.9118800E+02  0.7816164E-02  0.1184000E+00
        -11   -1    0    0    0    0  0.00000000000E+00  0.00000000000E+00  0.45593999997E+02  0.45594000000E+02  0.51100000000E-03 0. -1.
         11   -1    0    0    0    0 -0.00000000000E+00 -0.00000000000E+00 -0.45593999997E+02  0.45594000000E+02  0.51100000000E-03 0.  1.
         23    2    1    2    0    0 -0.88817841970E-15  0.00000000000E+00  0.00000000000E+00  0.91188000000E+02  0.91188000000E+02 0.  0.
    9900012    2    3    3    0    0  0.76152620699E+01  0.18461203943E+02  0.40377039661E+02  0.46142316531E+02  0.99999887815E+01 0.  0.
        -12    1    3    3    0    0 -0.76152620699E+01 -0.18461203943E+02 -0.40377039661E+02  0.45045683469E+02  0.00000000000E+00 0.  1.
         11    1    4    4    0    0  0.42532600275E+01  0.19192558951E+01  0.81895446748E+01  0.94256249817E+01  0.51100000000E-03 0. -1.
        -11    1    4    4    0    0  0.43385440781E+01  0.88173223160E+01  0.16538741934E+02  0.19237934467E+02  0.51100000000E-03 0.  1.
         12    1    4    4    0    0 -0.97654203579E+00  0.77246257315E+01  0.15648753053E+02  0.17478757082E+02  0.00000000000E+00 0. -1.
</event>
<event>
 8    1  0.2882335E-009  0.9118800E+02  0.7816164E-02  0.1184000E+00
        -11   -1    0    0    0    0  0.00000000000E+00  0.00000000000E+00  0.45593999997E+02  0.45594000000E+02  0.51100000000E-03 0. -1.
         11   -1    0    0    0    0 -0.00000000000E+00 -0.00000000000E+00 -0.45593999997E+02  0.45594000000E+02  0.51100000000E-03 0.  1.
         23    2    1    2    0    0 -0.71054273576E-14  0.00000000000E+00  0.88817841970E-15  0.91188000000E+02  0.91188000000E+02 0.  0.
    9900012    2    3    3    0    0  0.44466086440E+02  0.68365627288E+01  0.22676126247E+01  0.46142317629E+02  0.99999987929E+01 0.  0.
        -12    1    3    3    0    0 -0.44466086440E+02 -0.68365627288E+01 -0.22676126247E+01  0.45045682371E+02  0.00000000000E+00 0.  1.
         11    1    4    4    0    0  0.28565909923E+02  0.12163871480E+01 -0.45620751423E+00  0.28595435527E+02  0.51100000000E-03 0. -1.
        -11    1    4    4    0    0  0.76988950127E+01  0.27873936827E+01  0.33518438707E+01  0.88474519244E+01  0.51100000000E-03 0.  1.
         12    1    4    4    0    0  0.82012815045E+01  0.28327818982E+01 -0.62802373176E+00  0.86994301771E+01  0.00000000000E+00 0. -1.
</event>
<event>
 8    1  0.2882335E-009  0.9118800E+02  0.7816164E-02  0.1184000E+00
        -11   -1    0    0    0    0  0.00000000000E+00  0.00000000000E+00  0.45593999997E+02  0.45594000000E+02  0.51100000000E-03 0. -1.
         11   -1    0    0    0    0 -0.00000000000E+00 -0.00000000000E+00 -0.45593999997E+02  0.45594000000E+02  0.51100000000E-03 0.  1.
         23    2    1    2    0    0  0.00000000000E+00 -0.44408920985E-15  0.00000000000E+00  0.91188000000E+02  0.91188000000E+02 0.  0.
    9900012    2    3    3    0    0 -0.92970338856E+01 -0.23587240914E+01 -0.44012668981E+02  0.46142318195E+02  0.10000003958E+02 0.  0.
         12    1    3    3    0    0  0.92970338856E+01  0.23587240914E+01  0.44012668981E+02  0.45045681805E+02  0.00000000000E+00 0. -1.
         11    1    4    4    0    0 -0.61928395586E+01 -0.16679462335E+01 -0.13342555586E+02  0.14803955426E+02  0.51100000000E-03 0. -1.
        -11    1    4    4    0    0 -0.42274715921E+01 -0.19760803153E+01 -0.24268095688E+02  0.24712686581E+02  0.51100000000E-03 0.  1.
         12    1    4    4    0    0  0.11232772651E+01  0.12853024573E+01 -0.64020177073E+01  0.66256761878E+01  0.00000000000E+00 0. -1.
</event>
<event>
 8    1  0.2882335E-009  0.9118800E+02  0.7816164E-02  0.1184000E+00
        -11   -1    0    0    0    0  0.00000000000E+00  0.00000000000E+00  0.45593999997E+02  0.45594000000E+02  0.51100000000E-03 0. -1.
         11   -1    0    0    0    0 -0.00000000000E+00 -0.00000000000E+00 -0.45593999997E+02  0.45594000000E+02  0.51100000000E-03 0.  1.
         23    2    1    2    0    0 -0.35527136788E-14  0.00000000000E+00  0.71054273576E-14  0.91188000000E+02  0.91188000000E+02 0.  0.
    9900012    2    3    3    0    0  0.27212193138E+02  0.63200992634E+00 -0.35891650806E+02  0.46142317748E+02  0.99999998849E+01 0.  0.
         12    1    3    3    0    0 -0.27212193138E+02 -0.63200992634E+00  0.35891650806E+02  0.45045682252E+02  0.00000000000E+00 0. -1.
         11    1    4    4    0    0  0.14454712539E+02 -0.18411805332E+01 -0.11945658336E+02  0.18842171151E+02  0.51100000000E-03 0. -1.
        -11    1    4    4    0    0  0.45987546640E+01  0.16604457795E+01 -0.97227801452E+01  0.10882926016E+02  0.51100000000E-03 0.  1.
         12    1    4    4    0    0  0.81587259344E+01  0.81274468006E+00 -0.14223212325E+02  0.16417220582E+02  0.00000000000E+00 0. -1.
</event>
<event>
 8    1  0.2882335E-009  0.9118800E+02  0.7816164E-02  0.1184000E+00
        -11   -1    0    0    0    0  0.00000000000E+00  0.00000000000E+00  0.45593999997E+02  0.45594000000E+02  0.51100000000E-03 0. -1.
         11   -1    0    0    0    0 -0.00000000000E+00 -0.00000000000E+00 -0.45593999997E+02  0.45594000000E+02  0.51100000000E-03 0.  1.
         23    2    1    2    0    0  0.00000000000E+00  0.00000000000E+00  0.71054273576E-14  0.91188000000E+02  0.91188000000E+02 0.  0.
    9900012    2    3    3    0    0 -0.68297846297E+01 -0.24199743261E+02 -0.37374322745E+02  0.46142317269E+02  0.99999955157E+01 0.  0.
         12    1    3    3    0    0  0.68297846297E+01  0.24199743261E+02  0.37374322745E+02  0.45045682731E+02  0.00000000000E+00 0. -1.
         11    1    4    4    0    0 -0.32228899854E+01 -0.18725382910E+02 -0.32730320837E+02  0.37845751245E+02  0.51100000000E-03 0. -1.
        -11    1    4    4    0    0 -0.14514829398E+01 -0.79807603112E+00 -0.64749779455E+00  0.17784773631E+01  0.51100000000E-03 0.  1.
         12    1    4    4    0    0 -0.21554117045E+01 -0.46762843199E+01 -0.39965041140E+01  0.65180886608E+01  0.00000000000E+00 0. -1.
</event>
<event>
 8    1  0.2882335E-009  0.9118800E+02  0.7816164E-02  0.1184000E+00
        -11   -1    0    0    0    0  0.00000000000E+00  0.00000000000E+00  0.45593999997E+02  0.45594000000E+02  0.51100000000E-03 0. -1.
         11   -1    0    0    0    0 -0.00000000000E+00 -0.00000000000E+00 -0.45593999997E+02  0.45594000000E+02  0.51100000000E-03 0.  1.
         23    2    1    2    0    0  0.17763568394E-14  0.44408920985E-15 -0.14210854715E-13  0.91188000000E+02  0.91188000000E+02 0.  0.
    9900012    2    3    3    0    0 -0.13221563136E+02 -0.38591286256E+01  0.42888353770E+02  0.46142317692E+02  0.99999993667E+01 0.  0.
        -12    1    3    3    0    0  0.13221563136E+02  0.38591286256E+01 -0.42888353770E+02  0.45045682308E+02  0.00000000000E+00 0.  1.
         11    1    4    4    0    0 -0.10973009191E+02 -0.25495299320E+01  0.29548748164E+02  0.31623338722E+02  0.51100000000E-03 0. -1.
        -11    1    4    4    0    0  0.10197926252E+01 -0.68687508596E+00  0.88280757222E+01  0.89132875866E+01  0.51100000000E-03 0.  1.
        -12    1    4    4    0    0 -0.32683465699E+01 -0.62272360762E+00  0.45115298842E+01  0.56056913836E+01  0.00000000000E+00 0.  1.
</event>
<event>
 8    1  0.2882335E-009  0.9118800E+02  0.7816164E-02  0.1184000E+00
        -11   -1    0    0    0    0  0.00000000000E+00  0.00000000000E+00  0.45593999997E+02  0.45594000000E+02  0.51100000000E-03 0. -1.
         11   -1    0    0    0    0 -0.00000000000E+00 -0.00000000000E+00 -0.45593999997E+02  0.45594000000E+02  0.51100000000E-03 0.  1.
         23    2    1    2    0    0  0.00000000000E+00  0.00000000000E+00  0.00000000000E+00  0.91188000000E+02  0.91188000000E+02 0.  0.
    9900012    2    3    3    0    0  0.22910601511E+02 -0.25977597555E+02  0.28798998316E+02  0.46142317184E+02  0.99999947396E+01 0.  0.
        -12    1    3    3    0    0 -0.22910601511E+02  0.25977597555E+02 -0.28798998316E+02  0.45045682816E+02  0.00000000000E+00 0.  1.
         11    1    4    4    0    0  0.89037645484E+01 -0.90374797085E+01  0.74648907294E+01  0.14719974745E+02  0.51100000000E-03 0. -1.
        -11    1    4    4    0    0  0.98867301122E+01 -0.70323658847E+01  0.92139122871E+01  0.15234755730E+02  0.51100000000E-03 0.  1.
        -12    1    4    4    0    0  0.41201068504E+01 -0.99077519623E+01  0.12120195299E+02  0.16187586710E+02  0.00000000000E+00 0.  1.
</event>
<event>
 8    1  0.2882335E-009  0.9118800E+02  0.7816164E-02  0.1184000E+00
        -11   -1    0    0    0    0  0.00000000000E+00  0.00000000000E+00  0.45593999997E+02  0.45594000000E+02  0.51100000000E-03 0. -1.
         11   -1    0    0    0    0 -0.00000000000E+00 -0.00000000000E+00 -0.45593999997E+02  0.45594000000E+02  0.51100000000E-03 0.  1.
         23    2    1    2    0    0  0.35527136788E-14  0.00000000000E+00  0.00000000000E+00  0.91188000000E+02  0.91188000000E+02 0.  0.
    9900012    2    3    3    0    0  0.15041361491E+02 -0.41449751567E+02  0.92080946588E+01  0.46142317990E+02  0.10000002088E+02 0.  0.
        -12    1    3    3    0    0 -0.15041361491E+02  0.41449751567E+02 -0.92080946588E+01  0.45045682010E+02  0.00000000000E+00 0.  1.
         11    1    4    4    0    0  0.11543901068E+02 -0.19646617654E+02  0.44788451391E+01  0.23223076695E+02  0.51100000000E-03 0. -1.
        -11    1    4    4    0    0  0.17731819083E+01 -0.13622878516E+02  0.10269765984E+01  0.13776126971E+02  0.51100000000E-03 0.  1.
         12    1    4    4    0    0  0.17242785147E+01 -0.81802553973E+01  0.37022729213E+01  0.91431143242E+01  0.00000000000E+00 0. -1.
</event>
<event>
 8    1  0.2882335E-009  0.9118800E+02  0.7816164E-02  0.1184000E+00
        -11   -1    0    0    0    0  0.00000000000E+00  0.00000000000E+00  0.45593999997E+02  0.45594000000E+02  0.51100000000E-03 0. -1.
         11   -1    0    0    0    0 -0.00000000000E+00 -0.00000000000E+00 -0.45593999997E+02  0.45594000000E+02  0.51100000000E-03 0.  1.
         23    2    1    2    0    0  0.35527136788E-14 -0.14210854715E-13  0.00000000000E+00  0.91188000000E+02  0.91188000000E+02 0.  0.
    9900012    2    3    3    0    0 -0.14897900549E+02 -0.39548436760E+02 -0.15591261663E+02  0.46142315066E+02  0.99999754220E+01 0.  0.
         12    1    3    3    0    0  0.14897900549E+02  0.39548436760E+02  0.15591261663E+02  0.45045684934E+02  0.00000000000E+00 0. -1.
         11    1    4    4    0    0 -0.17158339962E+01 -0.42134023964E+00  0.29406497591E+00  0.17911137237E+01  0.51100000000E-03 0. -1.
        -11    1    4    4    0    0 -0.12623048315E+02 -0.37146973491E+02 -0.15790206149E+02  0.42291483762E+02  0.51100000000E-03 0.  1.
        -12    1    4    4    0    0 -0.55901823758E+00 -0.19801230299E+01 -0.95120490390E-01  0.20597175804E+01  0.00000000000E+00 0.  1.
</event>
<event>
 8    1  0.2882335E-009  0.9118800E+02  0.7816164E-02  0.1184000E+00
        -11   -1    0    0    0    0  0.00000000000E+00  0.00000000000E+00  0.45593999997E+02  0.45594000000E+02  0.51100000000E-03 0. -1.
         11   -1    0    0    0    0 -0.00000000000E+00 -0.00000000000E+00 -0.45593999997E+02  0.45594000000E+02  0.51100000000E-03 0.  1.
         23    2    1    2    0    0 -0.17763568394E-14 -0.22204460493E-15  0.71054273576E-14  0.91188000000E+02  0.91188000000E+02 0.  0.
    9900012    2    3    3    0    0 -0.10750390031E+02  0.17463276048E+01  0.43709185335E+02  0.46142318424E+02  0.10000006048E+02 0.  0.
        -12    1    3    3    0    0  0.10750390031E+02 -0.17463276048E+01 -0.43709185335E+02  0.45045681576E+02  0.00000000000E+00 0.  1.
         11    1    4    4    0    0 -0.82666693609E+01  0.28398339438E+01  0.18645072494E+02  0.20592260870E+02  0.51100000000E-03 0. -1.
        -11    1    4    4    0    0 -0.77446935513E+00 -0.11739218222E+01  0.21313011167E+01  0.25534956311E+01  0.51100000000E-03 0.  1.
         12    1    4    4    0    0 -0.17092513153E+01  0.80415483206E-01  0.22932811725E+02  0.22996561924E+02  0.00000000000E+00 0. -1.
</event>
<event>
 8    1  0.2882335E-009  0.9118800E+02  0.7816164E-02  0.1184000E+00
        -11   -1    0    0    0    0  0.00000000000E+00  0.00000000000E+00  0.45593999997E+02  0.45594000000E+02  0.51100000000E-03 0. -1.
         11   -1    0    0    0    0 -0.00000000000E+00 -0.00000000000E+00 -0.45593999997E+02  0.45594000000E+02  0.51100000000E-03 0.  1.
         23    2    1    2    0    0 -0.71054273576E-14 -0.11102230246E-15  0.00000000000E+00  0.91188000000E+02  0.91188000000E+02 0.  0.
    9900012    2    3    3    0    0  0.43720104386E+02  0.64260327935E+00 -0.10828360809E+02  0.46142313588E+02  0.99999619491E+01 0.  0.
         12    1    3    3    0    0 -0.43720104386E+02 -0.64260327935E+00  0.10828360809E+02  0.45045686412E+02  0.00000000000E+00 0. -1.
         11    1    4    4    0    0  0.26944086053E+02  0.18290012283E+01 -0.28603349166E+01  0.27157145189E+02  0.51100000000E-03 0. -1.
        -11    1    4    4    0    0  0.88023852122E+01  0.10835082066E+01 -0.32454191608E+01  0.94439780415E+01  0.51100000000E-03 0.  1.
         12    1    4    4    0    0  0.79736331204E+01 -0.22699061556E+01 -0.47226067320E+01  0.95411903575E+01  0.00000000000E+00 0. -1.
</event>
<event>
 8    1  0.2882335E-009  0.9118800E+02  0.7816164E-02  0.1184000E+00
        -11   -1    0    0    0    0  0.00000000000E+00  0.00000000000E+00  0.45593999997E+02  0.45594000000E+02  0.51100000000E-03 0. -1.
         11   -1    0    0    0    0 -0.00000000000E+00 -0.00000000000E+00 -0.45593999997E+02  0.45594000000E+02  0.51100000000E-03 0.  1.
         23    2    1    2    0    0  0.00000000000E+00  0.00000000000E+00  0.00000000000E+00  0.91188000000E+02  0.91188000000E+02 0.  0.
    9900012    2    3    3    0    0  0.21784994068E+02  0.18013837446E+02 -0.35071771444E+02  0.46142318095E+02  0.10000003045E+02 0.  0.
         12    1    3    3    0    0 -0.21784994068E+02 -0.18013837446E+02  0.35071771444E+02  0.45045681905E+02  0.00000000000E+00 0. -1.
         11    1    4    4    0    0  0.33795148940E+01  0.18787405556E+01 -0.78214353165E+00  0.39449379918E+01  0.51100000000E-03 0. -1.
        -11    1    4    4    0    0  0.16489342244E+02  0.13528487653E+02 -0.30443773190E+02  0.37171786507E+02  0.51100000000E-03 0.  1.
        -12    1    4    4    0    0  0.19161369292E+01  0.26066092366E+01 -0.38458547227E+01  0.50255935959E+01  0.00000000000E+00 0.  1.
</event>
<event>
 8    1  0.2882335E-009  0.9118800E+02  0.7816164E-02  0.1184000E+00
        -11   -1    0    0    0    0  0.00000000000E+00  0.00000000000E+00  0.45593999997E+02  0.45594000000E+02  0.51100000000E-03 0. -1.
         11   -1    0    0    0    0 -0.00000000000E+00 -0.00000000000E+00 -0.45593999997E+02  0.45594000000E+02  0.51100000000E-03 0.  1.
         23    2    1    2    0    0  0.88817841970E-15  0.35527136788E-14  0.00000000000E+00  0.91188000000E+02  0.91188000000E+02 0.  0.
    9900012    2    3    3    0    0 -0.62264774062E+01 -0.30645070360E+02 -0.32422586802E+02  0.46142317708E+02  0.99999995165E+01 0.  0.
         12    1    3    3    0    0  0.62264774062E+01  0.30645070360E+02  0.32422586802E+02  0.45045682292E+02  0.00000000000E+00 0. -1.
         11    1    4    4    0    0 -0.53524211489E+01 -0.13050450953E+02 -0.12723474128E+02  0.18996038439E+02  0.51100000000E-03 0. -1.
        -11    1    4    4    0    0  0.11896578041E+01 -0.15439553996E+02 -0.14864701832E+02  0.21465192151E+02  0.51100000000E-03 0.  1.
        -12    1    4    4    0    0 -0.20637140614E+01 -0.21550654105E+01 -0.48344108413E+01  0.56810871172E+01  0.00000000000E+00 0.  1.
</event>
<event>
 8    1  0.2882335E-009  0.9118800E+02  0.7816164E-02  0.1184000E+00
        -11   -1    0    0    0    0  0.00000000000E+00  0.00000000000E+00  0.45593999997E+02  0.45594000000E+02  0.51100000000E-03 0. -1.
         11   -1    0    0    0    0 -0.00000000000E+00 -0.00000000000E+00 -0.45593999997E+02  0.45594000000E+02  0.51100000000E-03 0.  1.
         23    2    1    2    0    0  0.17763568394E-14  0.35527136788E-14  0.00000000000E+00  0.91188000000E+02  0.91188000000E+02 0.  0.
    9900012    2    3    3    0    0  0.12009698491E+02  0.13219795930E+02  0.41353567662E+02  0.46142318513E+02  0.10000006857E+02 0.  0.
        -12    1    3    3    0    0 -0.12009698491E+02 -0.13219795930E+02 -0.41353567662E+02  0.45045681487E+02  0.00000000000E+00 0.  1.
         11    1    4    4    0    0  0.26925496800E+01  0.90756423927E+01  0.17683639505E+02  0.20058120924E+02  0.51100000000E-03 0. -1.
        -11    1    4    4    0    0  0.47330239905E+01  0.37077106530E+01  0.16516401517E+02  0.17576693481E+02  0.51100000000E-03 0.  1.
        -12    1    4    4    0    0  0.45841248204E+01  0.43644288380E+00  0.71535266398E+01  0.85075041079E+01  0.00000000000E+00 0.  1.
</event>
<event>
 8    1  0.2882335E-009  0.9118800E+02  0.7816164E-02  0.1184000E+00
        -11   -1    0    0    0    0  0.00000000000E+00  0.00000000000E+00  0.45593999997E+02  0.45594000000E+02  0.51100000000E-03 0. -1.
         11   -1    0    0    0    0 -0.00000000000E+00 -0.00000000000E+00 -0.45593999997E+02  0.45594000000E+02  0.51100000000E-03 0.  1.
         23    2    1    2    0    0  0.00000000000E+00  0.00000000000E+00  0.00000000000E+00  0.91188000000E+02  0.91188000000E+02 0.  0.
    9900012    2    3    3    0    0 -0.20757523913E+02 -0.22656459633E+01  0.39913727723E+02  0.46142316396E+02  0.99999875534E+01 0.  0.
        -12    1    3    3    0    0  0.20757523913E+02  0.22656459633E+01 -0.39913727723E+02  0.45045683604E+02  0.00000000000E+00 0.  1.
         11    1    4    4    0    0 -0.15837183561E+02 -0.40202506956E+01  0.31536480680E+02  0.35518001249E+02  0.51100000000E-03 0. -1.
        -11    1    4    4    0    0 -0.34710381003E+01  0.29503367297E+01  0.67225115092E+01  0.81206375098E+01  0.51100000000E-03 0.  1.
        -12    1    4    4    0    0 -0.14493022511E+01 -0.11957319974E+01  0.16547355337E+01  0.25036776372E+01  0.00000000000E+00 0.  1.
</event>
<event>
 8    1  0.2882335E-009  0.9118800E+02  0.7816164E-02  0.1184000E+00
        -11   -1    0    0    0    0  0.00000000000E+00  0.00000000000E+00  0.45593999997E+02  0.45594000000E+02  0.51100000000E-03 0. -1.
         11   -1    0    0    0    0 -0.00000000000E+00 -0.00000000000E+00 -0.45593999997E+02  0.45594000000E+02  0.51100000000E-03 0.  1.
         23    2    1    2    0    0  0.00000000000E+00  0.35527136788E-14  0.00000000000E+00  0.91188000000E+02  0.91188000000E+02 0.  0.
    9900012    2    3    3    0    0  0.14353393416E+02  0.24296452126E+02 -0.35110909807E+02  0.46142317899E+02  0.10000001259E+02 0.  0.
         12    1    3    3    0    0 -0.14353393416E+02 -0.24296452126E+02  0.35110909807E+02  0.45045682101E+02  0.00000000000E+00 0. -1.
         11    1    4    4    0    0  0.27628770412E+01  0.26001122278E+01 -0.11513914706E+01  0.39648172369E+01  0.51100000000E-03 0. -1.
        -11    1    4    4    0    0  0.85663460919E+01  0.13079563763E+02 -0.18497885787E+02  0.24220426348E+02  0.51100000000E-03 0.  1.
        -12    1    4    4    0    0  0.30241702831E+01  0.86167761350E+01 -0.15461632549E+02  0.17957074315E+02  0.00000000000E+00 0.  1.
</event>
<event>
 8    1  0.2882335E-009  0.9118800E+02  0.7816164E-02  0.1184000E+00
        -11   -1    0    0    0    0  0.00000000000E+00  0.00000000000E+00  0.45593999997E+02  0.45594000000E+02  0.51100000000E-03 0.  1.
         11   -1    0    0    0    0 -0.00000000000E+00 -0.00000000000E+00 -0.45593999997E+02  0.45594000000E+02  0.51100000000E-03 0. -1.
         23    2    1    2    0    0  0.00000000000E+00  0.00000000000E+00  0.00000000000E+00  0.91188000000E+02  0.91188000000E+02 0.  0.
    9900012    2    3    3    0    0 -0.34794237745E+02  0.19574380957E+02 -0.20864281336E+02  0.46142316458E+02  0.99999881179E+01 0.  0.
         12    1    3    3    0    0  0.34794237745E+02 -0.19574380957E+02  0.20864281336E+02  0.45045683542E+02  0.00000000000E+00 0. -1.
         11    1    4    4    0    0 -0.16791112846E+02  0.83673755147E+01 -0.11482709367E+02  0.21995614524E+02  0.51100000000E-03 0. -1.
        -11    1    4    4    0    0 -0.57840454549E+01  0.41389010908E+01 -0.67140021777E+01  0.97807724422E+01  0.51100000000E-03 0.  1.
         12    1    4    4    0    0 -0.12219079444E+02  0.70681043510E+01 -0.26675697914E+01  0.14365929492E+02  0.00000000000E+00 0. -1.
</event>
<event>
 8    1  0.2882335E-009  0.9118800E+02  0.7816164E-02  0.1184000E+00
        -11   -1    0    0    0    0  0.00000000000E+00  0.00000000000E+00  0.45593999997E+02  0.45594000000E+02  0.51100000000E-03 0. -1.
         11   -1    0    0    0    0 -0.00000000000E+00 -0.00000000000E+00 -0.45593999997E+02  0.45594000000E+02  0.51100000000E-03 0.  1.
         23    2    1    2    0    0  0.00000000000E+00  0.00000000000E+00  0.71054273576E-14  0.91188000000E+02  0.91188000000E+02 0.  0.
    9900012    2    3    3    0    0  0.26142612091E+01  0.17946016273E+02  0.41233719645E+02  0.46142317660E+02  0.99999990762E+01 0.  0.
        -12    1    3    3    0    0 -0.26142612091E+01 -0.17946016273E+02 -0.41233719645E+02  0.45045682340E+02  0.00000000000E+00 0.  1.
         11    1    4    4    0    0 -0.14840112544E+01  0.61502573094E+01  0.20225732293E+02  0.21192173117E+02  0.51100000000E-03 0. -1.
        -11    1    4    4    0    0 -0.11658000212E+01  0.15433072507E+01  0.31301292475E+01  0.36794831603E+01  0.51100000000E-03 0.  1.
         12    1    4    4    0    0  0.52640724846E+01  0.10252451713E+02  0.17877858105E+02  0.21270661383E+02  0.00000000000E+00 0. -1.
</event>
<event>
 8    1  0.2882335E-009  0.9118800E+02  0.7816164E-02  0.1184000E+00
        -11   -1    0    0    0    0  0.00000000000E+00  0.00000000000E+00  0.45593999997E+02  0.45594000000E+02  0.51100000000E-03 0. -1.
         11   -1    0    0    0    0 -0.00000000000E+00 -0.00000000000E+00 -0.45593999997E+02  0.45594000000E+02  0.51100000000E-03 0.  1.
         23    2    1    2    0    0 -0.35527136788E-14  0.00000000000E+00 -0.71054273576E-14  0.91188000000E+02  0.91188000000E+02 0.  0.
    9900012    2    3    3    0    0 -0.23683808743E+02 -0.26305889099E+02 -0.27860202668E+02  0.46142317736E+02  0.99999997753E+01 0.  0.
         12    1    3    3    0    0  0.23683808743E+02  0.26305889099E+02  0.27860202668E+02  0.45045682264E+02  0.00000000000E+00 0. -1.
         11    1    4    4    0    0 -0.22475557887E+01  0.43181376959E+00 -0.19057019940E+01  0.29781992052E+01  0.51100000000E-03 0. -1.
        -11    1    4    4    0    0 -0.54182611844E+01 -0.87965539811E+01 -0.93866856871E+01  0.13958752976E+02  0.51100000000E-03 0.  1.
        -12    1    4    4    0    0 -0.16017991770E+02 -0.17941148887E+02 -0.16567814987E+02  0.29205365555E+02  0.00000000000E+00 0.  1.
</event>
<event>
 8    1  0.2882335E-009  0.9118800E+02  0.7816164E-02  0.1184000E+00
        -11   -1    0    0    0    0  0.00000000000E+00  0.00000000000E+00  0.45593999997E+02  0.45594000000E+02  0.51100000000E-03 0. -1.
         11   -1    0    0    0    0 -0.00000000000E+00 -0.00000000000E+00 -0.45593999997E+02  0.45594000000E+02  0.51100000000E-03 0.  1.
         23    2    1    2    0    0  0.00000000000E+00  0.00000000000E+00 -0.35527136788E-14  0.91188000000E+02  0.91188000000E+02 0.  0.
    9900012    2    3    3    0    0 -0.33063336119E+02 -0.99548481722E+01 -0.28928012248E+02  0.46142322182E+02  0.10000040313E+02 0.  0.
         12    1    3    3    0    0  0.33063336119E+02  0.99548481722E+01  0.28928012248E+02  0.45045677818E+02  0.00000000000E+00 0. -1.
         11    1    4    4    0    0 -0.10006727565E+02  0.28776579063E+00 -0.64920692142E+01  0.11931654062E+02  0.51100000000E-03 0. -1.
        -11    1    4    4    0    0 -0.10882555519E+02 -0.18722883212E+01 -0.91289403481E+01  0.14327352523E+02  0.51100000000E-03 0.  1.
        -12    1    4    4    0    0 -0.12174053036E+02 -0.83703256416E+01 -0.13307002686E+02  0.19883315597E+02  0.00000000000E+00 0.  1.
</event>
<event>
 8    1  0.2882335E-009  0.9118800E+02  0.7816164E-02  0.1184000E+00
        -11   -1    0    0    0    0  0.00000000000E+00  0.00000000000E+00  0.45593999997E+02  0.45594000000E+02  0.51100000000E-03 0. -1.
         11   -1    0    0    0    0 -0.00000000000E+00 -0.00000000000E+00 -0.45593999997E+02  0.45594000000E+02  0.51100000000E-03 0.  1.
         23    2    1    2    0    0 -0.17763568394E-14  0.71054273576E-14 -0.17763568394E-14  0.91188000000E+02  0.91188000000E+02 0.  0.
    9900012    2    3    3    0    0 -0.85046710330E+01  0.41835905288E+02 -0.14371536929E+02  0.46142317916E+02  0.10000001416E+02 0.  0.
         12    1    3    3    0    0  0.85046710330E+01 -0.41835905288E+02  0.14371536929E+02  0.45045682084E+02  0.00000000000E+00 0. -1.
         11    1    4    4    0    0 -0.51541638397E+01  0.23853603043E+02 -0.57893344821E+01  0.25081391051E+02  0.51100000000E-03 0. -1.
        -11    1    4    4    0    0 -0.46615430699E+01  0.14951005638E+02 -0.56637284985E+01  0.16653539388E+02  0.51100000000E-03 0.  1.
         12    1    4    4    0    0  0.13110358766E+01  0.30312966069E+01 -0.29184739488E+01  0.44073874777E+01  0.00000000000E+00 0. -1.
</event>
<event>
 8    1  0.2882335E-009  0.9118800E+02  0.7816164E-02  0.1184000E+00
        -11   -1    0    0    0    0  0.00000000000E+00  0.00000000000E+00  0.45593999997E+02  0.45594000000E+02  0.51100000000E-03 0. -1.
         11   -1    0    0    0    0 -0.00000000000E+00 -0.00000000000E+00 -0.45593999997E+02  0.45594000000E+02  0.51100000000E-03 0.  1.
         23    2    1    2    0    0 -0.35527136788E-14  0.00000000000E+00  0.00000000000E+00  0.91188000000E+02  0.91188000000E+02 0.  0.
    9900012    2    3    3    0    0 -0.19941806465E+02  0.40091290709E+02 -0.49117969805E+01  0.46142323344E+02  0.10000050911E+02 0.  0.
         12    1    3    3    0    0  0.19941806465E+02 -0.40091290709E+02  0.49117969805E+01  0.45045676656E+02  0.00000000000E+00 0. -1.
         11    1    4    4    0    0 -0.11180972394E+01  0.45581048188E+00 -0.63657325316E+00  0.13649653475E+01  0.51100000000E-03 0. -1.
        -11    1    4    4    0    0 -0.21425530548E+01  0.18111120102E+01 -0.18629225858E+01  0.33676610768E+01  0.51100000000E-03 0.  1.
        -12    1    4    4    0    0 -0.16681156171E+02  0.37824368217E+02 -0.24123011415E+01  0.41409696920E+02  0.00000000000E+00 0.  1.
</event>
<event>
 8    1  0.2882335E-009  0.9118800E+02  0.7816164E-02  0.1184000E+00
        -11   -1    0    0    0    0  0.00000000000E+00  0.00000000000E+00  0.45593999997E+02  0.45594000000E+02  0.51100000000E-03 0. -1.
         11   -1    0    0    0    0 -0.00000000000E+00 -0.00000000000E+00 -0.45593999997E+02  0.45594000000E+02  0.51100000000E-03 0.  1.
         23    2    1    2    0    0  0.00000000000E+00  0.00000000000E+00  0.00000000000E+00  0.91188000000E+02  0.91188000000E+02 0.  0.
    9900012    2    3    3    0    0  0.24601088347E+02  0.14148566299E+01 -0.37708064452E+02  0.46142317722E+02  0.99999996428E+01 0.  0.
         12    1    3    3    0    0 -0.24601088347E+02 -0.14148566299E+01  0.37708064452E+02  0.45045682278E+02  0.00000000000E+00 0. -1.
         11    1    4    4    0    0  0.45726962644E+01  0.23752226151E+01 -0.11611076363E+02  0.12703083411E+02  0.51100000000E-03 0. -1.
        -11    1    4    4    0    0  0.13926251253E+02  0.11791812388E+01 -0.20904342164E+02  0.25146022825E+02  0.51100000000E-03 0.  1.
        -12    1    4    4    0    0  0.61021408300E+01 -0.21395472240E+01 -0.51926459261E+01  0.82932114857E+01  0.00000000000E+00 0.  1.
</event>
<event>
 8    1  0.2882335E-009  0.9118800E+02  0.7816164E-02  0.1184000E+00
        -11   -1    0    0    0    0  0.00000000000E+00  0.00000000000E+00  0.45593999997E+02  0.45594000000E+02  0.51100000000E-03 0. -1.
         11   -1    0    0    0    0 -0.00000000000E+00 -0.00000000000E+00 -0.45593999997E+02  0.45594000000E+02  0.51100000000E-03 0.  1.
         23    2    1    2    0    0  0.00000000000E+00 -0.17763568394E-14  0.00000000000E+00  0.91188000000E+02  0.91188000000E+02 0.  0.
    9900012    2    3    3    0    0  0.36032892077E+02 -0.12935078268E+02  0.23736634674E+02  0.46142318888E+02  0.10000010275E+02 0.  0.
        -12    1    3    3    0    0 -0.36032892077E+02  0.12935078268E+02 -0.23736634674E+02  0.45045681112E+02  0.00000000000E+00 0.  1.
         11    1    4    4    0    0  0.12747062801E+02 -0.85837235826E+01  0.90556275550E+01  0.17837385214E+02  0.51100000000E-03 0.  1.
        -11    1    4    4    0    0  0.11900001311E+02 -0.21946089384E+01  0.10384894198E+02  0.15945920085E+02  0.51100000000E-03 0. -1.
        -12    1    4    4    0    0  0.11385827965E+02 -0.21567457469E+01  0.42961129206E+01  0.12359013589E+02  0.00000000000E+00 0.  1.
</event>
<event>
 8    1  0.2882335E-009  0.9118800E+02  0.7816164E-02  0.1184000E+00
        -11   -1    0    0    0    0  0.00000000000E+00  0.00000000000E+00  0.45593999997E+02  0.45594000000E+02  0.51100000000E-03 0. -1.
         11   -1    0    0    0    0 -0.00000000000E+00 -0.00000000000E+00 -0.45593999997E+02  0.45594000000E+02  0.51100000000E-03 0.  1.
         23    2    1    2    0    0  0.35527136788E-14  0.17763568394E-14  0.00000000000E+00  0.91188000000E+02  0.91188000000E+02 0.  0.
    9900012    2    3    3    0    0  0.24112838896E+02 -0.90866182095E+01  0.36947496954E+02  0.46142321392E+02  0.10000033110E+02 0.  0.
        -12    1    3    3    0    0 -0.24112838896E+02  0.90866182095E+01 -0.36947496954E+02  0.45045678608E+02  0.00000000000E+00 0.  1.
         11    1    4    4    0    0  0.13316949378E+02 -0.54513456320E+01  0.26429909951E+02  0.30093162849E+02  0.51100000000E-03 0. -1.
        -11    1    4    4    0    0  0.42184790202E+01 -0.18863358023E+01  0.17301419675E+01  0.49342901710E+01  0.51100000000E-03 0.  1.
        -12    1    4    4    0    0  0.65774104971E+01 -0.17489367753E+01  0.87874450349E+01  0.11114868372E+02  0.00000000000E+00 0.  1.
</event>
<event>
 8    1  0.2882335E-009  0.9118800E+02  0.7816164E-02  0.1184000E+00
        -11   -1    0    0    0    0  0.00000000000E+00  0.00000000000E+00  0.45593999997E+02  0.45594000000E+02  0.51100000000E-03 0. -1.
         11   -1    0    0    0    0 -0.00000000000E+00 -0.00000000000E+00 -0.45593999997E+02  0.45594000000E+02  0.51100000000E-03 0.  1.
         23    2    1    2    0    0 -0.14210854715E-13  0.88817841970E-15  0.35527136788E-14  0.91188000000E+02  0.91188000000E+02 0.  0.
    9900012    2    3    3    0    0  0.37013704439E+02 -0.70927969673E+01 -0.24673698617E+02  0.46142317759E+02  0.99999999778E+01 0.  0.
         12    1    3    3    0    0 -0.37013704439E+02  0.70927969673E+01  0.24673698617E+02  0.45045682241E+02  0.00000000000E+00 0. -1.
         11    1    4    4    0    0  0.11741444348E+01  0.31874809201E+00 -0.74664285939E+00  0.14274772575E+01  0.51100000000E-03 0. -1.
        -11    1    4    4    0    0  0.31917673729E+02 -0.33973902714E+01 -0.21268824729E+02  0.38505104370E+02  0.51100000000E-03 0.  1.
        -12    1    4    4    0    0  0.39218862758E+01 -0.40141547879E+01 -0.26582310289E+01  0.62097361316E+01  0.00000000000E+00 0.  1.
</event>
<event>
 8    1  0.2882335E-009  0.9118800E+02  0.7816164E-02  0.1184000E+00
        -11   -1    0    0    0    0  0.00000000000E+00  0.00000000000E+00  0.45593999997E+02  0.45594000000E+02  0.51100000000E-03 0. -1.
         11   -1    0    0    0    0 -0.00000000000E+00 -0.00000000000E+00 -0.45593999997E+02  0.45594000000E+02  0.51100000000E-03 0.  1.
         23    2    1    2    0    0 -0.71054273576E-14  0.00000000000E+00 -0.35527136788E-14  0.91188000000E+02  0.91188000000E+02 0.  0.
    9900012    2    3    3    0    0 -0.30210692824E+02  0.18420265976E+02  0.27876897521E+02  0.46142316800E+02  0.99999912365E+01 0.  0.
        -12    1    3    3    0    0  0.30210692824E+02 -0.18420265976E+02 -0.27876897521E+02  0.45045683200E+02  0.00000000000E+00 0.  1.
         11    1    4    4    0    0 -0.17314265333E+02  0.15396620135E+02  0.19577661180E+02  0.30333554245E+02  0.51100000000E-03 0. -1.
        -11    1    4    4    0    0 -0.63431433118E+01  0.24495747747E+01  0.33730617560E+01  0.75903510802E+01  0.51100000000E-03 0.  1.
         12    1    4    4    0    0 -0.65532841789E+01  0.57407106648E+00  0.49261745855E+01  0.82184114746E+01  0.00000000000E+00 0. -1.
</event>
<event>
 8    1  0.2882335E-009  0.9118800E+02  0.7816164E-02  0.1184000E+00
        -11   -1    0    0    0    0  0.00000000000E+00  0.00000000000E+00  0.45593999997E+02  0.45594000000E+02  0.51100000000E-03 0. -1.
         11   -1    0    0    0    0 -0.00000000000E+00 -0.00000000000E+00 -0.45593999997E+02  0.45594000000E+02  0.51100000000E-03 0.  1.
         23    2    1    2    0    0  0.00000000000E+00  0.00000000000E+00  0.00000000000E+00  0.91188000000E+02  0.91188000000E+02 0.  0.
    9900012    2    3    3    0    0 -0.32851619342E+02 -0.25302647900E+02 -0.17597175240E+02  0.46142318070E+02  0.10000002818E+02 0.  0.
         12    1    3    3    0    0  0.32851619342E+02  0.25302647900E+02  0.17597175240E+02  0.45045681930E+02  0.00000000000E+00 0. -1.
         11    1    4    4    0    0 -0.78559661944E+01 -0.83003134514E+01 -0.41722637796E+01  0.12166313885E+02  0.51100000000E-03 0. -1.
        -11    1    4    4    0    0 -0.54430004008E+01 -0.32663613236E+00 -0.31713226273E+01  0.63079499041E+01  0.51100000000E-03 0.  1.
        -12    1    4    4    0    0 -0.19552652746E+02 -0.16675698316E+02 -0.10253588833E+02  0.27668054281E+02  0.00000000000E+00 0.  1.
</event>
<event>
 8    1  0.2882335E-009  0.9118800E+02  0.7816164E-02  0.1184000E+00
        -11   -1    0    0    0    0  0.00000000000E+00  0.00000000000E+00  0.45593999997E+02  0.45594000000E+02  0.51100000000E-03 0. -1.
         11   -1    0    0    0    0 -0.00000000000E+00 -0.00000000000E+00 -0.45593999997E+02  0.45594000000E+02  0.51100000000E-03 0.  1.
         23    2    1    2    0    0 -0.17763568394E-14  0.17763568394E-14  0.00000000000E+00  0.91188000000E+02  0.91188000000E+02 0.  0.
    9900012    2    3    3    0    0 -0.15344369865E+02  0.12163541763E+02  0.40567378122E+02  0.46142316494E+02  0.99999884476E+01 0.  0.
        -12    1    3    3    0    0  0.15344369865E+02 -0.12163541763E+02 -0.40567378122E+02  0.45045683506E+02  0.00000000000E+00 0.  1.
         11    1    4    4    0    0 -0.94461793316E+01  0.40285214704E+01  0.24951386036E+02  0.26982048747E+02  0.51100000000E-03 0. -1.
        -11    1    4    4    0    0 -0.40924688120E+01  0.83284699894E+01  0.13294945455E+02  0.16213182546E+02  0.51100000000E-03 0.  1.
        -12    1    4    4    0    0 -0.18057217216E+01 -0.19344969721E+00  0.23210466312E+01  0.29470852015E+01  0.00000000000E+00 0.  1.
</event>
<event>
 8    1  0.2882335E-009  0.9118800E+02  0.7816164E-02  0.1184000E+00
        -11   -1    0    0    0    0  0.00000000000E+00  0.00000000000E+00  0.45593999997E+02  0.45594000000E+02  0.51100000000E-03 0. -1.
         11   -1    0    0    0    0 -0.00000000000E+00 -0.00000000000E+00 -0.45593999997E+02  0.45594000000E+02  0.51100000000E-03 0.  1.
         23    2    1    2    0    0 -0.71054273576E-14  0.00000000000E+00  0.00000000000E+00  0.91188000000E+02  0.91188000000E+02 0.  0.
    9900012    2    3    3    0    0  0.41679441632E+02 -0.82936424903E+01  0.14938337866E+02  0.46142308766E+02  0.99999179795E+01 0.  0.
        -12    1    3    3    0    0 -0.41679441632E+02  0.82936424903E+01 -0.14938337866E+02  0.45045691234E+02  0.00000000000E+00 0.  1.
         11    1    4    4    0    0  0.78933015322E+01 -0.36975686401E+01  0.23049728507E+01  0.90160480827E+01  0.51100000000E-03 0.  1.
        -11    1    4    4    0    0  0.21719830335E+02 -0.23069703990E+01  0.42376088886E+01  0.22249280248E+02  0.51100000000E-03 0. -1.
        -12    1    4    4    0    0  0.12066309765E+02 -0.22891034512E+01  0.83957561261E+01  0.14876980435E+02  0.00000000000E+00 0.  1.
</event>
<event>
 8    1  0.2882335E-009  0.9118800E+02  0.7816164E-02  0.1184000E+00
        -11   -1    0    0    0    0  0.00000000000E+00  0.00000000000E+00  0.45593999997E+02  0.45594000000E+02  0.51100000000E-03 0. -1.
         11   -1    0    0    0    0 -0.00000000000E+00 -0.00000000000E+00 -0.45593999997E+02  0.45594000000E+02  0.51100000000E-03 0.  1.
         23    2    1    2    0    0  0.00000000000E+00  0.00000000000E+00  0.00000000000E+00  0.91188000000E+02  0.91188000000E+02 0.  0.
    9900012    2    3    3    0    0 -0.20102200290E+02  0.26043217925E+02 -0.30769561028E+02  0.46142317163E+02  0.99999945459E+01 0.  0.
         12    1    3    3    0    0  0.20102200290E+02 -0.26043217925E+02  0.30769561028E+02  0.45045682837E+02  0.00000000000E+00 0. -1.
         11    1    4    4    0    0 -0.16636564287E+02  0.23571442440E+02 -0.29062705534E+02  0.40951544821E+02  0.51100000000E-03 0. -1.
        -11    1    4    4    0    0 -0.82572293064E+00  0.18101553348E+01 -0.21651755594E-01  0.19897109724E+01  0.51100000000E-03 0.  1.
         12    1    4    4    0    0 -0.26399130724E+01  0.66162014952E+00 -0.16852037393E+01  0.32010613700E+01  0.00000000000E+00 0. -1.
</event>
<event>
 8    1  0.2882335E-009  0.9118800E+02  0.7816164E-02  0.1184000E+00
        -11   -1    0    0    0    0  0.00000000000E+00  0.00000000000E+00  0.45593999997E+02  0.45594000000E+02  0.51100000000E-03 0. -1.
         11   -1    0    0    0    0 -0.00000000000E+00 -0.00000000000E+00 -0.45593999997E+02  0.45594000000E+02  0.51100000000E-03 0.  1.
         23    2    1    2    0    0  0.00000000000E+00  0.17763568394E-14  0.71054273576E-14  0.91188000000E+02  0.91188000000E+02 0.  0.
    9900012    2    3    3    0    0  0.17058636719E+02 -0.12670459304E+02 -0.39718709754E+02  0.46142317296E+02  0.99999957621E+01 0.  0.
         12    1    3    3    0    0 -0.17058636719E+02  0.12670459304E+02  0.39718709754E+02  0.45045682704E+02  0.00000000000E+00 0. -1.
         11    1    4    4    0    0  0.57087762905E+01 -0.17475627984E+01 -0.86882174508E+01  0.10541784726E+02  0.51100000000E-03 0. -1.
        -11    1    4    4    0    0  0.11163593076E+02 -0.72570793538E+01 -0.20462176589E+02  0.24412940874E+02  0.51100000000E-03 0.  1.
        -12    1    4    4    0    0  0.18626735210E+00 -0.36658171518E+01 -0.10568315715E+02  0.11187591696E+02  0.00000000000E+00 0.  1.
</event>
<event>
 8    1  0.2882335E-009  0.9118800E+02  0.7816164E-02  0.1184000E+00
        -11   -1    0    0    0    0  0.00000000000E+00  0.00000000000E+00  0.45593999997E+02  0.45594000000E+02  0.51100000000E-03 0. -1.
         11   -1    0    0    0    0 -0.00000000000E+00 -0.00000000000E+00 -0.45593999997E+02  0.45594000000E+02  0.51100000000E-03 0.  1.
         23    2    1    2    0    0 -0.71054273576E-14  0.00000000000E+00 -0.71054273576E-14  0.91188000000E+02  0.91188000000E+02 0.  0.
    9900012    2    3    3    0    0  0.27705221816E+02  0.12297575780E+02  0.33321224425E+02  0.46142315599E+02  0.99999802882E+01 0.  0.
        -12    1    3    3    0    0 -0.27705221816E+02 -0.12297575780E+02 -0.33321224425E+02  0.45045684401E+02  0.00000000000E+00 0.  1.
         11    1    4    4    0    0  0.16063087649E+02  0.72870275010E+01  0.21264257670E+02  0.27627743468E+02  0.51100000000E-03 0. -1.
        -11    1    4    4    0    0  0.17857525410E+01 -0.54313093545E+00  0.46012670531E+01  0.49654367488E+01  0.51100000000E-03 0.  1.
        -12    1    4    4    0    0  0.98563816256E+01  0.55536792144E+01  0.74556997017E+01  0.13549135382E+02  0.00000000000E+00 0.  1.
</event>
<event>
 8    1  0.2882335E-009  0.9118800E+02  0.7816164E-02  0.1184000E+00
        -11   -1    0    0    0    0  0.00000000000E+00  0.00000000000E+00  0.45593999997E+02  0.45594000000E+02  0.51100000000E-03 0. -1.
         11   -1    0    0    0    0 -0.00000000000E+00 -0.00000000000E+00 -0.45593999997E+02  0.45594000000E+02  0.51100000000E-03 0.  1.
         23    2    1    2    0    0  0.00000000000E+00  0.17763568394E-14  0.00000000000E+00  0.91188000000E+02  0.91188000000E+02 0.  0.
    9900012    2    3    3    0    0 -0.71102787915E+01 -0.15703359640E+02  0.41616846402E+02  0.46142317933E+02  0.10000001565E+02 0.  0.
        -12    1    3    3    0    0  0.71102787915E+01  0.15703359640E+02 -0.41616846402E+02  0.45045682067E+02  0.00000000000E+00 0.  1.
         11    1    4    4    0    0  0.59699631919E+00 -0.66227697018E+01  0.89739698328E+01  0.11169136849E+02  0.51100000000E-03 0. -1.
        -11    1    4    4    0    0 -0.17462553080E+01 -0.71976235192E-01  0.43075534348E+01  0.46486132377E+01  0.51100000000E-03 0.  1.
         12    1    4    4    0    0 -0.59610198028E+01 -0.90086137035E+01  0.28335323134E+02  0.30324567846E+02  0.00000000000E+00 0. -1.
</event>
<event>
 8    1  0.2882335E-009  0.9118800E+02  0.7816164E-02  0.1184000E+00
        -11   -1    0    0    0    0  0.00000000000E+00  0.00000000000E+00  0.45593999997E+02  0.45594000000E+02  0.51100000000E-03 0. -1.
         11   -1    0    0    0    0 -0.00000000000E+00 -0.00000000000E+00 -0.45593999997E+02  0.45594000000E+02  0.51100000000E-03 0.  1.
         23    2    1    2    0    0  0.00000000000E+00  0.00000000000E+00  0.00000000000E+00  0.91188000000E+02  0.91188000000E+02 0.  0.
    9900012    2    3    3    0    0  0.36480864702E+02 -0.19931989636E+02 -0.17348655457E+02  0.46142317117E+02  0.99999941279E+01 0.  0.
         12    1    3    3    0    0 -0.36480864702E+02  0.19931989636E+02  0.17348655457E+02  0.45045682883E+02  0.00000000000E+00 0. -1.
         11    1    4    4    0    0  0.41432678581E+01 -0.49969043043E+00 -0.29162013207E+01  0.50912267160E+01  0.51100000000E-03 0. -1.
        -11    1    4    4    0    0  0.24403284915E+02 -0.13330141086E+02 -0.72651838049E+01  0.28740143911E+02  0.51100000000E-03 0.  1.
        -12    1    4    4    0    0  0.79343119284E+01 -0.61021581188E+01 -0.71672703312E+01  0.12310946490E+02  0.00000000000E+00 0.  1.
</event>
<event>
 8    1  0.2882335E-009  0.9118800E+02  0.7816164E-02  0.1184000E+00
        -11   -1    0    0    0    0  0.00000000000E+00  0.00000000000E+00  0.45593999997E+02  0.45594000000E+02  0.51100000000E-03 0. -1.
         11   -1    0    0    0    0 -0.00000000000E+00 -0.00000000000E+00 -0.45593999997E+02  0.45594000000E+02  0.51100000000E-03 0.  1.
         23    2    1    2    0    0  0.00000000000E+00  0.00000000000E+00 -0.35527136788E-14  0.91188000000E+02  0.91188000000E+02 0.  0.
    9900012    2    3    3    0    0  0.73016443519E+01  0.36962194679E+02 -0.24689991800E+02  0.46142317179E+02  0.99999946932E+01 0.  0.
         12    1    3    3    0    0 -0.73016443519E+01 -0.36962194679E+02  0.24689991800E+02  0.45045682821E+02  0.00000000000E+00 0. -1.
         11    1    4    4    0    0  0.62644830656E+01  0.15854387797E+02 -0.70859915257E+01  0.18461219804E+02  0.51100000000E-03 0. -1.
        -11    1    4    4    0    0  0.67759411709E+00  0.37160392146E+01 -0.18238109795E+01  0.41945640992E+01  0.51100000000E-03 0.  1.
         12    1    4    4    0    0  0.35956716920E+00  0.17391767668E+02 -0.15780189294E+02  0.23486533276E+02  0.00000000000E+00 0. -1.
</event>
<event>
 8    1  0.2882335E-009  0.9118800E+02  0.7816164E-02  0.1184000E+00
        -11   -1    0    0    0    0  0.00000000000E+00  0.00000000000E+00  0.45593999997E+02  0.45594000000E+02  0.51100000000E-03 0. -1.
         11   -1    0    0    0    0 -0.00000000000E+00 -0.00000000000E+00 -0.45593999997E+02  0.45594000000E+02  0.51100000000E-03 0.  1.
         23    2    1    2    0    0  0.00000000000E+00 -0.71054273576E-14  0.00000000000E+00  0.91188000000E+02  0.91188000000E+02 0.  0.
    9900012    2    3    3    0    0 -0.26372929047E+02 -0.28461308256E+02  0.22880911229E+02  0.46142317045E+02  0.99999934738E+01 0.  0.
        -12    1    3    3    0    0  0.26372929047E+02  0.28461308256E+02 -0.22880911229E+02  0.45045682955E+02  0.00000000000E+00 0.  1.
         11    1    4    4    0    0 -0.20003685773E+02 -0.20575728320E+02  0.16808036045E+02  0.33256850668E+02  0.51100000000E-03 0. -1.
        -11    1    4    4    0    0 -0.50918962453E+01 -0.25521889264E+01  0.42487442027E+01  0.71058358587E+01  0.51100000000E-03 0.  1.
        -12    1    4    4    0    0 -0.12773470289E+01 -0.53333910101E+01  0.18241309809E+01  0.57796305188E+01  0.00000000000E+00 0.  1.
</event>
<event>
 8    1  0.2984279E-009  0.9118800E+02  0.7816164E-02  0.1184000E+00
        -11   -1    0    0    0    0  0.00000000000E+00  0.00000000000E+00  0.45593999997E+02  0.45594000000E+02  0.51100000000E-03 0.  1.
         11   -1    0    0    0    0 -0.00000000000E+00 -0.00000000000E+00 -0.45593999997E+02  0.45594000000E+02  0.51100000000E-03 0. -1.
         23    2    1    2    0    0  0.00000000000E+00  0.00000000000E+00  0.00000000000E+00  0.91188000000E+02  0.91188000000E+02 0.  0.
    9900012    2    3    3    0    0  0.17217413310E+01 -0.43637317875E+02 -0.11042354103E+02  0.46142317758E+02  0.99999999689E+01 0.  0.
         12    1    3    3    0    0 -0.17217413310E+01  0.43637317875E+02  0.11042354103E+02  0.45045682242E+02  0.00000000000E+00 0. -1.
         11    1    4    4    0    0 -0.95240152198E+00 -0.46128662742E+01 -0.30042554735E+01  0.55866944729E+01  0.51100000000E-03 0. -1.
        -11    1    4    4    0    0 -0.56855296356E+00 -0.31935316093E+02 -0.60149973012E+01  0.32501813169E+02  0.51100000000E-03 0.  1.
        -12    1    4    4    0    0  0.32426958165E+01 -0.70891355074E+01 -0.20231013288E+01  0.80538101162E+01  0.00000000000E+00 0.  1.
</event>
<event>
 8    1  0.2882335E-009  0.9118800E+02  0.7816164E-02  0.1184000E+00
        -11   -1    0    0    0    0  0.00000000000E+00  0.00000000000E+00  0.45593999997E+02  0.45594000000E+02  0.51100000000E-03 0. -1.
         11   -1    0    0    0    0 -0.00000000000E+00 -0.00000000000E+00 -0.45593999997E+02  0.45594000000E+02  0.51100000000E-03 0.  1.
         23    2    1    2    0    0 -0.44408920985E-15  0.00000000000E+00  0.00000000000E+00  0.91188000000E+02  0.91188000000E+02 0.  0.
    9900012    2    3    3    0    0 -0.38197803560E+01  0.11011436441E+02 -0.43511735176E+02  0.46142317049E+02  0.99999935096E+01 0.  0.
         12    1    3    3    0    0  0.38197803560E+01 -0.11011436441E+02  0.43511735176E+02  0.45045682951E+02  0.00000000000E+00 0. -1.
         11    1    4    4    0    0 -0.51737672984E+01  0.92766140753E+01 -0.32370008862E+02  0.34068180327E+02  0.51100000000E-03 0. -1.
        -11    1    4    4    0    0 -0.12185862375E+01  0.15716623618E+01 -0.60255673326E+01  0.63452767424E+01  0.51100000000E-03 0.  1.
         12    1    4    4    0    0  0.25725731799E+01  0.16316000361E+00 -0.51161589812E+01  0.57288599803E+01  0.00000000000E+00 0. -1.
</event>
<event>
 8    1  0.2882335E-009  0.9118800E+02  0.7816164E-02  0.1184000E+00
        -11   -1    0    0    0    0  0.00000000000E+00  0.00000000000E+00  0.45593999997E+02  0.45594000000E+02  0.51100000000E-03 0. -1.
         11   -1    0    0    0    0 -0.00000000000E+00 -0.00000000000E+00 -0.45593999997E+02  0.45594000000E+02  0.51100000000E-03 0.  1.
         23    2    1    2    0    0  0.17763568394E-14  0.00000000000E+00  0.00000000000E+00  0.91188000000E+02  0.91188000000E+02 0.  0.
    9900012    2    3    3    0    0 -0.11968400854E+02  0.25898052421E+01  0.43349323377E+02  0.46142317105E+02  0.99999940193E+01 0.  0.
        -12    1    3    3    0    0  0.11968400854E+02 -0.25898052421E+01 -0.43349323377E+02  0.45045682895E+02  0.00000000000E+00 0.  1.
         11    1    4    4    0    0 -0.31182165127E+01  0.78829664919E+00  0.22009491618E+02  0.22243255323E+02  0.51100000000E-03 0. -1.
        -11    1    4    4    0    0 -0.63265245832E+01 -0.10496324032E+01  0.16748635966E+02  0.17934420773E+02  0.51100000000E-03 0.  1.
         12    1    4    4    0    0 -0.25236597582E+01  0.28511409961E+01  0.45911957932E+01  0.59646410090E+01  0.00000000000E+00 0. -1.
</event>
<event>
 8    1  0.2882335E-009  0.9118800E+02  0.7816164E-02  0.1184000E+00
        -11   -1    0    0    0    0  0.00000000000E+00  0.00000000000E+00  0.45593999997E+02  0.45594000000E+02  0.51100000000E-03 0. -1.
         11   -1    0    0    0    0 -0.00000000000E+00 -0.00000000000E+00 -0.45593999997E+02  0.45594000000E+02  0.51100000000E-03 0.  1.
         23    2    1    2    0    0  0.00000000000E+00  0.00000000000E+00  0.00000000000E+00  0.91188000000E+02  0.91188000000E+02 0.  0.
    9900012    2    3    3    0    0  0.10262500343E+02  0.82874446055E+01  0.43071021835E+02  0.46142316819E+02  0.99999914048E+01 0.  0.
        -12    1    3    3    0    0 -0.10262500343E+02 -0.82874446055E+01 -0.43071021835E+02  0.45045683181E+02  0.00000000000E+00 0.  1.
         11    1    4    4    0    0 -0.10171483026E+01  0.83524077854E+00  0.12146074455E+02  0.12217174090E+02  0.51100000000E-03 0. -1.
        -11    1    4    4    0    0  0.46219397245E+01  0.17287842498E+01  0.82961288183E+01  0.96528117888E+01  0.51100000000E-03 0.  1.
         12    1    4    4    0    0  0.66577089209E+01  0.57234195771E+01  0.22628818562E+02  0.24272330940E+02  0.00000000000E+00 0. -1.
</event>
<event>
 8    1  0.2882335E-009  0.9118800E+02  0.7816164E-02  0.1184000E+00
        -11   -1    0    0    0    0  0.00000000000E+00  0.00000000000E+00  0.45593999997E+02  0.45594000000E+02  0.51100000000E-03 0. -1.
         11   -1    0    0    0    0 -0.00000000000E+00 -0.00000000000E+00 -0.45593999997E+02  0.45594000000E+02  0.51100000000E-03 0.  1.
         23    2    1    2    0    0 -0.71054273576E-14 -0.11102230246E-15  0.35527136788E-14  0.91188000000E+02  0.91188000000E+02 0.  0.
    9900012    2    3    3    0    0 -0.40998744472E+02 -0.81836177470E+00  0.18642604624E+02  0.46142317949E+02  0.10000001710E+02 0.  0.
        -12    1    3    3    0    0  0.40998744472E+02  0.81836177470E+00 -0.18642604624E+02  0.45045682051E+02  0.00000000000E+00 0.  1.
         11    1    4    4    0    0 -0.18381961818E+02  0.27927703993E+01  0.10018148573E+02  0.21120118084E+02  0.51100000000E-03 0. -1.
        -11    1    4    4    0    0 -0.79501266473E+01 -0.25139647312E+01  0.83680602820E+00  0.83800224920E+01  0.51100000000E-03 0.  1.
         12    1    4    4    0    0 -0.14666656007E+02 -0.10971674428E+01  0.77876500231E+01  0.16642177373E+02  0.00000000000E+00 0. -1.
</event>
<event>
 8    1  0.2882335E-009  0.9118800E+02  0.7816164E-02  0.1184000E+00
        -11   -1    0    0    0    0  0.00000000000E+00  0.00000000000E+00  0.45593999997E+02  0.45594000000E+02  0.51100000000E-03 0. -1.
         11   -1    0    0    0    0 -0.00000000000E+00 -0.00000000000E+00 -0.45593999997E+02  0.45594000000E+02  0.51100000000E-03 0.  1.
         23    2    1    2    0    0  0.00000000000E+00  0.00000000000E+00  0.35527136788E-14  0.91188000000E+02  0.91188000000E+02 0.  0.
    9900012    2    3    3    0    0  0.63816727804E+01 -0.35849978532E+02 -0.26517293574E+02  0.46142316892E+02  0.99999920709E+01 0.  0.
         12    1    3    3    0    0 -0.63816727804E+01  0.35849978532E+02  0.26517293574E+02  0.45045683108E+02  0.00000000000E+00 0. -1.
         11    1    4    4    0    0  0.29635834058E+01 -0.17227458325E+01 -0.29127443023E+01  0.44983062854E+01  0.51100000000E-03 0. -1.
        -11    1    4    4    0    0  0.92995908559E+00 -0.12447104367E+02 -0.82867991897E+01  0.14982198507E+02  0.51100000000E-03 0.  1.
         12    1    4    4    0    0  0.24881302891E+01 -0.21680128333E+02 -0.15317750082E+02  0.26661812100E+02  0.00000000000E+00 0. -1.
</event>
<event>
 8    1  0.2882335E-009  0.9118800E+02  0.7816164E-02  0.1184000E+00
        -11   -1    0    0    0    0  0.00000000000E+00  0.00000000000E+00  0.45593999997E+02  0.45594000000E+02  0.51100000000E-03 0. -1.
         11   -1    0    0    0    0 -0.00000000000E+00 -0.00000000000E+00 -0.45593999997E+02  0.45594000000E+02  0.51100000000E-03 0.  1.
         23    2    1    2    0    0  0.00000000000E+00  0.00000000000E+00  0.00000000000E+00  0.91188000000E+02  0.91188000000E+02 0.  0.
    9900012    2    3    3    0    0 -0.39557325149E+02 -0.19794922108E+02  0.85142597927E+01  0.46142317254E+02  0.99999953755E+01 0.  0.
        -12    1    3    3    0    0  0.39557325149E+02  0.19794922108E+02 -0.85142597927E+01  0.45045682746E+02  0.00000000000E+00 0.  1.
         11    1    4    4    0    0 -0.10121285872E+02 -0.30425790364E+01 -0.12050334668E+01  0.10637190457E+02  0.51100000000E-03 0.  1.
        -11    1    4    4    0    0 -0.66488792867E+01 -0.31488192349E+01  0.39356078104E+01  0.83433606803E+01  0.51100000000E-03 0. -1.
         12    1    4    4    0    0 -0.22787159991E+02 -0.13603523837E+02  0.57836854491E+01  0.27161766117E+02  0.00000000000E+00 0. -1.
</event>
<event>
 8    1  0.2882335E-009  0.9118800E+02  0.7816164E-02  0.1184000E+00
        -11   -1    0    0    0    0  0.00000000000E+00  0.00000000000E+00  0.45593999997E+02  0.45594000000E+02  0.51100000000E-03 0. -1.
         11   -1    0    0    0    0 -0.00000000000E+00 -0.00000000000E+00 -0.45593999997E+02  0.45594000000E+02  0.51100000000E-03 0.  1.
         23    2    1    2    0    0  0.00000000000E+00  0.00000000000E+00  0.00000000000E+00  0.91188000000E+02  0.91188000000E+02 0.  0.
    9900012    2    3    3    0    0  0.68026155116E+01  0.20704330594E+02  0.39422944858E+02  0.46142318027E+02  0.10000002427E+02 0.  0.
        -12    1    3    3    0    0 -0.68026155116E+01 -0.20704330594E+02 -0.39422944858E+02  0.45045681973E+02  0.00000000000E+00 0.  1.
         11    1    4    4    0    0 -0.81357592986E+00  0.38051104097E+01  0.12982250917E+02  0.13552845095E+02  0.51100000000E-03 0.  1.
        -11    1    4    4    0    0  0.34125819287E+01  0.56291859145E+01  0.61911160945E+01  0.90367786427E+01  0.51100000000E-03 0. -1.
        -12    1    4    4    0    0  0.42036095128E+01  0.11270034270E+02  0.20249577846E+02  0.23552694290E+02  0.00000000000E+00 0.  1.
</event>
<event>
 8    1  0.2882335E-009  0.9118800E+02  0.7816164E-02  0.1184000E+00
        -11   -1    0    0    0    0  0.00000000000E+00  0.00000000000E+00  0.45593999997E+02  0.45594000000E+02  0.51100000000E-03 0. -1.
         11   -1    0    0    0    0 -0.00000000000E+00 -0.00000000000E+00 -0.45593999997E+02  0.45594000000E+02  0.51100000000E-03 0.  1.
         23    2    1    2    0    0 -0.22204460493E-15  0.71054273576E-14  0.00000000000E+00  0.91188000000E+02  0.91188000000E+02 0.  0.
    9900012    2    3    3    0    0  0.81184005422E+00 -0.44753559398E+02  0.50570089300E+01  0.46142317605E+02  0.99999985807E+01 0.  0.
        -12    1    3    3    0    0 -0.81184005422E+00  0.44753559398E+02 -0.50570089300E+01  0.45045682395E+02  0.00000000000E+00 0.  1.
         11    1    4    4    0    0 -0.27237663323E+01 -0.58543288485E+01  0.88912183317E+00  0.65178683014E+01  0.51100000000E-03 0. -1.
        -11    1    4    4    0    0 -0.56793935265E+00 -0.57324535836E+00  0.38540854722E+00  0.89426246626E+00  0.51100000000E-03 0.  1.
         12    1    4    4    0    0  0.41035457392E+01 -0.38325985191E+02  0.37824785496E+01  0.38730186838E+02  0.00000000000E+00 0. -1.
</event>
<event>
 8    1  0.2882335E-009  0.9118800E+02  0.7816164E-02  0.1184000E+00
        -11   -1    0    0    0    0  0.00000000000E+00  0.00000000000E+00  0.45593999997E+02  0.45594000000E+02  0.51100000000E-03 0. -1.
         11   -1    0    0    0    0 -0.00000000000E+00 -0.00000000000E+00 -0.45593999997E+02  0.45594000000E+02  0.51100000000E-03 0.  1.
         23    2    1    2    0    0  0.00000000000E+00  0.00000000000E+00  0.00000000000E+00  0.91188000000E+02  0.91188000000E+02 0.  0.
    9900012    2    3    3    0    0 -0.37552827108E+02 -0.16653125076E+02  0.18481669711E+02  0.46142317478E+02  0.99999974179E+01 0.  0.
        -12    1    3    3    0    0  0.37552827108E+02  0.16653125076E+02 -0.18481669711E+02  0.45045682522E+02  0.00000000000E+00 0.  1.
         11    1    4    4    0    0 -0.23493901641E+01  0.14428355185E+00  0.28478334720E+01  0.36946728721E+01  0.51100000000E-03 0. -1.
        -11    1    4    4    0    0 -0.63011518235E+01 -0.85616565486E+00  0.36520161098E+01  0.73331272905E+01  0.51100000000E-03 0.  1.
         12    1    4    4    0    0 -0.28902285120E+02 -0.15941242973E+02  0.11981820129E+02  0.35114517315E+02  0.00000000000E+00 0. -1.
</event>
<event>
 8    1  0.2882335E-009  0.9118800E+02  0.7816164E-02  0.1184000E+00
        -11   -1    0    0    0    0  0.00000000000E+00  0.00000000000E+00  0.45593999997E+02  0.45594000000E+02  0.51100000000E-03 0. -1.
         11   -1    0    0    0    0 -0.00000000000E+00 -0.00000000000E+00 -0.45593999997E+02  0.45594000000E+02  0.51100000000E-03 0.  1.
         23    2    1    2    0    0  0.00000000000E+00  0.35527136788E-14 -0.35527136788E-14  0.91188000000E+02  0.91188000000E+02 0.  0.
    9900012    2    3    3    0    0  0.23617853868E+02 -0.23726290690E+02  0.30139238757E+02  0.46142316476E+02  0.99999882831E+01 0.  0.
        -12    1    3    3    0    0 -0.23617853868E+02  0.23726290690E+02 -0.30139238757E+02  0.45045683524E+02  0.00000000000E+00 0.  1.
         11    1    4    4    0    0  0.14618703856E+02 -0.19008531840E+02  0.19942693047E+02  0.31188808752E+02  0.51100000000E-03 0. -1.
        -11    1    4    4    0    0  0.82994196625E+01 -0.52531658586E+01  0.82892452176E+01  0.12852536902E+02  0.51100000000E-03 0.  1.
         12    1    4    4    0    0  0.69973034975E+00  0.53540700860E+00  0.19073004922E+01  0.21009708220E+01  0.00000000000E+00 0. -1.
</event>
<event>
 8    1  0.2882335E-009  0.9118800E+02  0.7816164E-02  0.1184000E+00
        -11   -1    0    0    0    0  0.00000000000E+00  0.00000000000E+00  0.45593999997E+02  0.45594000000E+02  0.51100000000E-03 0.  1.
         11   -1    0    0    0    0 -0.00000000000E+00 -0.00000000000E+00 -0.45593999997E+02  0.45594000000E+02  0.51100000000E-03 0. -1.
         23    2    1    2    0    0  0.35527136788E-14  0.71054273576E-14  0.44408920985E-15  0.91188000000E+02  0.91188000000E+02 0.  0.
    9900012    2    3    3    0    0  0.29811527490E+02  0.33557284222E+02  0.37808639421E+01  0.46142318434E+02  0.10000006136E+02 0.  0.
        -12    1    3    3    0    0 -0.29811527490E+02 -0.33557284222E+02 -0.37808639421E+01  0.45045681566E+02  0.00000000000E+00 0.  1.
         11    1    4    4    0    0  0.63488215629E+01  0.75532171806E+01 -0.27281182056E+01  0.10237248372E+02  0.51100000000E-03 0. -1.
        -11    1    4    4    0    0  0.11107632646E+02  0.10550041660E+02  0.47617384140E+01  0.16042351293E+02  0.51100000000E-03 0.  1.
         12    1    4    4    0    0  0.12355073281E+02  0.15454025381E+02  0.17472437337E+01  0.19862718770E+02  0.00000000000E+00 0. -1.
</event>
<event>
 8    1  0.2882335E-009  0.9118800E+02  0.7816164E-02  0.1184000E+00
        -11   -1    0    0    0    0  0.00000000000E+00  0.00000000000E+00  0.45593999997E+02  0.45594000000E+02  0.51100000000E-03 0.  1.
         11   -1    0    0    0    0 -0.00000000000E+00 -0.00000000000E+00 -0.45593999997E+02  0.45594000000E+02  0.51100000000E-03 0. -1.
         23    2    1    2    0    0  0.00000000000E+00 -0.35527136788E-14  0.17763568394E-14  0.91188000000E+02  0.91188000000E+02 0.  0.
    9900012    2    3    3    0    0  0.36897433440E+02  0.21982232548E+02  0.13582134931E+02  0.46142317282E+02  0.99999956317E+01 0.  0.
        -12    1    3    3    0    0 -0.36897433440E+02 -0.21982232548E+02 -0.13582134931E+02  0.45045682718E+02  0.00000000000E+00 0.  1.
         11    1    4    4    0    0  0.26980083099E+02  0.16074536913E+02  0.98321738552E+01  0.32908771840E+02  0.51100000000E-03 0. -1.
        -11    1    4    4    0    0  0.38536956217E+01  0.54507593533E+00  0.33394527658E+01  0.51283547807E+01  0.51100000000E-03 0.  1.
         12    1    4    4    0    0  0.60636547194E+01  0.53626196990E+01  0.41050830957E+00  0.81051906618E+01  0.00000000000E+00 0. -1.
</event>
<event>
 8    1  0.3477631E-009  0.9118800E+02  0.7816164E-02  0.1184000E+00
        -11   -1    0    0    0    0  0.00000000000E+00  0.00000000000E+00  0.45593999997E+02  0.45594000000E+02  0.51100000000E-03 0. -1.
         11   -1    0    0    0    0 -0.00000000000E+00 -0.00000000000E+00 -0.45593999997E+02  0.45594000000E+02  0.51100000000E-03 0.  1.
         23    2    1    2    0    0  0.35527136788E-14  0.00000000000E+00  0.00000000000E+00  0.91188000000E+02  0.91188000000E+02 0.  0.
    9900012    2    3    3    0    0 -0.16790467824E+02  0.32107961664E+02 -0.26763271015E+02  0.46142315552E+02  0.99999798562E+01 0.  0.
         12    1    3    3    0    0  0.16790467824E+02 -0.32107961664E+02  0.26763271015E+02  0.45045684448E+02  0.00000000000E+00 0. -1.
         11    1    4    4    0    0 -0.89903949436E+00  0.50168976771E+01 -0.59082109448E+01  0.78028514752E+01  0.51100000000E-03 0. -1.
        -11    1    4    4    0    0 -0.82035680780E+01  0.10323254816E+02 -0.12198422254E+02  0.17963007125E+02  0.51100000000E-03 0.  1.
        -12    1    4    4    0    0 -0.76878602513E+01  0.16767809172E+02 -0.86566378153E+01  0.20376456952E+02  0.00000000000E+00 0.  1.
</event>
<event>
 8    1  0.2882335E-009  0.9118800E+02  0.7816164E-02  0.1184000E+00
        -11   -1    0    0    0    0  0.00000000000E+00  0.00000000000E+00  0.45593999997E+02  0.45594000000E+02  0.51100000000E-03 0. -1.
         11   -1    0    0    0    0 -0.00000000000E+00 -0.00000000000E+00 -0.45593999997E+02  0.45594000000E+02  0.51100000000E-03 0.  1.
         23    2    1    2    0    0  0.00000000000E+00  0.00000000000E+00  0.00000000000E+00  0.91188000000E+02  0.91188000000E+02 0.  0.
    9900012    2    3    3    0    0  0.38734951558E+02  0.11122801017E+01 -0.22966929304E+02  0.46142317844E+02  0.10000000760E+02 0.  0.
         12    1    3    3    0    0 -0.38734951558E+02 -0.11122801017E+01  0.22966929304E+02  0.45045682156E+02  0.00000000000E+00 0. -1.
         11    1    4    4    0    0  0.62371453295E+01  0.78670406524E+00 -0.16087088583E+01  0.64891316522E+01  0.51100000000E-03 0. -1.
        -11    1    4    4    0    0  0.21366647803E+02  0.62958078689E+00 -0.18211443355E+02  0.28081785550E+02  0.51100000000E-03 0.  1.
        -12    1    4    4    0    0  0.11131158425E+02 -0.30400475047E+00 -0.31467770901E+01  0.11571400642E+02  0.00000000000E+00 0.  1.
</event>
<event>
 8    1  0.2882335E-009  0.9118800E+02  0.7816164E-02  0.1184000E+00
        -11   -1    0    0    0    0  0.00000000000E+00  0.00000000000E+00  0.45593999997E+02  0.45594000000E+02  0.51100000000E-03 0. -1.
         11   -1    0    0    0    0 -0.00000000000E+00 -0.00000000000E+00 -0.45593999997E+02  0.45594000000E+02  0.51100000000E-03 0.  1.
         23    2    1    2    0    0  0.00000000000E+00 -0.88817841970E-15  0.00000000000E+00  0.91188000000E+02  0.91188000000E+02 0.  0.
    9900012    2    3    3    0    0 -0.24681040125E+02 -0.44317984610E+01 -0.37420826056E+02  0.46142325380E+02  0.10000069473E+02 0.  0.
         12    1    3    3    0    0  0.24681040125E+02  0.44317984610E+01  0.37420826056E+02  0.45045674620E+02  0.00000000000E+00 0. -1.
         11    1    4    4    0    0 -0.10789393231E+02  0.77915149902E+00 -0.13351763480E+02  0.17183936441E+02  0.51100000000E-03 0. -1.
        -11    1    4    4    0    0 -0.32768845623E+01 -0.21118882677E+00 -0.10592221002E+02  0.11089531964E+02  0.51100000000E-03 0.  1.
         12    1    4    4    0    0 -0.10614762332E+02 -0.49997611333E+01 -0.13476841574E+02  0.17868856974E+02  0.00000000000E+00 0. -1.
</event>
<event>
 8    1  0.2882335E-009  0.9118800E+02  0.7816164E-02  0.1184000E+00
        -11   -1    0    0    0    0  0.00000000000E+00  0.00000000000E+00  0.45593999997E+02  0.45594000000E+02  0.51100000000E-03 0. -1.
         11   -1    0    0    0    0 -0.00000000000E+00 -0.00000000000E+00 -0.45593999997E+02  0.45594000000E+02  0.51100000000E-03 0.  1.
         23    2    1    2    0    0  0.00000000000E+00  0.00000000000E+00  0.17763568394E-14  0.91188000000E+02  0.91188000000E+02 0.  0.
    9900012    2    3    3    0    0  0.19082137978E+02 -0.39579078584E+02  0.99238128849E+01  0.46142317482E+02  0.99999974543E+01 0.  0.
         12    1    3    3    0    0 -0.19082137978E+02  0.39579078584E+02 -0.99238128849E+01  0.45045682518E+02  0.00000000000E+00 0. -1.
         11    1    4    4    0    0  0.28925002035E+01 -0.13093923084E+01  0.14815509906E+01  0.35037207713E+01  0.51100000000E-03 0. -1.
        -11    1    4    4    0    0  0.10238527761E+02 -0.23146852838E+02  0.29378712467E+01  0.25480096836E+02  0.51100000000E-03 0.  1.
        -12    1    4    4    0    0  0.59511100132E+01 -0.15122833437E+02  0.55043906476E+01  0.17158499875E+02  0.00000000000E+00 0.  1.
</event>
<event>
 8    1  0.2882335E-009  0.9118800E+02  0.7816164E-02  0.1184000E+00
        -11   -1    0    0    0    0  0.00000000000E+00  0.00000000000E+00  0.45593999997E+02  0.45594000000E+02  0.51100000000E-03 0. -1.
         11   -1    0    0    0    0 -0.00000000000E+00 -0.00000000000E+00 -0.45593999997E+02  0.45594000000E+02  0.51100000000E-03 0.  1.
         23    2    1    2    0    0  0.00000000000E+00  0.00000000000E+00  0.00000000000E+00  0.91188000000E+02  0.91188000000E+02 0.  0.
    9900012    2    3    3    0    0 -0.37125860201E+02 -0.25287321210E+02 -0.33668149259E+01  0.46142317051E+02  0.99999935244E+01 0.  0.
         12    1    3    3    0    0  0.37125860201E+02  0.25287321210E+02  0.33668149259E+01  0.45045682949E+02  0.00000000000E+00 0. -1.
         11    1    4    4    0    0 -0.10592199978E+02 -0.44502360449E+01 -0.31221442792E+01  0.11905758539E+02  0.51100000000E-03 0. -1.
        -11    1    4    4    0    0 -0.21199713148E+02 -0.14687764360E+02 -0.21373804211E+01  0.25879077548E+02  0.51100000000E-03 0.  1.
        -12    1    4    4    0    0 -0.53339470744E+01 -0.61493208053E+01  0.18927097744E+01  0.83574809631E+01  0.00000000000E+00 0.  1.
</event>
<event>
 8    1  0.2882335E-009  0.9118800E+02  0.7816164E-02  0.1184000E+00
        -11   -1    0    0    0    0  0.00000000000E+00  0.00000000000E+00  0.45593999997E+02  0.45594000000E+02  0.51100000000E-03 0. -1.
         11   -1    0    0    0    0 -0.00000000000E+00 -0.00000000000E+00 -0.45593999997E+02  0.45594000000E+02  0.51100000000E-03 0.  1.
         23    2    1    2    0    0  0.00000000000E+00  0.00000000000E+00  0.00000000000E+00  0.91188000000E+02  0.91188000000E+02 0.  0.
    9900012    2    3    3    0    0 -0.25138229775E+02 -0.12852723169E+02  0.35099721414E+02  0.46142317272E+02  0.99999955415E+01 0.  0.
        -12    1    3    3    0    0  0.25138229775E+02  0.12852723169E+02 -0.35099721414E+02  0.45045682728E+02  0.00000000000E+00 0.  1.
         11    1    4    4    0    0 -0.15463371074E+02 -0.77923128854E+01  0.21992460514E+02  0.27991146900E+02  0.51100000000E-03 0. -1.
        -11    1    4    4    0    0 -0.44871715598E+00  0.58717298691E+00  0.38292643481E+01  0.38999211417E+01  0.51100000000E-03 0.  1.
        -12    1    4    4    0    0 -0.92261415451E+01 -0.56475832703E+01  0.92779965525E+01  0.14251249231E+02  0.00000000000E+00 0.  1.
</event>
<event>
 8    1  0.2882335E-009  0.9118800E+02  0.7816164E-02  0.1184000E+00
        -11   -1    0    0    0    0  0.00000000000E+00  0.00000000000E+00  0.45593999997E+02  0.45594000000E+02  0.51100000000E-03 0. -1.
         11   -1    0    0    0    0 -0.00000000000E+00 -0.00000000000E+00 -0.45593999997E+02  0.45594000000E+02  0.51100000000E-03 0.  1.
         23    2    1    2    0    0  0.17763568394E-14  0.00000000000E+00  0.00000000000E+00  0.91188000000E+02  0.91188000000E+02 0.  0.
    9900012    2    3    3    0    0 -0.12568310996E+02 -0.40476630170E+02  0.15257568489E+02  0.46142318438E+02  0.10000006175E+02 0.  0.
        -12    1    3    3    0    0  0.12568310996E+02  0.40476630170E+02 -0.15257568489E+02  0.45045681562E+02  0.00000000000E+00 0.  1.
         11    1    4    4    0    0 -0.45250282189E+01 -0.22412782381E+02  0.52604417351E+01  0.23462330275E+02  0.51100000000E-03 0. -1.
        -11    1    4    4    0    0 -0.82760181102E+01 -0.13896833835E+02  0.82276344965E+01  0.18146857471E+02  0.51100000000E-03 0.  1.
        -12    1    4    4    0    0  0.23273533325E+00 -0.41670139532E+01  0.17694922569E+01  0.45331306917E+01  0.00000000000E+00 0.  1.
</event>
<event>
 8    1  0.2882335E-009  0.9118800E+02  0.7816164E-02  0.1184000E+00
        -11   -1    0    0    0    0  0.00000000000E+00  0.00000000000E+00  0.45593999997E+02  0.45594000000E+02  0.51100000000E-03 0. -1.
         11   -1    0    0    0    0 -0.00000000000E+00 -0.00000000000E+00 -0.45593999997E+02  0.45594000000E+02  0.51100000000E-03 0.  1.
         23    2    1    2    0    0 -0.35527136788E-14  0.00000000000E+00 -0.71054273576E-14  0.91188000000E+02  0.91188000000E+02 0.  0.
    9900012    2    3    3    0    0  0.31406077794E+02 -0.11862393115E+01 -0.32270190972E+02  0.46142310844E+02  0.99999369277E+01 0.  0.
         12    1    3    3    0    0 -0.31406077794E+02  0.11862393115E+01  0.32270190972E+02  0.45045689156E+02  0.00000000000E+00 0. -1.
         11    1    4    4    0    0  0.75100036950E-01  0.86316395303E+00 -0.83365322053E+00  0.12023601701E+01  0.51100000000E-03 0. -1.
        -11    1    4    4    0    0  0.21562405360E+02 -0.25698895909E-02 -0.17350057103E+02  0.27676015126E+02  0.51100000000E-03 0.  1.
         12    1    4    4    0    0  0.97685723968E+01 -0.20468333750E+01 -0.14086480649E+02  0.17263935548E+02  0.00000000000E+00 0. -1.
</event>
<event>
 8    1  0.2882335E-009  0.9118800E+02  0.7816164E-02  0.1184000E+00
        -11   -1    0    0    0    0  0.00000000000E+00  0.00000000000E+00  0.45593999997E+02  0.45594000000E+02  0.51100000000E-03 0. -1.
         11   -1    0    0    0    0 -0.00000000000E+00 -0.00000000000E+00 -0.45593999997E+02  0.45594000000E+02  0.51100000000E-03 0.  1.
         23    2    1    2    0    0  0.88817841970E-15  0.00000000000E+00  0.00000000000E+00  0.91188000000E+02  0.91188000000E+02 0.  0.
    9900012    2    3    3    0    0  0.46271188244E+01 -0.74830600040E+01  0.44178129039E+02  0.46142317620E+02  0.99999987162E+01 0.  0.
        -12    1    3    3    0    0 -0.46271188244E+01  0.74830600040E+01 -0.44178129039E+02  0.45045682380E+02  0.00000000000E+00 0.  1.
         11    1    4    4    0    0  0.48287848907E+01 -0.58205514364E+01  0.21928920141E+02  0.23196411821E+02  0.51100000000E-03 0. -1.
        -11    1    4    4    0    0 -0.15161793862E+01 -0.25376311857E+01  0.67813004487E+01  0.73975947444E+01  0.51100000000E-03 0.  1.
        -12    1    4    4    0    0  0.13145133199E+01  0.87512261807E+00  0.15467908450E+02  0.15548311055E+02  0.00000000000E+00 0.  1.
</event>
<event>
 8    1  0.2882335E-009  0.9118800E+02  0.7816164E-02  0.1184000E+00
        -11   -1    0    0    0    0  0.00000000000E+00  0.00000000000E+00  0.45593999997E+02  0.45594000000E+02  0.51100000000E-03 0. -1.
         11   -1    0    0    0    0 -0.00000000000E+00 -0.00000000000E+00 -0.45593999997E+02  0.45594000000E+02  0.51100000000E-03 0.  1.
         23    2    1    2    0    0  0.88817841970E-15  0.88817841970E-15  0.00000000000E+00  0.91188000000E+02  0.91188000000E+02 0.  0.
    9900012    2    3    3    0    0 -0.77707358732E+01 -0.42883399014E+01  0.44162645104E+02  0.46142318545E+02  0.10000007151E+02 0.  0.
        -12    1    3    3    0    0  0.77707358732E+01  0.42883399014E+01 -0.44162645104E+02  0.45045681455E+02  0.00000000000E+00 0.  1.
         11    1    4    4    0    0 -0.71282530834E+01 -0.45097049723E+01  0.26681338765E+02  0.27982910312E+02  0.51100000000E-03 0. -1.
        -11    1    4    4    0    0 -0.18939755594E-01  0.14584640410E+01  0.14106156753E+01  0.20291162898E+01  0.51100000000E-03 0.  1.
         12    1    4    4    0    0 -0.62354303416E+00 -0.12370989701E+01  0.16070690664E+02  0.16130291943E+02  0.00000000000E+00 0. -1.
</event>
<event>
 8    1  0.2882335E-009  0.9118800E+02  0.7816164E-02  0.1184000E+00
        -11   -1    0    0    0    0  0.00000000000E+00  0.00000000000E+00  0.45593999997E+02  0.45594000000E+02  0.51100000000E-03 0. -1.
         11   -1    0    0    0    0 -0.00000000000E+00 -0.00000000000E+00 -0.45593999997E+02  0.45594000000E+02  0.51100000000E-03 0.  1.
         23    2    1    2    0    0  0.00000000000E+00  0.17763568394E-14  0.00000000000E+00  0.91188000000E+02  0.91188000000E+02 0.  0.
    9900012    2    3    3    0    0  0.11061469671E+02 -0.10093722284E+02  0.42483810842E+02  0.46142317360E+02  0.99999963450E+01 0.  0.
        -12    1    3    3    0    0 -0.11061469671E+02  0.10093722284E+02 -0.42483810842E+02  0.45045682640E+02  0.00000000000E+00 0.  1.
         11    1    4    4    0    0  0.43774485978E+01 -0.10451318382E+01  0.12597838675E+02  0.13377589332E+02  0.51100000000E-03 0. -1.
        -11    1    4    4    0    0  0.55887485767E+00 -0.27429851181E+00 -0.33375631963E+00  0.70638114508E+00  0.51100000000E-03 0.  1.
         12    1    4    4    0    0  0.61251462154E+01 -0.87742919337E+01  0.30219728486E+02  0.32058346883E+02  0.00000000000E+00 0. -1.
</event>
<event>
 8    1  0.2882335E-009  0.9118800E+02  0.7816164E-02  0.1184000E+00
        -11   -1    0    0    0    0  0.00000000000E+00  0.00000000000E+00  0.45593999997E+02  0.45594000000E+02  0.51100000000E-03 0. -1.
         11   -1    0    0    0    0 -0.00000000000E+00 -0.00000000000E+00 -0.45593999997E+02  0.45594000000E+02  0.51100000000E-03 0.  1.
         23    2    1    2    0    0  0.00000000000E+00  0.00000000000E+00  0.00000000000E+00  0.91188000000E+02  0.91188000000E+02 0.  0.
    9900012    2    3    3    0    0 -0.94173030553E+01  0.12293562119E+02 -0.42300077423E+02  0.46142314120E+02  0.99999667972E+01 0.  0.
         12    1    3    3    0    0  0.94173030553E+01 -0.12293562119E+02  0.42300077423E+02  0.45045685880E+02  0.00000000000E+00 0. -1.
         11    1    4    4    0    0 -0.99180685631E+00  0.26141035451E+01 -0.24297174626E+01  0.37041524529E+01  0.51100000000E-03 0. -1.
        -11    1    4    4    0    0 -0.29968568115E+01 -0.49974410307E-01 -0.13164973075E+02  0.13501857817E+02  0.51100000000E-03 0.  1.
        -12    1    4    4    0    0 -0.54286393875E+01  0.97294329842E+01 -0.26705386885E+02  0.28936303850E+02  0.00000000000E+00 0.  1.
</event>
<event>
 8    1  0.2882335E-009  0.9118800E+02  0.7816164E-02  0.1184000E+00
        -11   -1    0    0    0    0  0.00000000000E+00  0.00000000000E+00  0.45593999997E+02  0.45594000000E+02  0.51100000000E-03 0. -1.
         11   -1    0    0    0    0 -0.00000000000E+00 -0.00000000000E+00 -0.45593999997E+02  0.45594000000E+02  0.51100000000E-03 0.  1.
         23    2    1    2    0    0  0.00000000000E+00  0.00000000000E+00  0.00000000000E+00  0.91188000000E+02  0.91188000000E+02 0.  0.
    9900012    2    3    3    0    0 -0.37478389564E+02 -0.56251454559E+00  0.24983340224E+02  0.46142318790E+02  0.10000009381E+02 0.  0.
        -12    1    3    3    0    0  0.37478389564E+02  0.56251454559E+00 -0.24983340224E+02  0.45045681210E+02  0.00000000000E+00 0.  1.
         11    1    4    4    0    0 -0.29643490258E+02 -0.10819441304E+01  0.18866119949E+02  0.35154481933E+02  0.51100000000E-03 0. -1.
        -11    1    4    4    0    0 -0.62007498169E+00 -0.14575439517E+01  0.15873054972E+01  0.22424242143E+01  0.51100000000E-03 0.  1.
        -12    1    4    4    0    0 -0.72148243242E+01  0.19769735365E+01  0.45299147784E+01  0.87454126428E+01  0.00000000000E+00 0.  1.
</event>
<event>
 8    1  0.2882335E-009  0.9118800E+02  0.7816164E-02  0.1184000E+00
        -11   -1    0    0    0    0  0.00000000000E+00  0.00000000000E+00  0.45593999997E+02  0.45594000000E+02  0.51100000000E-03 0.  1.
         11   -1    0    0    0    0 -0.00000000000E+00 -0.00000000000E+00 -0.45593999997E+02  0.45594000000E+02  0.51100000000E-03 0. -1.
         23    2    1    2    0    0  0.00000000000E+00  0.00000000000E+00  0.00000000000E+00  0.91188000000E+02  0.91188000000E+02 0.  0.
    9900012    2    3    3    0    0 -0.40625427967E+02 -0.12216738133E+02 -0.15147260970E+02  0.46142316489E+02  0.99999883975E+01 0.  0.
         12    1    3    3    0    0  0.40625427967E+02  0.12216738133E+02  0.15147260970E+02  0.45045683511E+02  0.00000000000E+00 0. -1.
         11    1    4    4    0    0 -0.59606159835E+01 -0.14894812506E+01 -0.36877132491E+01  0.71656630235E+01  0.51100000000E-03 0. -1.
        -11    1    4    4    0    0 -0.25031492210E+02 -0.39527969580E+01 -0.93548768933E+01  0.27013217653E+02  0.51100000000E-03 0.  1.
        -12    1    4    4    0    0 -0.96333197735E+01 -0.67744599247E+01 -0.21046708277E+01  0.11963435812E+02  0.00000000000E+00 0.  1.
</event>
<event>
 8    1  0.2882335E-009  0.9118800E+02  0.7816164E-02  0.1184000E+00
        -11   -1    0    0    0    0  0.00000000000E+00  0.00000000000E+00  0.45593999997E+02  0.45594000000E+02  0.51100000000E-03 0. -1.
         11   -1    0    0    0    0 -0.00000000000E+00 -0.00000000000E+00 -0.45593999997E+02  0.45594000000E+02  0.51100000000E-03 0.  1.
         23    2    1    2    0    0  0.00000000000E+00 -0.44408920985E-15  0.00000000000E+00  0.91188000000E+02  0.91188000000E+02 0.  0.
    9900012    2    3    3    0    0 -0.22128022693E+02 -0.25063827574E+01  0.39155867754E+02  0.46142319603E+02  0.10000016794E+02 0.  0.
        -12    1    3    3    0    0  0.22128022693E+02  0.25063827574E+01 -0.39155867754E+02  0.45045680397E+02  0.00000000000E+00 0.  1.
         11    1    4    4    0    0 -0.11726758279E+02  0.10522572000E+01  0.22924852666E+02  0.25771553600E+02  0.51100000000E-03 0. -1.
        -11    1    4    4    0    0 -0.37104194679E+01  0.14082783347E+01  0.49004994279E+01  0.63059777512E+01  0.51100000000E-03 0.  1.
         12    1    4    4    0    0 -0.66908449467E+01 -0.49669182922E+01  0.11330515661E+02  0.14064788251E+02  0.00000000000E+00 0. -1.
</event>
<event>
 8    1  0.2882335E-009  0.9118800E+02  0.7816164E-02  0.1184000E+00
        -11   -1    0    0    0    0  0.00000000000E+00  0.00000000000E+00  0.45593999997E+02  0.45594000000E+02  0.51100000000E-03 0. -1.
         11   -1    0    0    0    0 -0.00000000000E+00 -0.00000000000E+00 -0.45593999997E+02  0.45594000000E+02  0.51100000000E-03 0.  1.
         23    2    1    2    0    0  0.00000000000E+00  0.71054273576E-14  0.00000000000E+00  0.91188000000E+02  0.91188000000E+02 0.  0.
    9900012    2    3    3    0    0  0.11517371847E+01  0.44950307202E+02  0.26938600886E+01  0.46142317651E+02  0.99999989999E+01 0.  0.
        -12    1    3    3    0    0 -0.11517371847E+01 -0.44950307202E+02 -0.26938600886E+01  0.45045682349E+02  0.00000000000E+00 0.  1.
         11    1    4    4    0    0  0.27579943816E+01  0.46207011434E+01  0.55431800642E+00  0.54096839815E+01  0.51100000000E-03 0. -1.
        -11    1    4    4    0    0 -0.32825270360E+01  0.30476786609E+02  0.22745828986E+01  0.30737326386E+02  0.51100000000E-03 0.  1.
        -12    1    4    4    0    0  0.16762698391E+01  0.98528194493E+01 -0.13504081640E+00  0.99953072837E+01  0.00000000000E+00 0.  1.
</event>
<event>
 8    1  0.2985558E-009  0.9118800E+02  0.7816164E-02  0.1184000E+00
        -11   -1    0    0    0    0  0.00000000000E+00  0.00000000000E+00  0.45593999997E+02  0.45594000000E+02  0.51100000000E-03 0. -1.
         11   -1    0    0    0    0 -0.00000000000E+00 -0.00000000000E+00 -0.45593999997E+02  0.45594000000E+02  0.51100000000E-03 0.  1.
         23    2    1    2    0    0  0.00000000000E+00  0.00000000000E+00 -0.71054273576E-14  0.91188000000E+02  0.91188000000E+02 0.  0.
    9900012    2    3    3    0    0 -0.19042467247E+02 -0.46965875460E+01  0.40551699010E+02  0.46142314457E+02  0.99999698729E+01 0.  0.
        -12    1    3    3    0    0  0.19042467247E+02  0.46965875460E+01 -0.40551699010E+02  0.45045685543E+02  0.00000000000E+00 0.  1.
         11    1    4    4    0    0 -0.10381853008E+02 -0.33057777211E+01  0.28681217851E+02  0.30680992421E+02  0.51100000000E-03 0. -1.
        -11    1    4    4    0    0  0.33662921918E+00 -0.77381319472E+00  0.64619609698E+00  0.10628620552E+01  0.51100000000E-03 0.  1.
         12    1    4    4    0    0 -0.89972434588E+01 -0.61699663017E+00  0.11224285061E+02  0.14398459981E+02  0.00000000000E+00 0. -1.
</event>
<event>
 8    1  0.2882335E-009  0.9118800E+02  0.7816164E-02  0.1184000E+00
        -11   -1    0    0    0    0  0.00000000000E+00  0.00000000000E+00  0.45593999997E+02  0.45594000000E+02  0.51100000000E-03 0.  1.
         11   -1    0    0    0    0 -0.00000000000E+00 -0.00000000000E+00 -0.45593999997E+02  0.45594000000E+02  0.51100000000E-03 0. -1.
         23    2    1    2    0    0  0.00000000000E+00  0.71054273576E-14  0.00000000000E+00  0.91188000000E+02  0.91188000000E+02 0.  0.
    9900012    2    3    3    0    0  0.23937671801E+02 -0.36917534755E+02  0.96538576755E+01  0.46142317947E+02  0.10000001693E+02 0.  0.
        -12    1    3    3    0    0 -0.23937671801E+02  0.36917534755E+02 -0.96538576755E+01  0.45045682053E+02  0.00000000000E+00 0.  1.
         11    1    4    4    0    0  0.16716199786E+02 -0.24162605471E+02  0.10977351540E+02  0.31365029659E+02  0.51100000000E-03 0. -1.
        -11    1    4    4    0    0  0.67288458900E+01 -0.12293812287E+02 -0.14539136874E+01  0.14090033812E+02  0.51100000000E-03 0.  1.
        -12    1    4    4    0    0  0.49262612476E+00 -0.46111699682E+00  0.13041982279E+00  0.68725447524E+00  0.00000000000E+00 0.  1.
</event>
<event>
 8    1  0.2882335E-009  0.9118800E+02  0.7816164E-02  0.1184000E+00
        -11   -1    0    0    0    0  0.00000000000E+00  0.00000000000E+00  0.45593999997E+02  0.45594000000E+02  0.51100000000E-03 0. -1.
         11   -1    0    0    0    0 -0.00000000000E+00 -0.00000000000E+00 -0.45593999997E+02  0.45594000000E+02  0.51100000000E-03 0.  1.
         23    2    1    2    0    0  0.00000000000E+00 -0.17763568394E-14 -0.71054273576E-14  0.91188000000E+02  0.91188000000E+02 0.  0.
    9900012    2    3    3    0    0 -0.23468167117E+01 -0.13139284852E+02 -0.43022844078E+02  0.46142317991E+02  0.10000002095E+02 0.  0.
         12    1    3    3    0    0  0.23468167117E+01  0.13139284852E+02  0.43022844078E+02  0.45045682009E+02  0.00000000000E+00 0. -1.
         11    1    4    4    0    0  0.22528946931E+01 -0.76222617415E+01 -0.17594151478E+02  0.19306179711E+02  0.51100000000E-03 0. -1.
        -11    1    4    4    0    0 -0.41203606329E+01 -0.14315003819E+01 -0.11023764075E+02  0.11855375985E+02  0.51100000000E-03 0.  1.
        -12    1    4    4    0    0 -0.47935077183E+00 -0.40855227282E+01 -0.14404928525E+02  0.14980762295E+02  0.00000000000E+00 0.  1.
</event>
<event>
 8    1  0.2882335E-009  0.9118800E+02  0.7816164E-02  0.1184000E+00
        -11   -1    0    0    0    0  0.00000000000E+00  0.00000000000E+00  0.45593999997E+02  0.45594000000E+02  0.51100000000E-03 0. -1.
         11   -1    0    0    0    0 -0.00000000000E+00 -0.00000000000E+00 -0.45593999997E+02  0.45594000000E+02  0.51100000000E-03 0.  1.
         23    2    1    2    0    0  0.00000000000E+00  0.00000000000E+00 -0.71054273576E-14  0.91188000000E+02  0.91188000000E+02 0.  0.
    9900012    2    3    3    0    0  0.19177354048E+02 -0.11419152945E+02 -0.39127299373E+02  0.46142317427E+02  0.99999969518E+01 0.  0.
         12    1    3    3    0    0 -0.19177354048E+02  0.11419152945E+02  0.39127299373E+02  0.45045682573E+02  0.00000000000E+00 0. -1.
         11    1    4    4    0    0 -0.25729120497E+00  0.88146777241E+00 -0.19517457755E+01  0.21569645410E+01  0.51100000000E-03 0. -1.
        -11    1    4    4    0    0  0.11147494302E+02 -0.43486672044E+01 -0.20516124511E+02  0.23750555801E+02  0.51100000000E-03 0.  1.
         12    1    4    4    0    0  0.82871509507E+01 -0.79519535132E+01 -0.16659429087E+02  0.20234797085E+02  0.00000000000E+00 0. -1.
</event>
<event>
 8    1  0.2882335E-009  0.9118800E+02  0.7816164E-02  0.1184000E+00
        -11   -1    0    0    0    0  0.00000000000E+00  0.00000000000E+00  0.45593999997E+02  0.45594000000E+02  0.51100000000E-03 0. -1.
         11   -1    0    0    0    0 -0.00000000000E+00 -0.00000000000E+00 -0.45593999997E+02  0.45594000000E+02  0.51100000000E-03 0.  1.
         23    2    1    2    0    0  0.00000000000E+00 -0.88817841970E-15  0.35527136788E-14  0.91188000000E+02  0.91188000000E+02 0.  0.
    9900012    2    3    3    0    0  0.31433202744E+02  0.67686647855E+01  0.31547619355E+02  0.46142319355E+02  0.10000014539E+02 0.  0.
        -12    1    3    3    0    0 -0.31433202744E+02 -0.67686647855E+01 -0.31547619355E+02  0.45045680645E+02  0.00000000000E+00 0.  1.
         11    1    4    4    0    0  0.17790305775E+02  0.12310647716E+01  0.22389447043E+02  0.28623379241E+02  0.51100000000E-03 0. -1.
        -11    1    4    4    0    0  0.64465219882E+01  0.37380725416E+01  0.54039338844E+01  0.92050710893E+01  0.51100000000E-03 0.  1.
         12    1    4    4    0    0  0.71963749808E+01  0.17995274723E+01  0.37542384280E+01  0.83138690248E+01  0.00000000000E+00 0. -1.
</event>
<event>
 8    1  0.2882335E-009  0.9118800E+02  0.7816164E-02  0.1184000E+00
        -11   -1    0    0    0    0  0.00000000000E+00  0.00000000000E+00  0.45593999997E+02  0.45594000000E+02  0.51100000000E-03 0. -1.
         11   -1    0    0    0    0 -0.00000000000E+00 -0.00000000000E+00 -0.45593999997E+02  0.45594000000E+02  0.51100000000E-03 0.  1.
         23    2    1    2    0    0  0.88817841970E-15  0.17763568394E-14 -0.14210854715E-13  0.91188000000E+02  0.91188000000E+02 0.  0.
    9900012    2    3    3    0    0 -0.19974855818E+01 -0.91136619001E+01  0.44068863318E+02  0.46142317676E+02  0.99999992232E+01 0.  0.
        -12    1    3    3    0    0  0.19974855818E+01  0.91136619001E+01 -0.44068863318E+02  0.45045682324E+02  0.00000000000E+00 0.  1.
         11    1    4    4    0    0 -0.22737287809E+01 -0.10721755540E+02  0.32931687126E+02  0.34707663443E+02  0.51100000000E-03 0. -1.
        -11    1    4    4    0    0  0.23769446893E+00  0.67129731259E+00  0.96523470560E+01  0.96785816467E+01  0.51100000000E-03 0.  1.
         12    1    4    4    0    0  0.38548730084E-01  0.93679632785E+00  0.14848291365E+01  0.17560725865E+01  0.00000000000E+00 0. -1.
</event>
<event>
 8    1  0.2882335E-009  0.9118800E+02  0.7816164E-02  0.1184000E+00
        -11   -1    0    0    0    0  0.00000000000E+00  0.00000000000E+00  0.45593999997E+02  0.45594000000E+02  0.51100000000E-03 0. -1.
         11   -1    0    0    0    0 -0.00000000000E+00 -0.00000000000E+00 -0.45593999997E+02  0.45594000000E+02  0.51100000000E-03 0.  1.
         23    2    1    2    0    0  0.35527136788E-14  0.17763568394E-14  0.00000000000E+00  0.91188000000E+02  0.91188000000E+02 0.  0.
    9900012    2    3    3    0    0  0.31916676663E+02  0.12154117443E+02  0.29372041745E+02  0.46142315896E+02  0.99999829962E+01 0.  0.
        -12    1    3    3    0    0 -0.31916676663E+02 -0.12154117443E+02 -0.29372041745E+02  0.45045684104E+02  0.00000000000E+00 0.  1.
         11    1    4    4    0    0  0.68042943514E+01  0.59196117452E+01  0.10485304539E+02  0.13830467685E+02  0.51100000000E-03 0. -1.
        -11    1    4    4    0    0  0.13757289008E+02  0.13056606823E+01  0.93395696691E+01  0.16679188006E+02  0.51100000000E-03 0.  1.
         12    1    4    4    0    0  0.11355093304E+02  0.49288450157E+01  0.95471675368E+01  0.15632660206E+02  0.00000000000E+00 0. -1.
</event>
<event>
 8    1  0.2882335E-009  0.9118800E+02  0.7816164E-02  0.1184000E+00
        -11   -1    0    0    0    0  0.00000000000E+00  0.00000000000E+00  0.45593999997E+02  0.45594000000E+02  0.51100000000E-03 0. -1.
         11   -1    0    0    0    0 -0.00000000000E+00 -0.00000000000E+00 -0.45593999997E+02  0.45594000000E+02  0.51100000000E-03 0.  1.
         23    2    1    2    0    0 -0.35527136788E-14 -0.35527136788E-14 -0.71054273576E-14  0.91188000000E+02  0.91188000000E+02 0.  0.
    9900012    2    3    3    0    0 -0.11968157961E+02 -0.15679362769E+02 -0.40497336361E+02  0.46142317919E+02  0.10000001436E+02 0.  0.
         12    1    3    3    0    0  0.11968157961E+02  0.15679362769E+02  0.40497336361E+02  0.45045682081E+02  0.00000000000E+00 0. -1.
         11    1    4    4    0    0 -0.45997837063E+01  0.10299456728E+00 -0.86722605847E+01  0.98171646587E+01  0.51100000000E-03 0. -1.
        -11    1    4    4    0    0 -0.52070380045E+01 -0.10920784599E+02 -0.20312117520E+02  0.23642311635E+02  0.51100000000E-03 0.  1.
         12    1    4    4    0    0 -0.21613362501E+01 -0.48615727374E+01 -0.11512958256E+02  0.12682841625E+02  0.00000000000E+00 0. -1.
</event>
<event>
 8    1  0.2882335E-009  0.9118800E+02  0.7816164E-02  0.1184000E+00
        -11   -1    0    0    0    0  0.00000000000E+00  0.00000000000E+00  0.45593999997E+02  0.45594000000E+02  0.51100000000E-03 0. -1.
         11   -1    0    0    0    0 -0.00000000000E+00 -0.00000000000E+00 -0.45593999997E+02  0.45594000000E+02  0.51100000000E-03 0.  1.
         23    2    1    2    0    0  0.35527136788E-14  0.00000000000E+00 -0.71054273576E-14  0.91188000000E+02  0.91188000000E+02 0.  0.
    9900012    2    3    3    0    0 -0.20284286709E+02 -0.16106416284E+02  0.36854368329E+02  0.46142318767E+02  0.10000009172E+02 0.  0.
        -12    1    3    3    0    0  0.20284286709E+02  0.16106416284E+02 -0.36854368329E+02  0.45045681233E+02  0.00000000000E+00 0.  1.
         11    1    4    4    0    0 -0.12940872766E+01 -0.12950938022E+01  0.38559496316E+01  0.42685217182E+01  0.51100000000E-03 0. -1.
        -11    1    4    4    0    0 -0.19417328601E+02 -0.14952297003E+02  0.29523061642E+02  0.38369454057E+02  0.51100000000E-03 0.  1.
        -12    1    4    4    0    0  0.42712916799E+00  0.14097452101E+00  0.34753570552E+01  0.35043429917E+01  0.00000000000E+00 0.  1.
</event>
<event>
 8    1  0.2882335E-009  0.9118800E+02  0.7816164E-02  0.1184000E+00
        -11   -1    0    0    0    0  0.00000000000E+00  0.00000000000E+00  0.45593999997E+02  0.45594000000E+02  0.51100000000E-03 0. -1.
         11   -1    0    0    0    0 -0.00000000000E+00 -0.00000000000E+00 -0.45593999997E+02  0.45594000000E+02  0.51100000000E-03 0.  1.
         23    2    1    2    0    0  0.00000000000E+00 -0.35527136788E-14  0.00000000000E+00  0.91188000000E+02  0.91188000000E+02 0.  0.
    9900012    2    3    3    0    0 -0.24376291194E+02  0.17834277317E+02  0.33419282692E+02  0.46142317905E+02  0.10000001308E+02 0.  0.
        -12    1    3    3    0    0  0.24376291194E+02 -0.17834277317E+02 -0.33419282692E+02  0.45045682095E+02  0.00000000000E+00 0.  1.
         11    1    4    4    0    0 -0.10013755733E+02  0.88208683562E+01  0.17065583997E+02  0.21663729592E+02  0.51100000000E-03 0. -1.
        -11    1    4    4    0    0 -0.11787939568E+02  0.99897054628E+01  0.14153364082E+02  0.20953936375E+02  0.51100000000E-03 0.  1.
         12    1    4    4    0    0 -0.25745958926E+01 -0.97629650193E+00  0.22003346128E+01  0.35246519372E+01  0.00000000000E+00 0. -1.
</event>
<event>
 8    1  0.2882335E-009  0.9118800E+02  0.7816164E-02  0.1184000E+00
        -11   -1    0    0    0    0  0.00000000000E+00  0.00000000000E+00  0.45593999997E+02  0.45594000000E+02  0.51100000000E-03 0. -1.
         11   -1    0    0    0    0 -0.00000000000E+00 -0.00000000000E+00 -0.45593999997E+02  0.45594000000E+02  0.51100000000E-03 0.  1.
         23    2    1    2    0    0 -0.17763568394E-14 -0.35527136788E-14  0.00000000000E+00  0.91188000000E+02  0.91188000000E+02 0.  0.
    9900012    2    3    3    0    0  0.14176153830E+02  0.23444841213E+02 -0.35755970029E+02  0.46142319744E+02  0.10000018086E+02 0.  0.
         12    1    3    3    0    0 -0.14176153830E+02 -0.23444841213E+02  0.35755970029E+02  0.45045680256E+02  0.00000000000E+00 0. -1.
         11    1    4    4    0    0  0.76275505508E+00  0.15695481584E+01 -0.67614303957E+01  0.69829949128E+01  0.51100000000E-03 0. -1.
        -11    1    4    4    0    0  0.12697645218E+02  0.16236597173E+02 -0.23407672682E+02  0.31189363932E+02  0.51100000000E-03 0.  1.
         12    1    4    4    0    0  0.71575355735E+00  0.56386958825E+01 -0.55868669520E+01  0.79699609001E+01  0.00000000000E+00 0. -1.
</event>
<event>
 8    1  0.2882335E-009  0.9118800E+02  0.7816164E-02  0.1184000E+00
        -11   -1    0    0    0    0  0.00000000000E+00  0.00000000000E+00  0.45593999997E+02  0.45594000000E+02  0.51100000000E-03 0. -1.
         11   -1    0    0    0    0 -0.00000000000E+00 -0.00000000000E+00 -0.45593999997E+02  0.45594000000E+02  0.51100000000E-03 0.  1.
         23    2    1    2    0    0  0.00000000000E+00  0.00000000000E+00  0.00000000000E+00  0.91188000000E+02  0.91188000000E+02 0.  0.
    9900012    2    3    3    0    0  0.15873110923E+02  0.29682525333E+02  0.29935022137E+02  0.46142317512E+02  0.99999977260E+01 0.  0.
        -12    1    3    3    0    0 -0.15873110923E+02 -0.29682525333E+02 -0.29935022137E+02  0.45045682488E+02  0.00000000000E+00 0.  1.
         11    1    4    4    0    0  0.93674052741E+01  0.23759823638E+02  0.19415411924E+02  0.32081703840E+02  0.51100000000E-03 0. -1.
        -11    1    4    4    0    0  0.54333383936E+01  0.40431804284E+01  0.95039209392E+01  0.11670175130E+02  0.51100000000E-03 0.  1.
        -12    1    4    4    0    0  0.10723672549E+01  0.18795212665E+01  0.10156892740E+01  0.23904385418E+01  0.00000000000E+00 0.  1.
</event>
<event>
 8    1  0.2882335E-009  0.9118800E+02  0.7816164E-02  0.1184000E+00
        -11   -1    0    0    0    0  0.00000000000E+00  0.00000000000E+00  0.45593999997E+02  0.45594000000E+02  0.51100000000E-03 0. -1.
         11   -1    0    0    0    0 -0.00000000000E+00 -0.00000000000E+00 -0.45593999997E+02  0.45594000000E+02  0.51100000000E-03 0.  1.
         23    2    1    2    0    0  0.00000000000E+00  0.35527136788E-14  0.00000000000E+00  0.91188000000E+02  0.91188000000E+02 0.  0.
    9900012    2    3    3    0    0 -0.25525502025E+02 -0.25211565925E+02  0.27238560856E+02  0.46142317548E+02  0.99999980578E+01 0.  0.
        -12    1    3    3    0    0  0.25525502025E+02  0.25211565925E+02 -0.27238560856E+02  0.45045682452E+02  0.00000000000E+00 0.  1.
         11    1    4    4    0    0 -0.97577699658E+01 -0.97873674983E+01  0.89293488326E+01  0.16454176008E+02  0.51100000000E-03 0. -1.
        -11    1    4    4    0    0 -0.60976171872E+01 -0.26653547382E+01  0.22825915026E+01  0.70352878741E+01  0.51100000000E-03 0.  1.
        -12    1    4    4    0    0 -0.96701148725E+01 -0.12758843688E+02  0.16026620521E+02  0.22652853666E+02  0.00000000000E+00 0.  1.
</event>
<event>
 8    1  0.3483836E-009  0.9118800E+02  0.7816164E-02  0.1184000E+00
        -11   -1    0    0    0    0  0.00000000000E+00  0.00000000000E+00  0.45593999997E+02  0.45594000000E+02  0.51100000000E-03 0.  1.
         11   -1    0    0    0    0 -0.00000000000E+00 -0.00000000000E+00 -0.45593999997E+02  0.45594000000E+02  0.51100000000E-03 0. -1.
         23    2    1    2    0    0 -0.35527136788E-14  0.00000000000E+00  0.35527136788E-14  0.91188000000E+02  0.91188000000E+02 0.  0.
    9900012    2    3    3    0    0  0.19903964458E+02  0.26234702099E+02 -0.30735747060E+02  0.46142317158E+02  0.99999944961E+01 0.  0.
         12    1    3    3    0    0 -0.19903964458E+02 -0.26234702099E+02  0.30735747060E+02  0.45045682842E+02  0.00000000000E+00 0. -1.
         11    1    4    4    0    0  0.49327637957E+00  0.22725244729E+01 -0.39909266171E+01  0.46190025537E+01  0.51100000000E-03 0. -1.
        -11    1    4    4    0    0  0.28470513889E+01  0.52184870639E+00 -0.13258825175E+01  0.31837073349E+01  0.51100000000E-03 0.  1.
        -12    1    4    4    0    0  0.16563636690E+02  0.23440328920E+02 -0.25418937926E+02  0.38339607269E+02  0.00000000000E+00 0.  1.
</event>
<event>
 8    1  0.2882335E-009  0.9118800E+02  0.7816164E-02  0.1184000E+00
        -11   -1    0    0    0    0  0.00000000000E+00  0.00000000000E+00  0.45593999997E+02  0.45594000000E+02  0.51100000000E-03 0.  1.
         11   -1    0    0    0    0 -0.00000000000E+00 -0.00000000000E+00 -0.45593999997E+02  0.45594000000E+02  0.51100000000E-03 0. -1.
         23    2    1    2    0    0  0.00000000000E+00  0.00000000000E+00  0.11102230246E-15  0.91188000000E+02  0.91188000000E+02 0.  0.
    9900012    2    3    3    0    0  0.37253364852E+02 -0.25321511784E+02  0.34833624912E+00  0.46142317743E+02  0.99999998361E+01 0.  0.
        -12    1    3    3    0    0 -0.37253364852E+02  0.25321511784E+02 -0.34833624912E+00  0.45045682257E+02  0.00000000000E+00 0.  1.
         11    1    4    4    0    0  0.18435587083E+02 -0.16003450595E+02 -0.20948717894E+00  0.24413627079E+02  0.51100000000E-03 0. -1.
        -11    1    4    4    0    0  0.10134277272E+02 -0.57261508944E+01 -0.23843087390E+01  0.11881805769E+02  0.51100000000E-03 0.  1.
        -12    1    4    4    0    0  0.86835004972E+01 -0.35919102945E+01  0.29421321670E+01  0.98468848951E+01  0.00000000000E+00 0.  1.
</event>
<event>
 8    1  0.2882335E-009  0.9118800E+02  0.7816164E-02  0.1184000E+00
        -11   -1    0    0    0    0  0.00000000000E+00  0.00000000000E+00  0.45593999997E+02  0.45594000000E+02  0.51100000000E-03 0. -1.
         11   -1    0    0    0    0 -0.00000000000E+00 -0.00000000000E+00 -0.45593999997E+02  0.45594000000E+02  0.51100000000E-03 0.  1.
         23    2    1    2    0    0  0.00000000000E+00  0.00000000000E+00  0.00000000000E+00  0.91188000000E+02  0.91188000000E+02 0.  0.
    9900012    2    3    3    0    0 -0.33987202169E+02 -0.25842645649E+02  0.14357618692E+02  0.46142318077E+02  0.10000002882E+02 0.  0.
        -12    1    3    3    0    0  0.33987202169E+02  0.25842645649E+02 -0.14357618692E+02  0.45045681923E+02  0.00000000000E+00 0.  1.
         11    1    4    4    0    0 -0.85226150194E+01 -0.93956969426E+01  0.61212264535E+01  0.14084867815E+02  0.51100000000E-03 0. -1.
        -11    1    4    4    0    0 -0.21801104963E+02 -0.16429357362E+02  0.76229298851E+01  0.28342918361E+02  0.51100000000E-03 0.  1.
        -12    1    4    4    0    0 -0.36634821864E+01 -0.17591344341E-01  0.61346235320E+00  0.37145319011E+01  0.00000000000E+00 0.  1.
</event>
<event>
 8    1  0.3220160E-009  0.9118800E+02  0.7816164E-02  0.1184000E+00
        -11   -1    0    0    0    0  0.00000000000E+00  0.00000000000E+00  0.45593999997E+02  0.45594000000E+02  0.51100000000E-03 0. -1.
         11   -1    0    0    0    0 -0.00000000000E+00 -0.00000000000E+00 -0.45593999997E+02  0.45594000000E+02  0.51100000000E-03 0.  1.
         23    2    1    2    0    0  0.35527136788E-14 -0.17763568394E-14  0.71054273576E-14  0.91188000000E+02  0.91188000000E+02 0.  0.
    9900012    2    3    3    0    0  0.21842346739E+02 -0.11666273014E+02  0.37628759731E+02  0.46142316566E+02  0.99999891009E+01 0.  0.
        -12    1    3    3    0    0 -0.21842346739E+02  0.11666273014E+02 -0.37628759731E+02  0.45045683434E+02  0.00000000000E+00 0.  1.
         11    1    4    4    0    0  0.17221719056E+02 -0.10397657440E+02  0.35519123241E+02  0.40820423853E+02  0.51100000000E-03 0. -1.
        -11    1    4    4    0    0  0.18904310295E+01 -0.12432824483E+00  0.53373674940E+00  0.19682637447E+01  0.51100000000E-03 0.  1.
         12    1    4    4    0    0  0.27301966540E+01 -0.11442873294E+01  0.15758997409E+01  0.33536289680E+01  0.00000000000E+00 0. -1.
</event>
<event>
 8    1  0.2882335E-009  0.9118800E+02  0.7816164E-02  0.1184000E+00
        -11   -1    0    0    0    0  0.00000000000E+00  0.00000000000E+00  0.45593999997E+02  0.45594000000E+02  0.51100000000E-03 0.  1.
         11   -1    0    0    0    0 -0.00000000000E+00 -0.00000000000E+00 -0.45593999997E+02  0.45594000000E+02  0.51100000000E-03 0. -1.
         23    2    1    2    0    0 -0.71054273576E-14 -0.22204460493E-15  0.00000000000E+00  0.91188000000E+02  0.91188000000E+02 0.  0.
    9900012    2    3    3    0    0  0.41937946744E+02 -0.19331815498E+01 -0.16327429679E+02  0.46142317322E+02  0.99999959919E+01 0.  0.
         12    1    3    3    0    0 -0.41937946744E+02  0.19331815498E+01  0.16327429679E+02  0.45045682678E+02  0.00000000000E+00 0. -1.
         11    1    4    4    0    0  0.12450502646E+02 -0.32777821895E+00 -0.15382667924E+01  0.12549450971E+02  0.51100000000E-03 0. -1.
        -11    1    4    4    0    0  0.26865270460E+02  0.24099775610E+00 -0.13976990084E+02  0.30284601514E+02  0.51100000000E-03 0.  1.
         12    1    4    4    0    0  0.26221736386E+01 -0.18464010869E+01 -0.81217280340E+00  0.33082648364E+01  0.00000000000E+00 0. -1.
</event>
<event>
 8    1  0.2882335E-009  0.9118800E+02  0.7816164E-02  0.1184000E+00
        -11   -1    0    0    0    0  0.00000000000E+00  0.00000000000E+00  0.45593999997E+02  0.45594000000E+02  0.51100000000E-03 0. -1.
         11   -1    0    0    0    0 -0.00000000000E+00 -0.00000000000E+00 -0.45593999997E+02  0.45594000000E+02  0.51100000000E-03 0.  1.
         23    2    1    2    0    0  0.00000000000E+00  0.00000000000E+00  0.00000000000E+00  0.91188000000E+02  0.91188000000E+02 0.  0.
    9900012    2    3    3    0    0  0.16480962659E+02  0.39183965499E+02 -0.14903292516E+02  0.46142318629E+02  0.10000007914E+02 0.  0.
         12    1    3    3    0    0 -0.16480962659E+02 -0.39183965499E+02  0.14903292516E+02  0.45045681371E+02  0.00000000000E+00 0. -1.
         11    1    4    4    0    0  0.11130814722E+02  0.29197149138E+02 -0.10284053230E+02  0.32895749046E+02  0.51100000000E-03 0. -1.
        -11    1    4    4    0    0  0.29660193316E+01  0.92891298265E+01 -0.45525749351E+01  0.10761558549E+02  0.51100000000E-03 0.  1.
         12    1    4    4    0    0  0.23841286047E+01  0.69768653453E+00 -0.66664350260E-01  0.24850110341E+01  0.00000000000E+00 0. -1.
</event>
<event>
 8    1  0.2882335E-009  0.9118800E+02  0.7816164E-02  0.1184000E+00
        -11   -1    0    0    0    0  0.00000000000E+00  0.00000000000E+00  0.45593999997E+02  0.45594000000E+02  0.51100000000E-03 0. -1.
         11   -1    0    0    0    0 -0.00000000000E+00 -0.00000000000E+00 -0.45593999997E+02  0.45594000000E+02  0.51100000000E-03 0.  1.
         23    2    1    2    0    0  0.88817841970E-15  0.35527136788E-14  0.00000000000E+00  0.91188000000E+02  0.91188000000E+02 0.  0.
    9900012    2    3    3    0    0  0.55339108308E+01  0.22145594214E+02 -0.38833773243E+02  0.46142318115E+02  0.10000003230E+02 0.  0.
         12    1    3    3    0    0 -0.55339108308E+01 -0.22145594214E+02  0.38833773243E+02  0.45045681885E+02  0.00000000000E+00 0. -1.
         11    1    4    4    0    0  0.40405411379E+01  0.35872818502E+01 -0.12926347298E+02  0.14010175533E+02  0.51100000000E-03 0. -1.
        -11    1    4    4    0    0  0.22265905334E+01  0.56000623242E+01 -0.84280041565E+01  0.10360967994E+02  0.51100000000E-03 0.  1.
         12    1    4    4    0    0 -0.73322084057E+00  0.12958250040E+02 -0.17479421789E+02  0.21771174588E+02  0.00000000000E+00 0. -1.
</event>
<event>
 8    1  0.2882335E-009  0.9118800E+02  0.7816164E-02  0.1184000E+00
        -11   -1    0    0    0    0  0.00000000000E+00  0.00000000000E+00  0.45593999997E+02  0.45594000000E+02  0.51100000000E-03 0. -1.
         11   -1    0    0    0    0 -0.00000000000E+00 -0.00000000000E+00 -0.45593999997E+02  0.45594000000E+02  0.51100000000E-03 0.  1.
         23    2    1    2    0    0 -0.88817841970E-15  0.00000000000E+00  0.00000000000E+00  0.91188000000E+02  0.91188000000E+02 0.  0.
    9900012    2    3    3    0    0  0.42044611686E+01  0.22893174628E+02  0.38566026877E+02  0.46142319104E+02  0.10000012249E+02 0.  0.
        -12    1    3    3    0    0 -0.42044611686E+01 -0.22893174628E+02 -0.38566026877E+02  0.45045680896E+02  0.00000000000E+00 0.  1.
         11    1    4    4    0    0  0.67917446987E+00  0.89602388760E+01  0.15599963241E+02  0.18002944538E+02  0.51100000000E-03 0. -1.
        -11    1    4    4    0    0  0.28770982261E+01  0.22595542893E+01  0.10162938920E+02  0.10801324342E+02  0.51100000000E-03 0.  1.
        -12    1    4    4    0    0  0.64818847263E+00  0.11673381463E+02  0.12803124717E+02  0.17338050224E+02  0.00000000000E+00 0.  1.
</event>
<event>
 8    1  0.2882335E-009  0.9118800E+02  0.7816164E-02  0.1184000E+00
        -11   -1    0    0    0    0  0.00000000000E+00  0.00000000000E+00  0.45593999997E+02  0.45594000000E+02  0.51100000000E-03 0. -1.
         11   -1    0    0    0    0 -0.00000000000E+00 -0.00000000000E+00 -0.45593999997E+02  0.45594000000E+02  0.51100000000E-03 0.  1.
         23    2    1    2    0    0 -0.35527136788E-14  0.00000000000E+00  0.35527136788E-14  0.91188000000E+02  0.91188000000E+02 0.  0.
    9900012    2    3    3    0    0  0.29938259646E+02  0.20633707642E+02 -0.26590682360E+02  0.46142315744E+02  0.99999816083E+01 0.  0.
         12    1    3    3    0    0 -0.29938259646E+02 -0.20633707642E+02  0.26590682360E+02  0.45045684256E+02  0.00000000000E+00 0. -1.
         11    1    4    4    0    0  0.12724552958E+02  0.57809586103E+01 -0.14624636491E+02  0.20229031692E+02  0.51100000000E-03 0.  1.
        -11    1    4    4    0    0  0.23716961720E+01  0.28107316484E+01 -0.75240261584E+00  0.37538333859E+01  0.51100000000E-03 0. -1.
        -12    1    4    4    0    0  0.14842010517E+02  0.12042017384E+02 -0.11213643253E+02  0.22159450667E+02  0.00000000000E+00 0.  1.
</event>
<event>
 8    1  0.2882335E-009  0.9118800E+02  0.7816164E-02  0.1184000E+00
        -11   -1    0    0    0    0  0.00000000000E+00  0.00000000000E+00  0.45593999997E+02  0.45594000000E+02  0.51100000000E-03 0. -1.
         11   -1    0    0    0    0 -0.00000000000E+00 -0.00000000000E+00 -0.45593999997E+02  0.45594000000E+02  0.51100000000E-03 0.  1.
         23    2    1    2    0    0  0.00000000000E+00  0.00000000000E+00  0.00000000000E+00  0.91188000000E+02  0.91188000000E+02 0.  0.
    9900012    2    3    3    0    0  0.10906547623E+02  0.19219519237E+00 -0.43704962548E+02  0.46142317950E+02  0.10000001726E+02 0.  0.
         12    1    3    3    0    0 -0.10906547623E+02 -0.19219519237E+00  0.43704962548E+02  0.45045682050E+02  0.00000000000E+00 0. -1.
         11    1    4    4    0    0  0.15173226168E+01  0.86821031679E-01 -0.26192350963E+00  0.15422094543E+01  0.51100000000E-03 0. -1.
        -11    1    4    4    0    0  0.29622863552E+01 -0.80786338701E+00 -0.21463144712E+02  0.21681659644E+02  0.51100000000E-03 0.  1.
        -12    1    4    4    0    0  0.64269386506E+01  0.91323754770E+00 -0.21979894325E+02  0.22918448852E+02  0.00000000000E+00 0.  1.
</event>
<event>
 8    1  0.2882335E-009  0.9118800E+02  0.7816164E-02  0.1184000E+00
        -11   -1    0    0    0    0  0.00000000000E+00  0.00000000000E+00  0.45593999997E+02  0.45594000000E+02  0.51100000000E-03 0. -1.
         11   -1    0    0    0    0 -0.00000000000E+00 -0.00000000000E+00 -0.45593999997E+02  0.45594000000E+02  0.51100000000E-03 0.  1.
         23    2    1    2    0    0  0.00000000000E+00 -0.17763568394E-14  0.00000000000E+00  0.91188000000E+02  0.91188000000E+02 0.  0.
    9900012    2    3    3    0    0  0.19874669274E+02 -0.12351026010E+02  0.38491083873E+02  0.46142313636E+02  0.99999623880E+01 0.  0.
        -12    1    3    3    0    0 -0.19874669274E+02  0.12351026010E+02 -0.38491083873E+02  0.45045686364E+02  0.00000000000E+00 0.  1.
         11    1    4    4    0    0  0.12863954076E+02 -0.88171385310E+01  0.23180128465E+02  0.27938174641E+02  0.51100000000E-03 0. -1.
        -11    1    4    4    0    0  0.69651332466E+00 -0.34524660546E+01  0.58866242130E+01  0.68598103148E+01  0.51100000000E-03 0.  1.
        -12    1    4    4    0    0  0.63142018733E+01 -0.81421424242E-01  0.94243311947E+01  0.11344328680E+02  0.00000000000E+00 0.  1.
</event>
<event>
 8    1  0.2882335E-009  0.9118800E+02  0.7816164E-02  0.1184000E+00
        -11   -1    0    0    0    0  0.00000000000E+00  0.00000000000E+00  0.45593999997E+02  0.45594000000E+02  0.51100000000E-03 0. -1.
         11   -1    0    0    0    0 -0.00000000000E+00 -0.00000000000E+00 -0.45593999997E+02  0.45594000000E+02  0.51100000000E-03 0.  1.
         23    2    1    2    0    0 -0.71054273576E-14  0.00000000000E+00 -0.35527136788E-14  0.91188000000E+02  0.91188000000E+02 0.  0.
    9900012    2    3    3    0    0 -0.32498931381E+02  0.18589489895E+02 -0.25047232126E+02  0.46142317491E+02  0.99999975409E+01 0.  0.
         12    1    3    3    0    0  0.32498931381E+02 -0.18589489895E+02  0.25047232126E+02  0.45045682509E+02  0.00000000000E+00 0. -1.
         11    1    4    4    0    0 -0.40107645633E+01  0.47564380001E+01 -0.67770501416E+01  0.91999099840E+01  0.51100000000E-03 0. -1.
        -11    1    4    4    0    0 -0.28286969021E+02  0.12867285143E+02 -0.18027635586E+02  0.35926526250E+02  0.51100000000E-03 0.  1.
        -12    1    4    4    0    0 -0.20119779704E+00  0.96576675225E+00 -0.24254639884E+00  0.10158812573E+01  0.00000000000E+00 0.  1.
</event>
<event>
 8    1  0.2882335E-009  0.9118800E+02  0.7816164E-02  0.1184000E+00
        -11   -1    0    0    0    0  0.00000000000E+00  0.00000000000E+00  0.45593999997E+02  0.45594000000E+02  0.51100000000E-03 0. -1.
         11   -1    0    0    0    0 -0.00000000000E+00 -0.00000000000E+00 -0.45593999997E+02  0.45594000000E+02  0.51100000000E-03 0.  1.
         23    2    1    2    0    0  0.00000000000E+00 -0.35527136788E-14 -0.71054273576E-14  0.91188000000E+02  0.91188000000E+02 0.  0.
    9900012    2    3    3    0    0 -0.33795194320E+01 -0.14160595958E+02 -0.42628275514E+02  0.46142317601E+02  0.99999985416E+01 0.  0.
         12    1    3    3    0    0  0.33795194320E+01  0.14160595958E+02  0.42628275514E+02  0.45045682399E+02  0.00000000000E+00 0. -1.
         11    1    4    4    0    0  0.14061521467E+01 -0.11125822137E+02 -0.33128485189E+02  0.34975101333E+02  0.51100000000E-03 0.  1.
        -11    1    4    4    0    0 -0.33724598546E+01 -0.22240669876E+01 -0.79552526528E+01  0.89222197051E+01  0.51100000000E-03 0. -1.
        -12    1    4    4    0    0 -0.14132117241E+01 -0.81070683342E+00 -0.15445376726E+01  0.22449965632E+01  0.00000000000E+00 0.  1.
</event>
<event>
 8    1  0.2882335E-009  0.9118800E+02  0.7816164E-02  0.1184000E+00
        -11   -1    0    0    0    0  0.00000000000E+00  0.00000000000E+00  0.45593999997E+02  0.45594000000E+02  0.51100000000E-03 0. -1.
         11   -1    0    0    0    0 -0.00000000000E+00 -0.00000000000E+00 -0.45593999997E+02  0.45594000000E+02  0.51100000000E-03 0.  1.
         23    2    1    2    0    0  0.17763568394E-14 -0.35527136788E-14  0.00000000000E+00  0.91188000000E+02  0.91188000000E+02 0.  0.
    9900012    2    3    3    0    0  0.11917464046E+02 -0.27199187946E+02  0.33871694596E+02  0.46142317976E+02  0.10000001957E+02 0.  0.
        -12    1    3    3    0    0 -0.11917464046E+02  0.27199187946E+02 -0.33871694596E+02  0.45045682024E+02  0.00000000000E+00 0.  1.
         11    1    4    4    0    0  0.11539559409E+02 -0.20571001458E+02  0.21838146646E+02  0.32143929155E+02  0.51100000000E-03 0. -1.
        -11    1    4    4    0    0 -0.25070260834E+00 -0.33482927357E+00  0.26471810190E+01  0.26800242627E+01  0.51100000000E-03 0.  1.
         12    1    4    4    0    0  0.62860724530E+00 -0.62933572151E+01  0.93863669311E+01  0.11318364558E+02  0.00000000000E+00 0. -1.
</event>
<event>
 8    1  0.2882335E-009  0.9118800E+02  0.7816164E-02  0.1184000E+00
        -11   -1    0    0    0    0  0.00000000000E+00  0.00000000000E+00  0.45593999997E+02  0.45594000000E+02  0.51100000000E-03 0. -1.
         11   -1    0    0    0    0 -0.00000000000E+00 -0.00000000000E+00 -0.45593999997E+02  0.45594000000E+02  0.51100000000E-03 0.  1.
         23    2    1    2    0    0 -0.22204460493E-15 -0.44408920985E-15  0.71054273576E-14  0.91188000000E+02  0.91188000000E+02 0.  0.
    9900012    2    3    3    0    0 -0.73236867554E+00  0.37072563426E+01  0.44886891601E+02  0.46142321505E+02  0.10000034143E+02 0.  0.
        -12    1    3    3    0    0  0.73236867554E+00 -0.37072563426E+01 -0.44886891601E+02  0.45045678495E+02  0.00000000000E+00 0.  1.
         11    1    4    4    0    0  0.56255692705E+00 -0.59785936340E+00  0.45458999026E+01  0.46194277027E+01  0.51100000000E-03 0. -1.
        -11    1    4    4    0    0 -0.39313618114E+01  0.54674476988E+01  0.31920096078E+02  0.32622708715E+02  0.51100000000E-03 0.  1.
        -12    1    4    4    0    0  0.26364362088E+01 -0.11623319928E+01  0.84208956203E+01  0.89001850875E+01  0.00000000000E+00 0.  1.
</event>
<event>
 8    1  0.2882335E-009  0.9118800E+02  0.7816164E-02  0.1184000E+00
        -11   -1    0    0    0    0  0.00000000000E+00  0.00000000000E+00  0.45593999997E+02  0.45594000000E+02  0.51100000000E-03 0. -1.
         11   -1    0    0    0    0 -0.00000000000E+00 -0.00000000000E+00 -0.45593999997E+02  0.45594000000E+02  0.51100000000E-03 0.  1.
         23    2    1    2    0    0  0.00000000000E+00  0.35527136788E-14  0.00000000000E+00  0.91188000000E+02  0.91188000000E+02 0.  0.
    9900012    2    3    3    0    0 -0.15777052013E+02 -0.29997465931E+02 -0.29670708877E+02  0.46142308777E+02  0.99999180757E+01 0.  0.
         12    1    3    3    0    0  0.15777052013E+02  0.29997465931E+02  0.29670708877E+02  0.45045691223E+02  0.00000000000E+00 0. -1.
         11    1    4    4    0    0 -0.90764482599E+01 -0.15825930198E+02 -0.13170485327E+02  0.22501192494E+02  0.51100000000E-03 0. -1.
        -11    1    4    4    0    0 -0.54589176598E+00 -0.58441544618E+00 -0.42923082919E+01  0.43661710878E+01  0.51100000000E-03 0.  1.
        -12    1    4    4    0    0 -0.61547119874E+01 -0.13587120287E+02 -0.12207915258E+02  0.19274945195E+02  0.00000000000E+00 0.  1.
</event>
<event>
 8    1  0.2882335E-009  0.9118800E+02  0.7816164E-02  0.1184000E+00
        -11   -1    0    0    0    0  0.00000000000E+00  0.00000000000E+00  0.45593999997E+02  0.45594000000E+02  0.51100000000E-03 0.  1.
         11   -1    0    0    0    0 -0.00000000000E+00 -0.00000000000E+00 -0.45593999997E+02  0.45594000000E+02  0.51100000000E-03 0. -1.
         23    2    1    2    0    0  0.00000000000E+00  0.71054273576E-14  0.00000000000E+00  0.91188000000E+02  0.91188000000E+02 0.  0.
    9900012    2    3    3    0    0 -0.42971596079E+01  0.44781605996E+02 -0.22925192271E+01  0.46142318068E+02  0.10000002799E+02 0.  0.
         12    1    3    3    0    0  0.42971596079E+01 -0.44781605996E+02  0.22925192271E+01  0.45045681932E+02  0.00000000000E+00 0. -1.
         11    1    4    4    0    0 -0.39754173310E+00  0.92628306076E+01 -0.32159081846E+01  0.98132632701E+01  0.51100000000E-03 0. -1.
        -11    1    4    4    0    0 -0.37310472209E+01  0.18487525360E+02  0.32518561359E+01  0.19138544247E+02  0.51100000000E-03 0.  1.
        -12    1    4    4    0    0 -0.16857065400E+00  0.17031250029E+02 -0.23284671784E+01  0.17190510551E+02  0.00000000000E+00 0.  1.
</event>
<event>
 8    1  0.2985732E-009  0.9118800E+02  0.7816164E-02  0.1184000E+00
        -11   -1    0    0    0    0  0.00000000000E+00  0.00000000000E+00  0.45593999997E+02  0.45594000000E+02  0.51100000000E-03 0. -1.
         11   -1    0    0    0    0 -0.00000000000E+00 -0.00000000000E+00 -0.45593999997E+02  0.45594000000E+02  0.51100000000E-03 0.  1.
         23    2    1    2    0    0  0.00000000000E+00  0.00000000000E+00  0.00000000000E+00  0.91188000000E+02  0.91188000000E+02 0.  0.
    9900012    2    3    3    0    0 -0.40075962958E+02  0.58034392393E+01 -0.19731973785E+02  0.46142317593E+02  0.99999984684E+01 0.  0.
         12    1    3    3    0    0  0.40075962958E+02 -0.58034392393E+01  0.19731973785E+02  0.45045682407E+02  0.00000000000E+00 0. -1.
         11    1    4    4    0    0 -0.51198460606E+00 -0.29216856112E+00 -0.11410297156E+01  0.12843051732E+01  0.51100000000E-03 0. -1.
        -11    1    4    4    0    0 -0.25151100276E+02  0.55305655286E+01 -0.15658770852E+02  0.30139046186E+02  0.51100000000E-03 0.  1.
        -12    1    4    4    0    0 -0.14412878077E+02  0.56504227189E+00 -0.29321732175E+01  0.14718966234E+02  0.00000000000E+00 0.  1.
</event>
<event>
 8    1  0.2882335E-009  0.9118800E+02  0.7816164E-02  0.1184000E+00
        -11   -1    0    0    0    0  0.00000000000E+00  0.00000000000E+00  0.45593999997E+02  0.45594000000E+02  0.51100000000E-03 0.  1.
         11   -1    0    0    0    0 -0.00000000000E+00 -0.00000000000E+00 -0.45593999997E+02  0.45594000000E+02  0.51100000000E-03 0. -1.
         23    2    1    2    0    0  0.00000000000E+00  0.00000000000E+00  0.00000000000E+00  0.91188000000E+02  0.91188000000E+02 0.  0.
    9900012    2    3    3    0    0  0.25796028081E+02  0.31107058335E+02  0.19900491898E+02  0.46142315181E+02  0.99999764762E+01 0.  0.
        -12    1    3    3    0    0 -0.25796028081E+02 -0.31107058335E+02 -0.19900491898E+02  0.45045684819E+02  0.00000000000E+00 0.  1.
         11    1    4    4    0    0  0.44291076858E+01  0.75238052377E+01  0.42806624869E+00  0.87411601702E+01  0.51100000000E-03 0. -1.
        -11    1    4    4    0    0  0.11636363037E+02  0.11472478278E+02  0.11086665091E+02  0.19746818622E+02  0.51100000000E-03 0.  1.
         12    1    4    4    0    0  0.97305573574E+01  0.12110774819E+02  0.83857605581E+01  0.17654336389E+02  0.00000000000E+00 0. -1.
</event>
<event>
 8    1  0.2882335E-009  0.9118800E+02  0.7816164E-02  0.1184000E+00
        -11   -1    0    0    0    0  0.00000000000E+00  0.00000000000E+00  0.45593999997E+02  0.45594000000E+02  0.51100000000E-03 0. -1.
         11   -1    0    0    0    0 -0.00000000000E+00 -0.00000000000E+00 -0.45593999997E+02  0.45594000000E+02  0.51100000000E-03 0.  1.
         23    2    1    2    0    0 -0.35527136788E-14  0.00000000000E+00 -0.71054273576E-14  0.91188000000E+02  0.91188000000E+02 0.  0.
    9900012    2    3    3    0    0  0.20767427295E+02  0.10560305229E+02  0.38552658330E+02  0.46142317107E+02  0.99999940323E+01 0.  0.
        -12    1    3    3    0    0 -0.20767427295E+02 -0.10560305229E+02 -0.38552658330E+02  0.45045682893E+02  0.00000000000E+00 0.  1.
         11    1    4    4    0    0  0.12176787758E+02  0.65849849795E+01  0.25267754724E+02  0.28811379980E+02  0.51100000000E-03 0. -1.
        -11    1    4    4    0    0  0.55267959097E+01  0.28102870397E+01  0.37447341797E+01  0.72433569987E+01  0.51100000000E-03 0.  1.
        -12    1    4    4    0    0  0.30638436272E+01  0.11650332099E+01  0.95401694269E+01  0.10087580128E+02  0.00000000000E+00 0.  1.
</event>
<event>
 8    1  0.2882335E-009  0.9118800E+02  0.7816164E-02  0.1184000E+00
        -11   -1    0    0    0    0  0.00000000000E+00  0.00000000000E+00  0.45593999997E+02  0.45594000000E+02  0.51100000000E-03 0. -1.
         11   -1    0    0    0    0 -0.00000000000E+00 -0.00000000000E+00 -0.45593999997E+02  0.45594000000E+02  0.51100000000E-03 0.  1.
         23    2    1    2    0    0  0.00000000000E+00 -0.17763568394E-14  0.00000000000E+00  0.91188000000E+02  0.91188000000E+02 0.  0.
    9900012    2    3    3    0    0 -0.17473960458E+02  0.15785661071E+02  0.38400353790E+02  0.46142316958E+02  0.99999926768E+01 0.  0.
        -12    1    3    3    0    0  0.17473960458E+02 -0.15785661071E+02 -0.38400353790E+02  0.45045683042E+02  0.00000000000E+00 0.  1.
         11    1    4    4    0    0 -0.54266221602E+01  0.82348283699E+01  0.19480892188E+02  0.21834967073E+02  0.51100000000E-03 0. -1.
        -11    1    4    4    0    0 -0.12289466545E+01  0.26835570128E+01  0.64671807387E+01  0.71088828299E+01  0.51100000000E-03 0.  1.
        -12    1    4    4    0    0 -0.10818391643E+02  0.48672756885E+01  0.12452280863E+02  0.17198467055E+02  0.00000000000E+00 0.  1.
</event>
<event>
 8    1  0.2882335E-009  0.9118800E+02  0.7816164E-02  0.1184000E+00
        -11   -1    0    0    0    0  0.00000000000E+00  0.00000000000E+00  0.45593999997E+02  0.45594000000E+02  0.51100000000E-03 0. -1.
         11   -1    0    0    0    0 -0.00000000000E+00 -0.00000000000E+00 -0.45593999997E+02  0.45594000000E+02  0.51100000000E-03 0.  1.
         23    2    1    2    0    0  0.44408920985E-15 -0.13322676296E-14  0.71054273576E-14  0.91188000000E+02  0.91188000000E+02 0.  0.
    9900012    2    3    3    0    0 -0.30398370934E+01  0.39141739036E+01 -0.44772224616E+02  0.46142318032E+02  0.10000002468E+02 0.  0.
         12    1    3    3    0    0  0.30398370934E+01 -0.39141739036E+01  0.44772224616E+02  0.45045681968E+02  0.00000000000E+00 0. -1.
         11    1    4    4    0    0 -0.52056366270E+00 -0.18062026989E+01 -0.17770226371E+01  0.25867285189E+01  0.51100000000E-03 0. -1.
        -11    1    4    4    0    0 -0.22545442689E+01  0.57968798001E+01 -0.34517951712E+02  0.35073861719E+02  0.51100000000E-03 0.  1.
        -12    1    4    4    0    0 -0.26472916183E+00 -0.76503197625E-01 -0.84772502675E+01  0.84817277937E+01  0.00000000000E+00 0.  1.
</event>
<event>
 8    1  0.2882335E-009  0.9118800E+02  0.7816164E-02  0.1184000E+00
        -11   -1    0    0    0    0  0.00000000000E+00  0.00000000000E+00  0.45593999997E+02  0.45594000000E+02  0.51100000000E-03 0.  1.
         11   -1    0    0    0    0 -0.00000000000E+00 -0.00000000000E+00 -0.45593999997E+02  0.45594000000E+02  0.51100000000E-03 0. -1.
         23    2    1    2    0    0 -0.22204460493E-15 -0.71054273576E-14 -0.88817841970E-15  0.91188000000E+02  0.91188000000E+02 0.  0.
    9900012    2    3    3    0    0 -0.85618316901E+00  0.44636582417E+02 -0.59963349443E+01  0.46142316830E+02  0.99999915110E+01 0.  0.
         12    1    3    3    0    0  0.85618316901E+00 -0.44636582417E+02  0.59963349443E+01  0.45045683170E+02  0.00000000000E+00 0. -1.
         11    1    4    4    0    0 -0.29650961721E+01  0.20024742002E+02 -0.38883765516E-01  0.20243112403E+02  0.51100000000E-03 0. -1.
        -11    1    4    4    0    0  0.17955659482E+01  0.24423217103E+02 -0.51670757505E+01  0.25028309228E+02  0.51100000000E-03 0.  1.
        -12    1    4    4    0    0  0.31334705495E+00  0.18862331200E+00 -0.79037542825E+00  0.87089519935E+00  0.00000000000E+00 0.  1.
</event>
<event>
 8    1  0.2882335E-009  0.9118800E+02  0.7816164E-02  0.1184000E+00
        -11   -1    0    0    0    0  0.00000000000E+00  0.00000000000E+00  0.45593999997E+02  0.45594000000E+02  0.51100000000E-03 0. -1.
         11   -1    0    0    0    0 -0.00000000000E+00 -0.00000000000E+00 -0.45593999997E+02  0.45594000000E+02  0.51100000000E-03 0.  1.
         23    2    1    2    0    0 -0.88817841970E-15  0.00000000000E+00  0.00000000000E+00  0.91188000000E+02  0.91188000000E+02 0.  0.
    9900012    2    3    3    0    0 -0.60173427584E+01  0.11758411274E+02 -0.43065592992E+02  0.46142312644E+02  0.99999533410E+01 0.  0.
         12    1    3    3    0    0  0.60173427584E+01 -0.11758411274E+02  0.43065592992E+02  0.45045687356E+02  0.00000000000E+00 0. -1.
         11    1    4    4    0    0 -0.33239900457E+01  0.29222293867E+01 -0.96655642647E+01  0.10630685172E+02  0.51100000000E-03 0. -1.
        -11    1    4    4    0    0  0.17522163715E+01  0.32023443236E+01 -0.48313591546E+01  0.60553532449E+01  0.51100000000E-03 0.  1.
        -12    1    4    4    0    0 -0.44455690842E+01  0.56338375636E+01 -0.28568669573E+02  0.29456274227E+02  0.00000000000E+00 0.  1.
</event>
<event>
 8    1  0.2882335E-009  0.9118800E+02  0.7816164E-02  0.1184000E+00
        -11   -1    0    0    0    0  0.00000000000E+00  0.00000000000E+00  0.45593999997E+02  0.45594000000E+02  0.51100000000E-03 0. -1.
         11   -1    0    0    0    0 -0.00000000000E+00 -0.00000000000E+00 -0.45593999997E+02  0.45594000000E+02  0.51100000000E-03 0.  1.
         23    2    1    2    0    0  0.00000000000E+00  0.00000000000E+00  0.00000000000E+00  0.91188000000E+02  0.91188000000E+02 0.  0.
    9900012    2    3    3    0    0  0.90631314989E+01 -0.34554584862E+02 -0.27440001379E+02  0.46142319150E+02  0.10000012662E+02 0.  0.
         12    1    3    3    0    0 -0.90631314989E+01  0.34554584862E+02  0.27440001379E+02  0.45045680850E+02  0.00000000000E+00 0. -1.
         11    1    4    4    0    0  0.41134836499E+01 -0.43187341678E+01 -0.70124717512E+01  0.92058119073E+01  0.51100000000E-03 0. -1.
        -11    1    4    4    0    0  0.18727993602E+00 -0.35328658586E+01 -0.34229220371E+01  0.49226629463E+01  0.51100000000E-03 0.  1.
         12    1    4    4    0    0  0.47623679130E+01 -0.26702984836E+02 -0.17004607591E+02  0.32013844296E+02  0.00000000000E+00 0. -1.
</event>
<event>
 8    1  0.2882335E-009  0.9118800E+02  0.7816164E-02  0.1184000E+00
        -11   -1    0    0    0    0  0.00000000000E+00  0.00000000000E+00  0.45593999997E+02  0.45594000000E+02  0.51100000000E-03 0. -1.
         11   -1    0    0    0    0 -0.00000000000E+00 -0.00000000000E+00 -0.45593999997E+02  0.45594000000E+02  0.51100000000E-03 0.  1.
         23    2    1    2    0    0 -0.22204460493E-15  0.35527136788E-14  0.00000000000E+00  0.91188000000E+02  0.91188000000E+02 0.  0.
    9900012    2    3    3    0    0 -0.19423186368E+01  0.19331695996E+02  0.40640207059E+02  0.46142317614E+02  0.99999986615E+01 0.  0.
        -12    1    3    3    0    0  0.19423186368E+01 -0.19331695996E+02 -0.40640207059E+02  0.45045682386E+02  0.00000000000E+00 0.  1.
         11    1    4    4    0    0  0.19273264162E+01  0.65353399208E+01  0.71307774942E+01  0.98627198545E+01  0.51100000000E-03 0. -1.
        -11    1    4    4    0    0 -0.17174277355E+01  0.84430987025E+01  0.25463956337E+02  0.26882123174E+02  0.51100000000E-03 0.  1.
         12    1    4    4    0    0 -0.21522173176E+01  0.43532573723E+01  0.80454732279E+01  0.93974745859E+01  0.00000000000E+00 0. -1.
</event>
<event>
 8    1  0.2882335E-009  0.9118800E+02  0.7816164E-02  0.1184000E+00
        -11   -1    0    0    0    0  0.00000000000E+00  0.00000000000E+00  0.45593999997E+02  0.45594000000E+02  0.51100000000E-03 0. -1.
         11   -1    0    0    0    0 -0.00000000000E+00 -0.00000000000E+00 -0.45593999997E+02  0.45594000000E+02  0.51100000000E-03 0.  1.
         23    2    1    2    0    0  0.00000000000E+00  0.00000000000E+00 -0.35527136788E-14  0.91188000000E+02  0.91188000000E+02 0.  0.
    9900012    2    3    3    0    0 -0.32164411590E+02 -0.90272370235E+01  0.30217098328E+02  0.46142318602E+02  0.10000007668E+02 0.  0.
        -12    1    3    3    0    0  0.32164411590E+02  0.90272370235E+01 -0.30217098328E+02  0.45045681398E+02  0.00000000000E+00 0.  1.
         11    1    4    4    0    0 -0.40079109178E+01 -0.19915363707E+01  0.76266778395E+01  0.88428379025E+01  0.51100000000E-03 0. -1.
        -11    1    4    4    0    0 -0.22021742923E+02 -0.27408845289E+01  0.16900545463E+02  0.27894408877E+02  0.51100000000E-03 0.  1.
        -12    1    4    4    0    0 -0.61347577491E+01 -0.42948161238E+01  0.56898750256E+01  0.94050718224E+01  0.00000000000E+00 0.  1.
</event>
<event>
 8    1  0.3083086E-009  0.9118800E+02  0.7816164E-02  0.1184000E+00
        -11   -1    0    0    0    0  0.00000000000E+00  0.00000000000E+00  0.45593999997E+02  0.45594000000E+02  0.51100000000E-03 0. -1.
         11   -1    0    0    0    0 -0.00000000000E+00 -0.00000000000E+00 -0.45593999997E+02  0.45594000000E+02  0.51100000000E-03 0.  1.
         23    2    1    2    0    0  0.00000000000E+00  0.00000000000E+00  0.71054273576E-14  0.91188000000E+02  0.91188000000E+02 0.  0.
    9900012    2    3    3    0    0 -0.16068053271E+02  0.20051734947E+02 -0.36998095597E+02  0.46142317764E+02  0.10000000027E+02 0.  0.
         12    1    3    3    0    0  0.16068053271E+02 -0.20051734947E+02  0.36998095597E+02  0.45045682236E+02  0.00000000000E+00 0. -1.
         11    1    4    4    0    0 -0.66723044554E+01  0.11240469903E+02 -0.14687895377E+02  0.19662199298E+02  0.51100000000E-03 0. -1.
        -11    1    4    4    0    0  0.78314518250E+00  0.13839218816E+01 -0.34380714286E+01  0.37879930782E+01  0.51100000000E-03 0.  1.
        -12    1    4    4    0    0 -0.10178893998E+02  0.74273431620E+01 -0.18872128792E+02  0.22692125387E+02  0.00000000000E+00 0.  1.
</event>
<event>
 8    1  0.2882335E-009  0.9118800E+02  0.7816164E-02  0.1184000E+00
        -11   -1    0    0    0    0  0.00000000000E+00  0.00000000000E+00  0.45593999997E+02  0.45594000000E+02  0.51100000000E-03 0. -1.
         11   -1    0    0    0    0 -0.00000000000E+00 -0.00000000000E+00 -0.45593999997E+02  0.45594000000E+02  0.51100000000E-03 0.  1.
         23    2    1    2    0    0  0.00000000000E+00  0.00000000000E+00  0.00000000000E+00  0.91188000000E+02  0.91188000000E+02 0.  0.
    9900012    2    3    3    0    0  0.23002017596E+02  0.54767414102E+01 -0.38340918502E+02  0.46142317171E+02  0.99999946176E+01 0.  0.
         12    1    3    3    0    0 -0.23002017596E+02 -0.54767414102E+01  0.38340918502E+02  0.45045682829E+02  0.00000000000E+00 0. -1.
         11    1    4    4    0    0 -0.59004741396E+00  0.50947451367E+00 -0.48744702592E+00  0.91941562691E+00  0.51100000000E-03 0. -1.
        -11    1    4    4    0    0  0.93355516215E+01  0.35639720135E+01 -0.19778189629E+02  0.22159223945E+02  0.51100000000E-03 0.  1.
        -12    1    4    4    0    0  0.14256513389E+02  0.14032948831E+01 -0.18075281847E+02  0.23063677599E+02  0.00000000000E+00 0.  1.
</event>
<event>
 8    1  0.2882335E-009  0.9118800E+02  0.7816164E-02  0.1184000E+00
        -11   -1    0    0    0    0  0.00000000000E+00  0.00000000000E+00  0.45593999997E+02  0.45594000000E+02  0.51100000000E-03 0. -1.
         11   -1    0    0    0    0 -0.00000000000E+00 -0.00000000000E+00 -0.45593999997E+02  0.45594000000E+02  0.51100000000E-03 0.  1.
         23    2    1    2    0    0  0.00000000000E+00  0.00000000000E+00  0.00000000000E+00  0.91188000000E+02  0.91188000000E+02 0.  0.
    9900012    2    3    3    0    0  0.23676407615E+02 -0.19557827880E+02 -0.32955007958E+02  0.46142318093E+02  0.10000003029E+02 0.  0.
         12    1    3    3    0    0 -0.23676407615E+02  0.19557827880E+02  0.32955007958E+02  0.45045681907E+02  0.00000000000E+00 0. -1.
         11    1    4    4    0    0  0.34852393210E+01 -0.17884942983E+01 -0.70497611223E+01  0.80650317496E+01  0.51100000000E-03 0. -1.
        -11    1    4    4    0    0  0.12026981447E+02 -0.62330055515E+01 -0.10255311106E+02  0.16990292730E+02  0.51100000000E-03 0.  1.
        -12    1    4    4    0    0  0.81641868475E+01 -0.11536328030E+02 -0.15649935730E+02  0.21086993613E+02  0.00000000000E+00 0.  1.
</event>
<event>
 8    1  0.2882335E-009  0.9118800E+02  0.7816164E-02  0.1184000E+00
        -11   -1    0    0    0    0  0.00000000000E+00  0.00000000000E+00  0.45593999997E+02  0.45594000000E+02  0.51100000000E-03 0. -1.
         11   -1    0    0    0    0 -0.00000000000E+00 -0.00000000000E+00 -0.45593999997E+02  0.45594000000E+02  0.51100000000E-03 0.  1.
         23    2    1    2    0    0 -0.35527136788E-14  0.22204460493E-15  0.00000000000E+00  0.91188000000E+02  0.91188000000E+02 0.  0.
    9900012    2    3    3    0    0 -0.25495379416E+02 -0.18141052245E+01  0.37091888060E+02  0.46142317530E+02  0.99999978963E+01 0.  0.
        -12    1    3    3    0    0  0.25495379416E+02  0.18141052245E+01 -0.37091888060E+02  0.45045682470E+02  0.00000000000E+00 0.  1.
         11    1    4    4    0    0 -0.12109622581E+02 -0.19778179316E+01  0.17705438615E+02  0.21541524543E+02  0.51100000000E-03 0. -1.
        -11    1    4    4    0    0 -0.10280335293E+02  0.11241805029E+01  0.89727980927E+01  0.13691609892E+02  0.51100000000E-03 0.  1.
         12    1    4    4    0    0 -0.31054215411E+01 -0.96046779589E+00  0.10413651352E+02  0.10909183096E+02  0.00000000000E+00 0. -1.
</event>
<event>
 8    1  0.2882335E-009  0.9118800E+02  0.7816164E-02  0.1184000E+00
        -11   -1    0    0    0    0  0.00000000000E+00  0.00000000000E+00  0.45593999997E+02  0.45594000000E+02  0.51100000000E-03 0. -1.
         11   -1    0    0    0    0 -0.00000000000E+00 -0.00000000000E+00 -0.45593999997E+02  0.45594000000E+02  0.51100000000E-03 0.  1.
         23    2    1    2    0    0 -0.88817841970E-15  0.71054273576E-14  0.00000000000E+00  0.91188000000E+02  0.91188000000E+02 0.  0.
    9900012    2    3    3    0    0 -0.49683387224E+01  0.44754007643E+02 -0.12279528215E+01  0.46142318099E+02  0.10000003080E+02 0.  0.
         12    1    3    3    0    0  0.49683387224E+01 -0.44754007643E+02  0.12279528215E+01  0.45045681901E+02  0.00000000000E+00 0. -1.
         11    1    4    4    0    0  0.24069916637E+01  0.59611308326E+01 -0.43041115371E+00  0.64431315130E+01  0.51100000000E-03 0. -1.
        -11    1    4    4    0    0 -0.37363152561E+01  0.28907475321E+02 -0.96548747172E+00  0.29163922018E+02  0.51100000000E-03 0.  1.
         12    1    4    4    0    0 -0.36390151299E+01  0.98854014897E+01  0.16794580391E+00  0.10535264568E+02  0.00000000000E+00 0. -1.
</event>
<event>
 8    1  0.2882335E-009  0.9118800E+02  0.7816164E-02  0.1184000E+00
        -11   -1    0    0    0    0  0.00000000000E+00  0.00000000000E+00  0.45593999997E+02  0.45594000000E+02  0.51100000000E-03 0. -1.
         11   -1    0    0    0    0 -0.00000000000E+00 -0.00000000000E+00 -0.45593999997E+02  0.45594000000E+02  0.51100000000E-03 0.  1.
         23    2    1    2    0    0 -0.88817841970E-15 -0.71054273576E-14  0.00000000000E+00  0.91188000000E+02  0.91188000000E+02 0.  0.
    9900012    2    3    3    0    0 -0.54504767632E+01 -0.23496742159E+02  0.38043512155E+02  0.46142318674E+02  0.10000008328E+02 0.  0.
        -12    1    3    3    0    0  0.54504767632E+01  0.23496742159E+02 -0.38043512155E+02  0.45045681326E+02  0.00000000000E+00 0.  1.
         11    1    4    4    0    0 -0.41605945838E+01 -0.16031500389E+02  0.29454212391E+02  0.33791569657E+02  0.51100000000E-03 0. -1.
        -11    1    4    4    0    0 -0.26025704255E+01 -0.46879612060E+01  0.34901077540E+01  0.63977500330E+01  0.51100000000E-03 0.  1.
        -12    1    4    4    0    0  0.13126882462E+01 -0.27772805634E+01  0.50991920096E+01  0.59529989846E+01  0.00000000000E+00 0.  1.
</event>
<event>
 8    1  0.2882335E-009  0.9118800E+02  0.7816164E-02  0.1184000E+00
        -11   -1    0    0    0    0  0.00000000000E+00  0.00000000000E+00  0.45593999997E+02  0.45594000000E+02  0.51100000000E-03 0. -1.
         11   -1    0    0    0    0 -0.00000000000E+00 -0.00000000000E+00 -0.45593999997E+02  0.45594000000E+02  0.51100000000E-03 0.  1.
         23    2    1    2    0    0  0.00000000000E+00  0.00000000000E+00  0.00000000000E+00  0.91188000000E+02  0.91188000000E+02 0.  0.
    9900012    2    3    3    0    0 -0.82811110184E+01 -0.10029266400E+02  0.43127143902E+02  0.46142317350E+02  0.99999962517E+01 0.  0.
        -12    1    3    3    0    0  0.82811110184E+01  0.10029266400E+02 -0.43127143902E+02  0.45045682650E+02  0.00000000000E+00 0.  1.
         11    1    4    4    0    0 -0.41822357557E+01 -0.68055003574E+01  0.15497268193E+02  0.17434771371E+02  0.51100000000E-03 0. -1.
        -11    1    4    4    0    0  0.60978285133E+00  0.24408694173E+00  0.23833349005E+00  0.69872503498E+00  0.51100000000E-03 0.  1.
        -12    1    4    4    0    0 -0.47086581140E+01 -0.34678529840E+01  0.27391542219E+02  0.28008820944E+02  0.00000000000E+00 0.  1.
</event>
<event>
 8    1  0.2882335E-009  0.9118800E+02  0.7816164E-02  0.1184000E+00
        -11   -1    0    0    0    0  0.00000000000E+00  0.00000000000E+00  0.45593999997E+02  0.45594000000E+02  0.51100000000E-03 0. -1.
         11   -1    0    0    0    0 -0.00000000000E+00 -0.00000000000E+00 -0.45593999997E+02  0.45594000000E+02  0.51100000000E-03 0.  1.
         23    2    1    2    0    0  0.00000000000E+00  0.00000000000E+00  0.00000000000E+00  0.91188000000E+02  0.91188000000E+02 0.  0.
    9900012    2    3    3    0    0  0.13469632328E+02  0.10232677387E+02  0.41748950836E+02  0.46142316772E+02  0.99999909815E+01 0.  0.
        -12    1    3    3    0    0 -0.13469632328E+02 -0.10232677387E+02 -0.41748950836E+02  0.45045683228E+02  0.00000000000E+00 0.  1.
         11    1    4    4    0    0  0.94217983479E+01  0.24260014876E+01  0.15730716877E+02  0.18496248838E+02  0.51100000000E-03 0. -1.
        -11    1    4    4    0    0  0.38842056501E+01  0.53020488295E+01  0.21441587596E+02  0.22426333945E+02  0.51100000000E-03 0.  1.
        -12    1    4    4    0    0  0.16362832992E+00  0.25046270700E+01  0.45766463624E+01  0.52197339890E+01  0.00000000000E+00 0.  1.
</event>
<event>
 8    1  0.2882335E-009  0.9118800E+02  0.7816164E-02  0.1184000E+00
        -11   -1    0    0    0    0  0.00000000000E+00  0.00000000000E+00  0.45593999997E+02  0.45594000000E+02  0.51100000000E-03 0. -1.
         11   -1    0    0    0    0 -0.00000000000E+00 -0.00000000000E+00 -0.45593999997E+02  0.45594000000E+02  0.51100000000E-03 0.  1.
         23    2    1    2    0    0  0.71054273576E-14  0.22204460493E-15  0.00000000000E+00  0.91188000000E+02  0.91188000000E+02 0.  0.
    9900012    2    3    3    0    0 -0.32219561343E+02 -0.12970964422E+01  0.31453634204E+02  0.46142315446E+02  0.99999788930E+01 0.  0.
        -12    1    3    3    0    0  0.32219561343E+02  0.12970964422E+01 -0.31453634204E+02  0.45045684554E+02  0.00000000000E+00 0.  1.
         11    1    4    4    0    0 -0.21557066743E+02 -0.32309627471E+01  0.19361713673E+02  0.29155140257E+02  0.51100000000E-03 0. -1.
        -11    1    4    4    0    0 -0.45454511626E+01  0.33274486285E+01  0.51837966360E+01  0.76553764422E+01  0.51100000000E-03 0.  1.
        -12    1    4    4    0    0 -0.61170434371E+01 -0.13935823235E+01  0.69081238950E+01  0.93317987469E+01  0.00000000000E+00 0.  1.
</event>
<event>
 8    1  0.2882335E-009  0.9118800E+02  0.7816164E-02  0.1184000E+00
        -11   -1    0    0    0    0  0.00000000000E+00  0.00000000000E+00  0.45593999997E+02  0.45594000000E+02  0.51100000000E-03 0. -1.
         11   -1    0    0    0    0 -0.00000000000E+00 -0.00000000000E+00 -0.45593999997E+02  0.45594000000E+02  0.51100000000E-03 0.  1.
         23    2    1    2    0    0 -0.71054273576E-14  0.44408920985E-15  0.00000000000E+00  0.91188000000E+02  0.91188000000E+02 0.  0.
    9900012    2    3    3    0    0 -0.35095681091E+02  0.29344174223E+01  0.28085509424E+02  0.46142317893E+02  0.10000001207E+02 0.  0.
        -12    1    3    3    0    0  0.35095681091E+02 -0.29344174223E+01 -0.28085509424E+02  0.45045682107E+02  0.00000000000E+00 0.  1.
         11    1    4    4    0    0 -0.27958295633E+02  0.57980007178E+01  0.19489862465E+02  0.34570765774E+02  0.51100000000E-03 0. -1.
        -11    1    4    4    0    0 -0.70354295609E+01 -0.27359538666E+01  0.85422755478E+01  0.11399701069E+02  0.51100000000E-03 0.  1.
         12    1    4    4    0    0 -0.10195589669E+00 -0.12762942894E+00  0.53371411081E-01  0.17185105040E+00  0.00000000000E+00 0. -1.
</event>
<event>
 8    1  0.4262454E-009  0.9118800E+02  0.7816164E-02  0.1184000E+00
        -11   -1    0    0    0    0  0.00000000000E+00  0.00000000000E+00  0.45593999997E+02  0.45594000000E+02  0.51100000000E-03 0. -1.
         11   -1    0    0    0    0 -0.00000000000E+00 -0.00000000000E+00 -0.45593999997E+02  0.45594000000E+02  0.51100000000E-03 0.  1.
         23    2    1    2    0    0  0.00000000000E+00 -0.44408920985E-15  0.00000000000E+00  0.91188000000E+02  0.91188000000E+02 0.  0.
    9900012    2    3    3    0    0 -0.15065154502E+02 -0.34086188537E+01 -0.42314724098E+02  0.46142318319E+02  0.10000005085E+02 0.  0.
         12    1    3    3    0    0  0.15065154502E+02  0.34086188537E+01  0.42314724098E+02  0.45045681681E+02  0.00000000000E+00 0. -1.
         11    1    4    4    0    0  0.15918681774E+00  0.51191745952E+00 -0.36645860117E+00  0.64937823786E+00  0.51100000000E-03 0. -1.
        -11    1    4    4    0    0 -0.16043912219E+02 -0.29316454209E+01 -0.39290865450E+02  0.42541435945E+02  0.51100000000E-03 0.  1.
        -12    1    4    4    0    0  0.81957089979E+00 -0.98889089238E+00 -0.26574000467E+01  0.29515041360E+01  0.00000000000E+00 0.  1.
</event>
<event>
 8    1  0.2882335E-009  0.9118800E+02  0.7816164E-02  0.1184000E+00
        -11   -1    0    0    0    0  0.00000000000E+00  0.00000000000E+00  0.45593999997E+02  0.45594000000E+02  0.51100000000E-03 0.  1.
         11   -1    0    0    0    0 -0.00000000000E+00 -0.00000000000E+00 -0.45593999997E+02  0.45594000000E+02  0.51100000000E-03 0. -1.
         23    2    1    2    0    0  0.00000000000E+00  0.35527136788E-14  0.00000000000E+00  0.91188000000E+02  0.91188000000E+02 0.  0.
    9900012    2    3    3    0    0  0.34121805758E+02 -0.20543327936E+02  0.21042514649E+02  0.46142319034E+02  0.10000011610E+02 0.  0.
         12    1    3    3    0    0 -0.34121805758E+02  0.20543327936E+02 -0.21042514649E+02  0.45045680966E+02  0.00000000000E+00 0. -1.
         11    1    4    4    0    0  0.46129309703E+01 -0.44585448178E+01  0.44052120936E+01  0.77822649582E+01  0.51100000000E-03 0. -1.
        -11    1    4    4    0    0  0.14572230117E+02 -0.11638429724E+02  0.11684774313E+02  0.22007655214E+02  0.51100000000E-03 0.  1.
        -12    1    4    4    0    0  0.14936644671E+02 -0.44463533943E+01  0.49525282424E+01  0.16352398862E+02  0.00000000000E+00 0.  1.
</event>
<event>
 8    1  0.2882335E-009  0.9118800E+02  0.7816164E-02  0.1184000E+00
        -11   -1    0    0    0    0  0.00000000000E+00  0.00000000000E+00  0.45593999997E+02  0.45594000000E+02  0.51100000000E-03 0. -1.
         11   -1    0    0    0    0 -0.00000000000E+00 -0.00000000000E+00 -0.45593999997E+02  0.45594000000E+02  0.51100000000E-03 0.  1.
         23    2    1    2    0    0  0.00000000000E+00 -0.17763568394E-14  0.00000000000E+00  0.91188000000E+02  0.91188000000E+02 0.  0.
    9900012    2    3    3    0    0  0.10985849103E+02 -0.14018781287E+02  0.41375093752E+02  0.46142317718E+02  0.99999996076E+01 0.  0.
        -12    1    3    3    0    0 -0.10985849103E+02  0.14018781287E+02 -0.41375093752E+02  0.45045682282E+02  0.00000000000E+00 0.  1.
         11    1    4    4    0    0  0.33221161620E+01 -0.71707941875E+01  0.17792639601E+02  0.19468815303E+02  0.51100000000E-03 0. -1.
        -11    1    4    4    0    0  0.15352275380E+01 -0.56013331019E+01  0.14739545307E+02  0.15842539324E+02  0.51100000000E-03 0.  1.
        -12    1    4    4    0    0  0.61285054028E+01 -0.12466539975E+01  0.88429088437E+01  0.10830963091E+02  0.00000000000E+00 0.  1.
</event>
<event>
 8    1  0.2882335E-009  0.9118800E+02  0.7816164E-02  0.1184000E+00
        -11   -1    0    0    0    0  0.00000000000E+00  0.00000000000E+00  0.45593999997E+02  0.45594000000E+02  0.51100000000E-03 0. -1.
         11   -1    0    0    0    0 -0.00000000000E+00 -0.00000000000E+00 -0.45593999997E+02  0.45594000000E+02  0.51100000000E-03 0.  1.
         23    2    1    2    0    0  0.35527136788E-14  0.00000000000E+00 -0.71054273576E-14  0.91188000000E+02  0.91188000000E+02 0.  0.
    9900012    2    3    3    0    0  0.31224751708E+02  0.23236365546E+01 -0.32384087844E+02  0.46142317060E+02  0.99999936072E+01 0.  0.
         12    1    3    3    0    0 -0.31224751708E+02 -0.23236365546E+01  0.32384087844E+02  0.45045682940E+02  0.00000000000E+00 0. -1.
         11    1    4    4    0    0  0.12383275240E+02  0.41441080851E+01 -0.12329750874E+02  0.17959451394E+02  0.51100000000E-03 0. -1.
        -11    1    4    4    0    0  0.14464738262E+02 -0.65683845496E-01 -0.17857200694E+02  0.22980700256E+02  0.51100000000E-03 0.  1.
         12    1    4    4    0    0  0.43767382055E+01 -0.17547876850E+01 -0.21971362749E+01  0.52021654097E+01  0.00000000000E+00 0. -1.
</event>
<event>
 8    1  0.2882335E-009  0.9118800E+02  0.7816164E-02  0.1184000E+00
        -11   -1    0    0    0    0  0.00000000000E+00  0.00000000000E+00  0.45593999997E+02  0.45594000000E+02  0.51100000000E-03 0.  1.
         11   -1    0    0    0    0 -0.00000000000E+00 -0.00000000000E+00 -0.45593999997E+02  0.45594000000E+02  0.51100000000E-03 0. -1.
         23    2    1    2    0    0  0.00000000000E+00  0.00000000000E+00  0.00000000000E+00  0.91188000000E+02  0.91188000000E+02 0.  0.
    9900012    2    3    3    0    0 -0.40082076273E+02 -0.15291902982E+02  0.13736753777E+02  0.46142317193E+02  0.99999948209E+01 0.  0.
        -12    1    3    3    0    0  0.40082076273E+02  0.15291902982E+02 -0.13736753777E+02  0.45045682807E+02  0.00000000000E+00 0.  1.
         11    1    4    4    0    0 -0.10746713103E+02 -0.39674508694E+01  0.11081559614E+00  0.11456211820E+02  0.51100000000E-03 0. -1.
        -11    1    4    4    0    0 -0.21204247579E+02 -0.56126484372E+01  0.87201979937E+01  0.23604317215E+02  0.51100000000E-03 0.  1.
        -12    1    4    4    0    0 -0.81311155914E+01 -0.57118036753E+01  0.49057401874E+01  0.11081788158E+02  0.00000000000E+00 0.  1.
</event>
<event>
 8    1  0.2882335E-009  0.9118800E+02  0.7816164E-02  0.1184000E+00
        -11   -1    0    0    0    0  0.00000000000E+00  0.00000000000E+00  0.45593999997E+02  0.45594000000E+02  0.51100000000E-03 0. -1.
         11   -1    0    0    0    0 -0.00000000000E+00 -0.00000000000E+00 -0.45593999997E+02  0.45594000000E+02  0.51100000000E-03 0.  1.
         23    2    1    2    0    0  0.17763568394E-14  0.00000000000E+00 -0.35527136788E-14  0.91188000000E+02  0.91188000000E+02 0.  0.
    9900012    2    3    3    0    0 -0.11551601532E+02 -0.32752689964E+02  0.28686848675E+02  0.46142317801E+02  0.10000000367E+02 0.  0.
        -12    1    3    3    0    0  0.11551601532E+02  0.32752689964E+02 -0.28686848675E+02  0.45045682199E+02  0.00000000000E+00 0.  1.
         11    1    4    4    0    0 -0.45714461940E+01 -0.20821044360E+02  0.18130116240E+02  0.27984194176E+02  0.51100000000E-03 0. -1.
        -11    1    4    4    0    0 -0.77729977814E+00 -0.50813777963E+01  0.18555625810E+01  0.54651356806E+01  0.51100000000E-03 0.  1.
         12    1    4    4    0    0 -0.62028555598E+01 -0.68502678078E+01  0.87011698546E+01  0.12692987945E+02  0.00000000000E+00 0. -1.
</event>
<event>
 8    1  0.2882335E-009  0.9118800E+02  0.7816164E-02  0.1184000E+00
        -11   -1    0    0    0    0  0.00000000000E+00  0.00000000000E+00  0.45593999997E+02  0.45594000000E+02  0.51100000000E-03 0. -1.
         11   -1    0    0    0    0 -0.00000000000E+00 -0.00000000000E+00 -0.45593999997E+02  0.45594000000E+02  0.51100000000E-03 0.  1.
         23    2    1    2    0    0  0.00000000000E+00  0.00000000000E+00 -0.17763568394E-14  0.91188000000E+02  0.91188000000E+02 0.  0.
    9900012    2    3    3    0    0 -0.25777002012E+02 -0.35213088336E+02  0.11166821191E+02  0.46142319647E+02  0.10000017201E+02 0.  0.
        -12    1    3    3    0    0  0.25777002012E+02  0.35213088336E+02 -0.11166821191E+02  0.45045680353E+02  0.00000000000E+00 0.  1.
         11    1    4    4    0    0 -0.10097871108E+02 -0.97349400633E+01  0.10903202417E+01  0.14068576951E+02  0.51100000000E-03 0. -1.
        -11    1    4    4    0    0 -0.46782489550E+01 -0.90791768254E+01  0.62051689213E+01  0.11950798581E+02  0.51100000000E-03 0.  1.
        -12    1    4    4    0    0 -0.11000881950E+02 -0.16398971447E+02  0.38713320282E+01  0.20122944116E+02  0.00000000000E+00 0.  1.
</event>
<event>
 8    1  0.2882335E-009  0.9118800E+02  0.7816164E-02  0.1184000E+00
        -11   -1    0    0    0    0  0.00000000000E+00  0.00000000000E+00  0.45593999997E+02  0.45594000000E+02  0.51100000000E-03 0. -1.
         11   -1    0    0    0    0 -0.00000000000E+00 -0.00000000000E+00 -0.45593999997E+02  0.45594000000E+02  0.51100000000E-03 0.  1.
         23    2    1    2    0    0  0.00000000000E+00  0.17763568394E-14  0.35527136788E-14  0.91188000000E+02  0.91188000000E+02 0.  0.
    9900012    2    3    3    0    0  0.39228036485E+02 -0.10390933776E+02 -0.19552576196E+02  0.46142316665E+02  0.99999900014E+01 0.  0.
         12    1    3    3    0    0 -0.39228036485E+02  0.10390933776E+02  0.19552576196E+02  0.45045683335E+02  0.00000000000E+00 0. -1.
         11    1    4    4    0    0  0.12231208267E+02 -0.30070022798E+01 -0.15933999892E+01  0.12695804117E+02  0.51100000000E-03 0. -1.
        -11    1    4    4    0    0  0.24397675186E+02 -0.55555278221E+01 -0.16282474276E+02  0.29853465672E+02  0.51100000000E-03 0.  1.
        -12    1    4    4    0    0  0.25991530323E+01 -0.18284036743E+01 -0.16767019314E+01  0.35930468753E+01  0.00000000000E+00 0.  1.
</event>
<event>
 8    1  0.2882335E-009  0.9118800E+02  0.7816164E-02  0.1184000E+00
        -11   -1    0    0    0    0  0.00000000000E+00  0.00000000000E+00  0.45593999997E+02  0.45594000000E+02  0.51100000000E-03 0. -1.
         11   -1    0    0    0    0 -0.00000000000E+00 -0.00000000000E+00 -0.45593999997E+02  0.45594000000E+02  0.51100000000E-03 0.  1.
         23    2    1    2    0    0  0.00000000000E+00  0.17763568394E-14 -0.88817841970E-15  0.91188000000E+02  0.91188000000E+02 0.  0.
    9900012    2    3    3    0    0  0.42001941629E+02  0.14385544400E+02 -0.76161977313E+01  0.46142318118E+02  0.10000003258E+02 0.  0.
         12    1    3    3    0    0 -0.42001941629E+02 -0.14385544400E+02  0.76161977313E+01  0.45045681882E+02  0.00000000000E+00 0. -1.
         11    1    4    4    0    0  0.23750089908E+01 -0.85878670229E+00  0.32951230143E+00  0.25469120370E+01  0.51100000000E-03 0. -1.
        -11    1    4    4    0    0  0.11663123990E+02  0.72298986946E+01 -0.35651749427E+01  0.14177812560E+02  0.51100000000E-03 0.  1.
        -12    1    4    4    0    0  0.27963808648E+02  0.80144324074E+01 -0.43805350900E+01  0.29417593522E+02  0.00000000000E+00 0.  1.
</event>
<event>
 8    1  0.2882335E-009  0.9118800E+02  0.7816164E-02  0.1184000E+00
        -11   -1    0    0    0    0  0.00000000000E+00  0.00000000000E+00  0.45593999997E+02  0.45594000000E+02  0.51100000000E-03 0.  1.
         11   -1    0    0    0    0 -0.00000000000E+00 -0.00000000000E+00 -0.45593999997E+02  0.45594000000E+02  0.51100000000E-03 0. -1.
         23    2    1    2    0    0  0.00000000000E+00 -0.35527136788E-14  0.00000000000E+00  0.91188000000E+02  0.91188000000E+02 0.  0.
    9900012    2    3    3    0    0  0.36504082686E+02  0.26056708310E+02 -0.41968235984E+01  0.46142318420E+02  0.10000006006E+02 0.  0.
         12    1    3    3    0    0 -0.36504082686E+02 -0.26056708310E+02  0.41968235984E+01  0.45045681580E+02  0.00000000000E+00 0. -1.
         11    1    4    4    0    0  0.12192434286E+02  0.11991223996E+02 -0.48936011680E+01  0.17787418009E+02  0.51100000000E-03 0. -1.
        -11    1    4    4    0    0  0.14083803796E+02  0.10110514999E+02  0.11900875596E+01  0.17377927137E+02  0.51100000000E-03 0.  1.
         12    1    4    4    0    0  0.10227844604E+02  0.39549693146E+01 -0.49330998999E+00  0.10976973275E+02  0.00000000000E+00 0. -1.
</event>
<event>
 8    1  0.2882335E-009  0.9118800E+02  0.7816164E-02  0.1184000E+00
        -11   -1    0    0    0    0  0.00000000000E+00  0.00000000000E+00  0.45593999997E+02  0.45594000000E+02  0.51100000000E-03 0. -1.
         11   -1    0    0    0    0 -0.00000000000E+00 -0.00000000000E+00 -0.45593999997E+02  0.45594000000E+02  0.51100000000E-03 0.  1.
         23    2    1    2    0    0 -0.35527136788E-14 -0.17763568394E-14  0.00000000000E+00  0.91188000000E+02  0.91188000000E+02 0.  0.
    9900012    2    3    3    0    0 -0.25801966141E+02 -0.15585059176E+02 -0.33473541900E+02  0.46142317259E+02  0.99999954227E+01 0.  0.
         12    1    3    3    0    0  0.25801966141E+02  0.15585059176E+02  0.33473541900E+02  0.45045682741E+02  0.00000000000E+00 0. -1.
         11    1    4    4    0    0 -0.61642826702E+01 -0.65970399664E+01 -0.88513634384E+01  0.12643810823E+02  0.51100000000E-03 0. -1.
        -11    1    4    4    0    0 -0.12137397948E+02 -0.80344591785E+01 -0.19632421068E+02  0.24439740597E+02  0.51100000000E-03 0.  1.
        -12    1    4    4    0    0 -0.75002855235E+01 -0.95356003090E+00 -0.49897573938E+01  0.90587658384E+01  0.00000000000E+00 0.  1.
</event>
<event>
 8    1  0.2882335E-009  0.9118800E+02  0.7816164E-02  0.1184000E+00
        -11   -1    0    0    0    0  0.00000000000E+00  0.00000000000E+00  0.45593999997E+02  0.45594000000E+02  0.51100000000E-03 0. -1.
         11   -1    0    0    0    0 -0.00000000000E+00 -0.00000000000E+00 -0.45593999997E+02  0.45594000000E+02  0.51100000000E-03 0.  1.
         23    2    1    2    0    0  0.44408920985E-15  0.00000000000E+00  0.00000000000E+00  0.91188000000E+02  0.91188000000E+02 0.  0.
    9900012    2    3    3    0    0  0.33281326558E+01  0.44717261472E+02 -0.42899370796E+01  0.46142317624E+02  0.99999987514E+01 0.  0.
        -12    1    3    3    0    0 -0.33281326558E+01 -0.44717261472E+02  0.42899370796E+01  0.45045682376E+02  0.00000000000E+00 0.  1.
         11    1    4    4    0    0  0.36071550488E+01  0.25947323425E+02 -0.60897322948E+01  0.26895352761E+02  0.51100000000E-03 0. -1.
        -11    1    4    4    0    0  0.16383039537E+01  0.77731145015E+01  0.14740784032E+01  0.80794960424E+01  0.51100000000E-03 0.  1.
         12    1    4    4    0    0 -0.19173263468E+01  0.10996823546E+02  0.32571681205E+00  0.11167468821E+02  0.00000000000E+00 0. -1.
</event>
<event>
 8    1  0.2882335E-009  0.9118800E+02  0.7816164E-02  0.1184000E+00
        -11   -1    0    0    0    0  0.00000000000E+00  0.00000000000E+00  0.45593999997E+02  0.45594000000E+02  0.51100000000E-03 0. -1.
         11   -1    0    0    0    0 -0.00000000000E+00 -0.00000000000E+00 -0.45593999997E+02  0.45594000000E+02  0.51100000000E-03 0.  1.
         23    2    1    2    0    0  0.17763568394E-14 -0.35527136788E-14  0.00000000000E+00  0.91188000000E+02  0.91188000000E+02 0.  0.
    9900012    2    3    3    0    0 -0.12507873563E+02  0.13988133168E+02 -0.40951174680E+02  0.46142317873E+02  0.10000001021E+02 0.  0.
         12    1    3    3    0    0  0.12507873563E+02 -0.13988133168E+02  0.40951174680E+02  0.45045682127E+02  0.00000000000E+00 0. -1.
         11    1    4    4    0    0 -0.74470532426E+01  0.57706634692E+01 -0.10353707964E+02  0.13998515198E+02  0.51100000000E-03 0. -1.
        -11    1    4    4    0    0 -0.29463461463E+01  0.63625214269E+01 -0.22847329499E+02  0.23899018809E+02  0.51100000000E-03 0.  1.
         12    1    4    4    0    0 -0.21144741743E+01  0.18549482718E+01 -0.77501372171E+01  0.82447838667E+01  0.00000000000E+00 0. -1.
</event>
<event>
 8    1  0.2882335E-009  0.9118800E+02  0.7816164E-02  0.1184000E+00
        -11   -1    0    0    0    0  0.00000000000E+00  0.00000000000E+00  0.45593999997E+02  0.45594000000E+02  0.51100000000E-03 0. -1.
         11   -1    0    0    0    0 -0.00000000000E+00 -0.00000000000E+00 -0.45593999997E+02  0.45594000000E+02  0.51100000000E-03 0.  1.
         23    2    1    2    0    0  0.00000000000E+00  0.00000000000E+00 -0.35527136788E-14  0.91188000000E+02  0.91188000000E+02 0.  0.
    9900012    2    3    3    0    0  0.32797030285E+02  0.91282372842E+01  0.29498194499E+02  0.46142318852E+02  0.10000009944E+02 0.  0.
        -12    1    3    3    0    0 -0.32797030285E+02 -0.91282372842E+01 -0.29498194499E+02  0.45045681148E+02  0.00000000000E+00 0.  1.
         11    1    4    4    0    0  0.19566595712E+02  0.38664491884E+01  0.16963008042E+02  0.26182909296E+02  0.51100000000E-03 0. -1.
        -11    1    4    4    0    0  0.94102754191E+01  0.45598412442E+01  0.52437360575E+01  0.11697957246E+02  0.51100000000E-03 0.  1.
        -12    1    4    4    0    0  0.38201591542E+01  0.70194685150E+00  0.72914503990E+01  0.82614523097E+01  0.00000000000E+00 0.  1.
</event>
<event>
 8    1  0.2882335E-009  0.9118800E+02  0.7816164E-02  0.1184000E+00
        -11   -1    0    0    0    0  0.00000000000E+00  0.00000000000E+00  0.45593999997E+02  0.45594000000E+02  0.51100000000E-03 0. -1.
         11   -1    0    0    0    0 -0.00000000000E+00 -0.00000000000E+00 -0.45593999997E+02  0.45594000000E+02  0.51100000000E-03 0.  1.
         23    2    1    2    0    0  0.00000000000E+00  0.00000000000E+00  0.00000000000E+00  0.91188000000E+02  0.91188000000E+02 0.  0.
    9900012    2    3    3    0    0 -0.19439067587E+02 -0.47018497798E+01 -0.40362466713E+02  0.46142318086E+02  0.10000002959E+02 0.  0.
         12    1    3    3    0    0  0.19439067587E+02  0.47018497798E+01  0.40362466713E+02  0.45045681914E+02  0.00000000000E+00 0. -1.
         11    1    4    4    0    0 -0.85071292860E+01  0.32626949656E+00 -0.25292111166E+02  0.26686486992E+02  0.51100000000E-03 0. -1.
        -11    1    4    4    0    0 -0.19513268397E+01 -0.11159858241E+01 -0.45865226550E+01  0.51077677238E+01  0.51100000000E-03 0.  1.
         12    1    4    4    0    0 -0.89806114609E+01 -0.39121334523E+01 -0.10483832892E+02  0.14348063370E+02  0.00000000000E+00 0. -1.
</event>
<event>
 8    1  0.2882335E-009  0.9118800E+02  0.7816164E-02  0.1184000E+00
        -11   -1    0    0    0    0  0.00000000000E+00  0.00000000000E+00  0.45593999997E+02  0.45594000000E+02  0.51100000000E-03 0. -1.
         11   -1    0    0    0    0 -0.00000000000E+00 -0.00000000000E+00 -0.45593999997E+02  0.45594000000E+02  0.51100000000E-03 0.  1.
         23    2    1    2    0    0 -0.35527136788E-14 -0.35527136788E-14  0.71054273576E-14  0.91188000000E+02  0.91188000000E+02 0.  0.
    9900012    2    3    3    0    0 -0.25360500573E+02 -0.20553527878E+02  0.31040473198E+02  0.46142317922E+02  0.10000001463E+02 0.  0.
        -12    1    3    3    0    0  0.25360500573E+02  0.20553527878E+02 -0.31040473198E+02  0.45045682078E+02  0.00000000000E+00 0.  1.
         11    1    4    4    0    0 -0.24421020951E+02 -0.20486527471E+02  0.31478746291E+02  0.44799503796E+02  0.51100000000E-03 0. -1.
        -11    1    4    4    0    0 -0.49964677297E-01 -0.28443483643E+00  0.67699740507E-01  0.29661955623E+00  0.51100000000E-03 0.  1.
         12    1    4    4    0    0 -0.88951494471E+00  0.21743442933E+00 -0.50597283312E+00  0.10461945688E+01  0.00000000000E+00 0. -1.
</event>
<event>
 8    1  0.2882335E-009  0.9118800E+02  0.7816164E-02  0.1184000E+00
        -11   -1    0    0    0    0  0.00000000000E+00  0.00000000000E+00  0.45593999997E+02  0.45594000000E+02  0.51100000000E-03 0. -1.
         11   -1    0    0    0    0 -0.00000000000E+00 -0.00000000000E+00 -0.45593999997E+02  0.45594000000E+02  0.51100000000E-03 0.  1.
         23    2    1    2    0    0 -0.35527136788E-14  0.00000000000E+00  0.00000000000E+00  0.91188000000E+02  0.91188000000E+02 0.  0.
    9900012    2    3    3    0    0  0.20926294689E+02  0.11595261666E+02  0.38167442333E+02  0.46142317002E+02  0.99999930740E+01 0.  0.
        -12    1    3    3    0    0 -0.20926294689E+02 -0.11595261666E+02 -0.38167442333E+02  0.45045682998E+02  0.00000000000E+00 0.  1.
         11    1    4    4    0    0  0.63984779948E+00  0.14710860618E+01  0.92085414816E-01  0.16068538803E+01  0.51100000000E-03 0.  1.
        -11    1    4    4    0    0  0.17391098353E+02  0.70628502906E+01  0.32712503623E+02  0.37715276079E+02  0.51100000000E-03 0. -1.
        -12    1    4    4    0    0  0.28953485364E+01  0.30613253139E+01  0.53628532956E+01  0.68201870425E+01  0.00000000000E+00 0.  1.
</event>
<event>
 8    1  0.2882335E-009  0.9118800E+02  0.7816164E-02  0.1184000E+00
        -11   -1    0    0    0    0  0.00000000000E+00  0.00000000000E+00  0.45593999997E+02  0.45594000000E+02  0.51100000000E-03 0. -1.
         11   -1    0    0    0    0 -0.00000000000E+00 -0.00000000000E+00 -0.45593999997E+02  0.45594000000E+02  0.51100000000E-03 0.  1.
         23    2    1    2    0    0  0.00000000000E+00  0.00000000000E+00  0.35527136788E-14  0.91188000000E+02  0.91188000000E+02 0.  0.
    9900012    2    3    3    0    0  0.11658723105E+02  0.32154515251E+02 -0.29313389453E+02  0.46142317891E+02  0.10000001184E+02 0.  0.
         12    1    3    3    0    0 -0.11658723105E+02 -0.32154515251E+02  0.29313389453E+02  0.45045682109E+02  0.00000000000E+00 0. -1.
         11    1    4    4    0    0  0.22463832730E+00  0.93045626723E+00 -0.43181620857E+01  0.44229781033E+01  0.51100000000E-03 0. -1.
        -11    1    4    4    0    0  0.18548286111E+01  0.71292118600E+01 -0.69613998031E+01  0.10135439724E+02  0.51100000000E-03 0.  1.
         12    1    4    4    0    0  0.95792561669E+01  0.24094847124E+02 -0.18033827564E+02  0.31583900064E+02  0.00000000000E+00 0. -1.
</event>
<event>
 8    1  0.2882335E-009  0.9118800E+02  0.7816164E-02  0.1184000E+00
        -11   -1    0    0    0    0  0.00000000000E+00  0.00000000000E+00  0.45593999997E+02  0.45594000000E+02  0.51100000000E-03 0. -1.
         11   -1    0    0    0    0 -0.00000000000E+00 -0.00000000000E+00 -0.45593999997E+02  0.45594000000E+02  0.51100000000E-03 0.  1.
         23    2    1    2    0    0 -0.44408920985E-15  0.00000000000E+00  0.71054273576E-14  0.91188000000E+02  0.91188000000E+02 0.  0.
    9900012    2    3    3    0    0  0.21293766944E+01 -0.18887972754E+02 -0.40839001751E+02  0.46142314037E+02  0.99999660373E+01 0.  0.
         12    1    3    3    0    0 -0.21293766944E+01  0.18887972754E+02  0.40839001751E+02  0.45045685963E+02  0.00000000000E+00 0. -1.
         11    1    4    4    0    0  0.47340994718E+01 -0.16889598571E+02 -0.37440304206E+02  0.41345454611E+02  0.51100000000E-03 0. -1.
        -11    1    4    4    0    0 -0.12678612232E+01 -0.14067023895E+01 -0.16014946444E+01  0.24801348857E+01  0.51100000000E-03 0.  1.
         12    1    4    4    0    0 -0.13368615541E+01 -0.59167179323E+00 -0.17972029007E+01  0.23167245395E+01  0.00000000000E+00 0. -1.
</event>
<event>
 8    1  0.2882335E-009  0.9118800E+02  0.7816164E-02  0.1184000E+00
        -11   -1    0    0    0    0  0.00000000000E+00  0.00000000000E+00  0.45593999997E+02  0.45594000000E+02  0.51100000000E-03 0. -1.
         11   -1    0    0    0    0 -0.00000000000E+00 -0.00000000000E+00 -0.45593999997E+02  0.45594000000E+02  0.51100000000E-03 0.  1.
         23    2    1    2    0    0  0.00000000000E+00 -0.17763568394E-14  0.00000000000E+00  0.91188000000E+02  0.91188000000E+02 0.  0.
    9900012    2    3    3    0    0 -0.10919808176E+02  0.12407186028E+02  0.41903854465E+02  0.46142317690E+02  0.99999993530E+01 0.  0.
        -12    1    3    3    0    0  0.10919808176E+02 -0.12407186028E+02 -0.41903854465E+02  0.45045682310E+02  0.00000000000E+00 0.  1.
         11    1    4    4    0    0 -0.25402407785E+01  0.92506077853E+01  0.22866987631E+02  0.24797695280E+02  0.51100000000E-03 0. -1.
        -11    1    4    4    0    0 -0.64005934539E+01  0.10853443735E+01  0.15418937113E+02  0.16729889149E+02  0.51100000000E-03 0.  1.
        -12    1    4    4    0    0 -0.19789739439E+01  0.20712338692E+01  0.36179297210E+01  0.46147332618E+01  0.00000000000E+00 0.  1.
</event>
<event>
 8    1  0.2882335E-009  0.9118800E+02  0.7816164E-02  0.1184000E+00
        -11   -1    0    0    0    0  0.00000000000E+00  0.00000000000E+00  0.45593999997E+02  0.45594000000E+02  0.51100000000E-03 0. -1.
         11   -1    0    0    0    0 -0.00000000000E+00 -0.00000000000E+00 -0.45593999997E+02  0.45594000000E+02  0.51100000000E-03 0.  1.
         23    2    1    2    0    0  0.35527136788E-14  0.00000000000E+00 -0.71054273576E-14  0.91188000000E+02  0.91188000000E+02 0.  0.
    9900012    2    3    3    0    0  0.16530360766E+02 -0.12702753912E+02 -0.39931200662E+02  0.46142316851E+02  0.99999917034E+01 0.  0.
         12    1    3    3    0    0 -0.16530360766E+02  0.12702753912E+02  0.39931200662E+02  0.45045683149E+02  0.00000000000E+00 0. -1.
         11    1    4    4    0    0  0.12306109302E+02 -0.10941320116E+02 -0.24748282767E+02  0.29725919872E+02  0.51100000000E-03 0. -1.
        -11    1    4    4    0    0  0.41319780226E+01  0.32609029262E+00 -0.10497885382E+02  0.11286504109E+02  0.51100000000E-03 0.  1.
         12    1    4    4    0    0  0.92273440985E-01 -0.20875240884E+01 -0.46850325135E+01  0.51298928703E+01  0.00000000000E+00 0. -1.
</event>
<event>
 8    1  0.2882335E-009  0.9118800E+02  0.7816164E-02  0.1184000E+00
        -11   -1    0    0    0    0  0.00000000000E+00  0.00000000000E+00  0.45593999997E+02  0.45594000000E+02  0.51100000000E-03 0. -1.
         11   -1    0    0    0    0 -0.00000000000E+00 -0.00000000000E+00 -0.45593999997E+02  0.45594000000E+02  0.51100000000E-03 0.  1.
         23    2    1    2    0    0  0.88817841970E-15 -0.71054273576E-14  0.00000000000E+00  0.91188000000E+02  0.91188000000E+02 0.  0.
    9900012    2    3    3    0    0 -0.68828081992E+01 -0.41462472302E+02 -0.16205057847E+02  0.46142316990E+02  0.99999929642E+01 0.  0.
         12    1    3    3    0    0  0.68828081992E+01  0.41462472302E+02  0.16205057847E+02  0.45045683010E+02  0.00000000000E+00 0. -1.
         11    1    4    4    0    0 -0.89525787613E+01 -0.24909897891E+02 -0.10796876401E+02  0.28587133814E+02  0.51100000000E-03 0. -1.
        -11    1    4    4    0    0  0.79635296887E+00 -0.92602779991E+01 -0.28130125542E+01  0.97108169874E+01  0.51100000000E-03 0.  1.
         12    1    4    4    0    0  0.12734175933E+01 -0.72922964113E+01 -0.25951688917E+01  0.78443661882E+01  0.00000000000E+00 0. -1.
</event>
<event>
 8    1  0.2882335E-009  0.9118800E+02  0.7816164E-02  0.1184000E+00
        -11   -1    0    0    0    0  0.00000000000E+00  0.00000000000E+00  0.45593999997E+02  0.45594000000E+02  0.51100000000E-03 0. -1.
         11   -1    0    0    0    0 -0.00000000000E+00 -0.00000000000E+00 -0.45593999997E+02  0.45594000000E+02  0.51100000000E-03 0.  1.
         23    2    1    2    0    0  0.00000000000E+00  0.00000000000E+00  0.00000000000E+00  0.91188000000E+02  0.91188000000E+02 0.  0.
    9900012    2    3    3    0    0 -0.33023935704E+02 -0.29518454218E+02 -0.81972008888E+01  0.46142316842E+02  0.99999916163E+01 0.  0.
         12    1    3    3    0    0  0.33023935704E+02  0.29518454218E+02  0.81972008888E+01  0.45045683158E+02  0.00000000000E+00 0. -1.
         11    1    4    4    0    0 -0.18611425103E+01 -0.25291192458E+01 -0.13496137441E+01  0.34178579728E+01  0.51100000000E-03 0. -1.
        -11    1    4    4    0    0 -0.84306772823E+01 -0.86509911317E+01 -0.60421812200E+01  0.13506439988E+02  0.51100000000E-03 0.  1.
        -12    1    4    4    0    0 -0.22732115911E+02 -0.18338343841E+02 -0.80540592475E+00  0.29218018881E+02  0.00000000000E+00 0.  1.
</event>
<event>
 8    1  0.2882335E-009  0.9118800E+02  0.7816164E-02  0.1184000E+00
        -11   -1    0    0    0    0  0.00000000000E+00  0.00000000000E+00  0.45593999997E+02  0.45594000000E+02  0.51100000000E-03 0. -1.
         11   -1    0    0    0    0 -0.00000000000E+00 -0.00000000000E+00 -0.45593999997E+02  0.45594000000E+02  0.51100000000E-03 0.  1.
         23    2    1    2    0    0  0.35527136788E-14  0.17763568394E-14  0.00000000000E+00  0.91188000000E+02  0.91188000000E+02 0.  0.
    9900012    2    3    3    0    0 -0.24163244554E+02 -0.97119587404E+01  0.36754985072E+02  0.46142318103E+02  0.10000003115E+02 0.  0.
        -12    1    3    3    0    0  0.24163244554E+02  0.97119587404E+01 -0.36754985072E+02  0.45045681897E+02  0.00000000000E+00 0.  1.
         11    1    4    4    0    0 -0.60541251581E-01 -0.20296413740E+01  0.14157728887E+01  0.24753833004E+01  0.51100000000E-03 0.  1.
        -11    1    4    4    0    0 -0.13723148961E+02 -0.65375536862E+01  0.21450256450E+02  0.26290262982E+02  0.51100000000E-03 0. -1.
         12    1    4    4    0    0 -0.10379554341E+02 -0.11447636801E+01  0.13888955733E+02  0.17376671821E+02  0.00000000000E+00 0. -1.
</event>
<event>
 8    1  0.2882335E-009  0.9118800E+02  0.7816164E-02  0.1184000E+00
        -11   -1    0    0    0    0  0.00000000000E+00  0.00000000000E+00  0.45593999997E+02  0.45594000000E+02  0.51100000000E-03 0. -1.
         11   -1    0    0    0    0 -0.00000000000E+00 -0.00000000000E+00 -0.45593999997E+02  0.45594000000E+02  0.51100000000E-03 0.  1.
         23    2    1    2    0    0 -0.17763568394E-14  0.00000000000E+00  0.00000000000E+00  0.91188000000E+02  0.91188000000E+02 0.  0.
    9900012    2    3    3    0    0  0.10746186727E+02  0.71385684486E+01  0.43158704965E+02  0.46142317599E+02  0.99999985243E+01 0.  0.
        -12    1    3    3    0    0 -0.10746186727E+02 -0.71385684486E+01 -0.43158704965E+02  0.45045682401E+02  0.00000000000E+00 0.  1.
         11    1    4    4    0    0  0.11572014695E+02  0.64509979064E+01  0.35883502937E+02  0.38251178824E+02  0.51100000000E-03 0. -1.
        -11    1    4    4    0    0  0.57045472572E+00 -0.48191004384E+00  0.45657415532E+01  0.46264081182E+01  0.51100000000E-03 0.  1.
         12    1    4    4    0    0 -0.13962826935E+01  0.11694805861E+01  0.27094604749E+01  0.32647306576E+01  0.00000000000E+00 0. -1.
</event>
<event>
 8    1  0.2882335E-009  0.9118800E+02  0.7816164E-02  0.1184000E+00
        -11   -1    0    0    0    0  0.00000000000E+00  0.00000000000E+00  0.45593999997E+02  0.45594000000E+02  0.51100000000E-03 0. -1.
         11   -1    0    0    0    0 -0.00000000000E+00 -0.00000000000E+00 -0.45593999997E+02  0.45594000000E+02  0.51100000000E-03 0.  1.
         23    2    1    2    0    0  0.00000000000E+00  0.35527136788E-14  0.00000000000E+00  0.91188000000E+02  0.91188000000E+02 0.  0.
    9900012    2    3    3    0    0  0.15508448602E+02  0.27684844950E+02  0.31971104410E+02  0.46142310582E+02  0.99999345360E+01 0.  0.
        -12    1    3    3    0    0 -0.15508448602E+02 -0.27684844950E+02 -0.31971104410E+02  0.45045689418E+02  0.00000000000E+00 0.  1.
         11    1    4    4    0    0  0.41793035948E+01  0.79784298057E+01  0.12268312326E+02  0.15219507491E+02  0.51100000000E-03 0. -1.
        -11    1    4    4    0    0  0.38057349948E+01  0.13219025580E+02  0.97521645382E+01  0.16862116403E+02  0.51100000000E-03 0.  1.
        -12    1    4    4    0    0  0.75234100126E+01  0.64873895640E+01  0.99506275458E+01  0.14060686688E+02  0.00000000000E+00 0.  1.
</event>
<event>
 8    1  0.2882335E-009  0.9118800E+02  0.7816164E-02  0.1184000E+00
        -11   -1    0    0    0    0  0.00000000000E+00  0.00000000000E+00  0.45593999997E+02  0.45594000000E+02  0.51100000000E-03 0. -1.
         11   -1    0    0    0    0 -0.00000000000E+00 -0.00000000000E+00 -0.45593999997E+02  0.45594000000E+02  0.51100000000E-03 0.  1.
         23    2    1    2    0    0 -0.35527136788E-14  0.00000000000E+00  0.00000000000E+00  0.91188000000E+02  0.91188000000E+02 0.  0.
    9900012    2    3    3    0    0  0.17017118117E+02  0.22575234999E+02  0.35069787021E+02  0.46142317566E+02  0.99999982202E+01 0.  0.
        -12    1    3    3    0    0 -0.17017118117E+02 -0.22575234999E+02 -0.35069787021E+02  0.45045682434E+02  0.00000000000E+00 0.  1.
         11    1    4    4    0    0  0.97474930739E+01  0.70292939351E+01  0.14218905330E+02  0.18617246399E+02  0.51100000000E-03 0. -1.
        -11    1    4    4    0    0  0.37956814466E+01  0.11154516811E+02  0.10621089505E+02  0.15863101383E+02  0.51100000000E-03 0.  1.
        -12    1    4    4    0    0  0.34739435962E+01  0.43914242528E+01  0.10229792186E+02  0.11661969784E+02  0.00000000000E+00 0.  1.
</event>
<event>
 8    1  0.3817567E-009  0.9118800E+02  0.7816164E-02  0.1184000E+00
        -11   -1    0    0    0    0  0.00000000000E+00  0.00000000000E+00  0.45593999997E+02  0.45594000000E+02  0.51100000000E-03 0. -1.
         11   -1    0    0    0    0 -0.00000000000E+00 -0.00000000000E+00 -0.45593999997E+02  0.45594000000E+02  0.51100000000E-03 0.  1.
         23    2    1    2    0    0  0.00000000000E+00  0.71054273576E-14  0.00000000000E+00  0.91188000000E+02  0.91188000000E+02 0.  0.
    9900012    2    3    3    0    0 -0.14092565531E+01  0.39056101312E+02 -0.22399742225E+02  0.46142317571E+02  0.99999982671E+01 0.  0.
         12    1    3    3    0    0  0.14092565531E+01 -0.39056101312E+02  0.22399742225E+02  0.45045682429E+02  0.00000000000E+00 0. -1.
         11    1    4    4    0    0  0.29614148778E+01  0.52164225070E+01 -0.27234827031E+01  0.65877462114E+01  0.51100000000E-03 0. -1.
        -11    1    4    4    0    0 -0.49197426746E+01  0.28462669926E+02 -0.17101339604E+02  0.33567592464E+02  0.51100000000E-03 0.  1.
        -12    1    4    4    0    0  0.54907124373E+00  0.53770088791E+01 -0.25749199182E+01  0.59869788961E+01  0.00000000000E+00 0.  1.
</event>
<event>
 8    1  0.2882335E-009  0.9118800E+02  0.7816164E-02  0.1184000E+00
        -11   -1    0    0    0    0  0.00000000000E+00  0.00000000000E+00  0.45593999997E+02  0.45594000000E+02  0.51100000000E-03 0. -1.
         11   -1    0    0    0    0 -0.00000000000E+00 -0.00000000000E+00 -0.45593999997E+02  0.45594000000E+02  0.51100000000E-03 0.  1.
         23    2    1    2    0    0  0.00000000000E+00  0.00000000000E+00  0.00000000000E+00  0.91188000000E+02  0.91188000000E+02 0.  0.
    9900012    2    3    3    0    0 -0.59349897478E+01  0.17456878834E+02  0.41099230140E+02  0.46142318297E+02  0.10000004890E+02 0.  0.
        -12    1    3    3    0    0  0.59349897478E+01 -0.17456878834E+02 -0.41099230140E+02  0.45045681703E+02  0.00000000000E+00 0.  1.
         11    1    4    4    0    0  0.15853661646E+00  0.11626877633E+01  0.51730816498E+01  0.53045028712E+01  0.51100000000E-03 0. -1.
        -11    1    4    4    0    0 -0.40830510581E+01  0.18892905859E+01  0.12262024356E+02  0.13061315647E+02  0.51100000000E-03 0.  1.
        -12    1    4    4    0    0 -0.20104753062E+01  0.14404900485E+02  0.23664124134E+02  0.27776499779E+02  0.00000000000E+00 0.  1.
</event>
<event>
 8    1  0.2882335E-009  0.9118800E+02  0.7816164E-02  0.1184000E+00
        -11   -1    0    0    0    0  0.00000000000E+00  0.00000000000E+00  0.45593999997E+02  0.45594000000E+02  0.51100000000E-03 0. -1.
         11   -1    0    0    0    0 -0.00000000000E+00 -0.00000000000E+00 -0.45593999997E+02  0.45594000000E+02  0.51100000000E-03 0.  1.
         23    2    1    2    0    0 -0.88817841970E-15  0.00000000000E+00  0.00000000000E+00  0.91188000000E+02  0.91188000000E+02 0.  0.
    9900012    2    3    3    0    0  0.43906977503E+01  0.27092466174E+02  0.35718812328E+02  0.46142317585E+02  0.99999983917E+01 0.  0.
        -12    1    3    3    0    0 -0.43906977503E+01 -0.27092466174E+02 -0.35718812328E+02  0.45045682415E+02  0.00000000000E+00 0.  1.
         11    1    4    4    0    0  0.60549808425E+01  0.10124808042E+02  0.16879366036E+02  0.20593385563E+02  0.51100000000E-03 0. -1.
        -11    1    4    4    0    0 -0.13256746775E+01  0.11235927900E+02  0.10581292839E+02  0.15490876267E+02  0.51100000000E-03 0.  1.
        -12    1    4    4    0    0 -0.33860841468E+00  0.57317302328E+01  0.82581534533E+01  0.10058055755E+02  0.00000000000E+00 0.  1.
</event>
<event>
 8    1  0.2882335E-009  0.9118800E+02  0.7816164E-02  0.1184000E+00
        -11   -1    0    0    0    0  0.00000000000E+00  0.00000000000E+00  0.45593999997E+02  0.45594000000E+02  0.51100000000E-03 0.  1.
         11   -1    0    0    0    0 -0.00000000000E+00 -0.00000000000E+00 -0.45593999997E+02  0.45594000000E+02  0.51100000000E-03 0. -1.
         23    2    1    2    0    0  0.35527136788E-14  0.00000000000E+00  0.00000000000E+00  0.91188000000E+02  0.91188000000E+02 0.  0.
    9900012    2    3    3    0    0 -0.29069034191E+02 -0.30711257478E+02  0.15521707116E+02  0.46142317893E+02  0.10000001206E+02 0.  0.
        -12    1    3    3    0    0  0.29069034191E+02  0.30711257478E+02 -0.15521707116E+02  0.45045682107E+02  0.00000000000E+00 0.  1.
         11    1    4    4    0    0 -0.16633967368E+01 -0.40970483958E+01 -0.40059015147E+00  0.44399512376E+01  0.51100000000E-03 0. -1.
        -11    1    4    4    0    0 -0.21264761445E+02 -0.17457045721E+02  0.11064298937E+02  0.29653958182E+02  0.51100000000E-03 0.  1.
        -12    1    4    4    0    0 -0.61408760091E+01 -0.91571633613E+01  0.48579983303E+01  0.12048408474E+02  0.00000000000E+00 0.  1.
</event>
<event>
 8    1  0.2882335E-009  0.9118800E+02  0.7816164E-02  0.1184000E+00
        -11   -1    0    0    0    0  0.00000000000E+00  0.00000000000E+00  0.45593999997E+02  0.45594000000E+02  0.51100000000E-03 0.  1.
         11   -1    0    0    0    0 -0.00000000000E+00 -0.00000000000E+00 -0.45593999997E+02  0.45594000000E+02  0.51100000000E-03 0. -1.
         23    2    1    2    0    0  0.00000000000E+00  0.00000000000E+00  0.44408920985E-15  0.91188000000E+02  0.91188000000E+02 0.  0.
    9900012    2    3    3    0    0 -0.14813568420E+02 -0.42377545345E+02  0.37169064464E+01  0.46142317051E+02  0.99999935266E+01 0.  0.
        -12    1    3    3    0    0  0.14813568420E+02  0.42377545345E+02 -0.37169064464E+01  0.45045682949E+02  0.00000000000E+00 0.  1.
         11    1    4    4    0    0 -0.36892453937E+01 -0.19115627320E+02  0.13958677216E+01  0.19518355114E+02  0.51100000000E-03 0. -1.
        -11    1    4    4    0    0 -0.44323423213E+01 -0.34782738979E+01  0.67283270512E+00  0.56742181727E+01  0.51100000000E-03 0.  1.
        -12    1    4    4    0    0 -0.66919807049E+01 -0.19783644127E+02  0.16482060196E+01  0.20949743764E+02  0.00000000000E+00 0.  1.
</event>
<event>
 8    1  0.2882335E-009  0.9118800E+02  0.7816164E-02  0.1184000E+00
        -11   -1    0    0    0    0  0.00000000000E+00  0.00000000000E+00  0.45593999997E+02  0.45594000000E+02  0.51100000000E-03 0. -1.
         11   -1    0    0    0    0 -0.00000000000E+00 -0.00000000000E+00 -0.45593999997E+02  0.45594000000E+02  0.51100000000E-03 0.  1.
         23    2    1    2    0    0  0.00000000000E+00 -0.88817841970E-15  0.71054273576E-14  0.91188000000E+02  0.91188000000E+02 0.  0.
    9900012    2    3    3    0    0  0.19672389671E+02  0.43419443078E+01 -0.40289681505E+02  0.46142313952E+02  0.99999652657E+01 0.  0.
         12    1    3    3    0    0 -0.19672389671E+02 -0.43419443078E+01  0.40289681505E+02  0.45045686048E+02  0.00000000000E+00 0. -1.
         11    1    4    4    0    0  0.24239692438E+00  0.87941316976E+00 -0.85649861714E+01  0.86134262735E+01  0.51100000000E-03 0. -1.
        -11    1    4    4    0    0  0.18162978970E+02  0.24912055672E+01 -0.27899015538E+02  0.33383453663E+02  0.51100000000E-03 0.  1.
         12    1    4    4    0    0  0.12670137774E+01  0.97132557085E+00 -0.38256797961E+01  0.41454340158E+01  0.00000000000E+00 0. -1.
</event>
<event>
 8    1  0.2882335E-009  0.9118800E+02  0.7816164E-02  0.1184000E+00
        -11   -1    0    0    0    0  0.00000000000E+00  0.00000000000E+00  0.45593999997E+02  0.45594000000E+02  0.51100000000E-03 0. -1.
         11   -1    0    0    0    0 -0.00000000000E+00 -0.00000000000E+00 -0.45593999997E+02  0.45594000000E+02  0.51100000000E-03 0.  1.
         23    2    1    2    0    0  0.00000000000E+00  0.00000000000E+00  0.00000000000E+00  0.91188000000E+02  0.91188000000E+02 0.  0.
    9900012    2    3    3    0    0  0.20397523059E+02 -0.19998703014E+02  0.34829676449E+02  0.46142318401E+02  0.10000005837E+02 0.  0.
        -12    1    3    3    0    0 -0.20397523059E+02  0.19998703014E+02 -0.34829676449E+02  0.45045681599E+02  0.00000000000E+00 0.  1.
         11    1    4    4    0    0  0.29453031363E+01 -0.11919653467E+01  0.68115669234E+01  0.75161849476E+01  0.51100000000E-03 0. -1.
        -11    1    4    4    0    0  0.16957599005E+02 -0.16159454479E+02  0.22470465040E+02  0.32459358164E+02  0.51100000000E-03 0.  1.
         12    1    4    4    0    0  0.49462091731E+00 -0.26472831884E+01  0.55476444854E+01  0.61667752892E+01  0.00000000000E+00 0. -1.
</event>
<event>
 8    1  0.2882335E-009  0.9118800E+02  0.7816164E-02  0.1184000E+00
        -11   -1    0    0    0    0  0.00000000000E+00  0.00000000000E+00  0.45593999997E+02  0.45594000000E+02  0.51100000000E-03 0. -1.
         11   -1    0    0    0    0 -0.00000000000E+00 -0.00000000000E+00 -0.45593999997E+02  0.45594000000E+02  0.51100000000E-03 0.  1.
         23    2    1    2    0    0  0.00000000000E+00  0.00000000000E+00  0.00000000000E+00  0.91188000000E+02  0.91188000000E+02 0.  0.
    9900012    2    3    3    0    0 -0.93247533959E+01 -0.88134838796E+01  0.43179682847E+02  0.46142317246E+02  0.99999953040E+01 0.  0.
        -12    1    3    3    0    0  0.93247533959E+01  0.88134838796E+01 -0.43179682847E+02  0.45045682754E+02  0.00000000000E+00 0.  1.
         11    1    4    4    0    0 -0.20866304338E+01 -0.15709283966E+01  0.14693809946E+02  0.14924137951E+02  0.51100000000E-03 0. -1.
        -11    1    4    4    0    0 -0.51558058687E+01 -0.55465446579E+01  0.10028855228E+02  0.12566798687E+02  0.51100000000E-03 0.  1.
        -12    1    4    4    0    0 -0.20823170933E+01 -0.16960108252E+01  0.18457017673E+02  0.18651380608E+02  0.00000000000E+00 0.  1.
</event>
<event>
 8    1  0.2882335E-009  0.9118800E+02  0.7816164E-02  0.1184000E+00
        -11   -1    0    0    0    0  0.00000000000E+00  0.00000000000E+00  0.45593999997E+02  0.45594000000E+02  0.51100000000E-03 0. -1.
         11   -1    0    0    0    0 -0.00000000000E+00 -0.00000000000E+00 -0.45593999997E+02  0.45594000000E+02  0.51100000000E-03 0.  1.
         23    2    1    2    0    0  0.17763568394E-14  0.00000000000E+00  0.00000000000E+00  0.91188000000E+02  0.91188000000E+02 0.  0.
    9900012    2    3    3    0    0  0.15092646826E+02  0.25185482658E+02  0.34161630639E+02  0.46142317267E+02  0.99999954974E+01 0.  0.
        -12    1    3    3    0    0 -0.15092646826E+02 -0.25185482658E+02 -0.34161630639E+02  0.45045682733E+02  0.00000000000E+00 0.  1.
         11    1    4    4    0    0  0.68655752007E+01  0.11987956290E+02  0.17504910342E+02  0.22299531502E+02  0.51100000000E-03 0. -1.
        -11    1    4    4    0    0  0.14529217924E+01 -0.50074213821E+00  0.53000587306E+00  0.16256170860E+01  0.51100000000E-03 0.  1.
        -12    1    4    4    0    0  0.67741498329E+01  0.13698268507E+02  0.16126714423E+02  0.22217168680E+02  0.00000000000E+00 0.  1.
</event>
<event>
 8    1  0.2882335E-009  0.9118800E+02  0.7816164E-02  0.1184000E+00
        -11   -1    0    0    0    0  0.00000000000E+00  0.00000000000E+00  0.45593999997E+02  0.45594000000E+02  0.51100000000E-03 0. -1.
         11   -1    0    0    0    0 -0.00000000000E+00 -0.00000000000E+00 -0.45593999997E+02  0.45594000000E+02  0.51100000000E-03 0.  1.
         23    2    1    2    0    0  0.17763568394E-14  0.00000000000E+00  0.00000000000E+00  0.91188000000E+02  0.91188000000E+02 0.  0.
    9900012    2    3    3    0    0 -0.10603241244E+02  0.15870653569E+02  0.40802047778E+02  0.46142317938E+02  0.10000001612E+02 0.  0.
        -12    1    3    3    0    0  0.10603241244E+02 -0.15870653569E+02 -0.40802047778E+02  0.45045682062E+02  0.00000000000E+00 0.  1.
         11    1    4    4    0    0 -0.17096306140E+01  0.64707622363E+01  0.77163666222E+01  0.10214495331E+02  0.51100000000E-03 0. -1.
        -11    1    4    4    0    0 -0.50834993204E+01  0.48406528965E+01  0.10935570291E+02  0.12994636726E+02  0.51100000000E-03 0.  1.
        -12    1    4    4    0    0 -0.38101113096E+01  0.45592384358E+01  0.22150110865E+02  0.22933185881E+02  0.00000000000E+00 0.  1.
</event>
<event>
 8    1  0.2941794E-009  0.9118800E+02  0.7816164E-02  0.1184000E+00
        -11   -1    0    0    0    0  0.00000000000E+00  0.00000000000E+00  0.45593999997E+02  0.45594000000E+02  0.51100000000E-03 0. -1.
         11   -1    0    0    0    0 -0.00000000000E+00 -0.00000000000E+00 -0.45593999997E+02  0.45594000000E+02  0.51100000000E-03 0.  1.
         23    2    1    2    0    0  0.35527136788E-14  0.00000000000E+00 -0.71054273576E-14  0.91188000000E+02  0.91188000000E+02 0.  0.
    9900012    2    3    3    0    0  0.25553243569E+02 -0.52863373987E+01 -0.36717845960E+02  0.46142313948E+02  0.99999652297E+01 0.  0.
         12    1    3    3    0    0 -0.25553243569E+02  0.52863373987E+01  0.36717845960E+02  0.45045686052E+02  0.00000000000E+00 0. -1.
         11    1    4    4    0    0  0.24529636244E+01 -0.73926523421E+00 -0.87863973319E+01  0.91522850679E+01  0.51100000000E-03 0. -1.
        -11    1    4    4    0    0  0.17458014402E+02 -0.48110153724E+01 -0.24180112183E+02  0.30209368765E+02  0.51100000000E-03 0.  1.
        -12    1    4    4    0    0  0.56422655426E+01  0.26394320796E+00 -0.37513364448E+01  0.67806601148E+01  0.00000000000E+00 0.  1.
</event>
<event>
 8    1  0.2882335E-009  0.9118800E+02  0.7816164E-02  0.1184000E+00
        -11   -1    0    0    0    0  0.00000000000E+00  0.00000000000E+00  0.45593999997E+02  0.45594000000E+02  0.51100000000E-03 0.  1.
         11   -1    0    0    0    0 -0.00000000000E+00 -0.00000000000E+00 -0.45593999997E+02  0.45594000000E+02  0.51100000000E-03 0. -1.
         23    2    1    2    0    0 -0.71054273576E-14  0.00000000000E+00  0.00000000000E+00  0.91188000000E+02  0.91188000000E+02 0.  0.
    9900012    2    3    3    0    0 -0.41651433140E+02 -0.14920395435E+02  0.84648300263E+01  0.46142318410E+02  0.10000005913E+02 0.  0.
        -12    1    3    3    0    0  0.41651433140E+02  0.14920395435E+02 -0.84648300263E+01  0.45045681590E+02  0.00000000000E+00 0.  1.
         11    1    4    4    0    0 -0.11221469258E+02 -0.77331243853E+01  0.12530896324E+01  0.13685496664E+02  0.51100000000E-03 0. -1.
        -11    1    4    4    0    0 -0.83846311510E+01  0.58911764903E-01  0.10754041602E+01  0.84535202433E+01  0.51100000000E-03 0.  1.
         12    1    4    4    0    0 -0.22045332731E+02 -0.72461828151E+01  0.61363362338E+01  0.24003301502E+02  0.00000000000E+00 0. -1.
</event>
<event>
 8    1  0.2882335E-009  0.9118800E+02  0.7816164E-02  0.1184000E+00
        -11   -1    0    0    0    0  0.00000000000E+00  0.00000000000E+00  0.45593999997E+02  0.45594000000E+02  0.51100000000E-03 0. -1.
         11   -1    0    0    0    0 -0.00000000000E+00 -0.00000000000E+00 -0.45593999997E+02  0.45594000000E+02  0.51100000000E-03 0.  1.
         23    2    1    2    0    0 -0.17763568394E-14  0.00000000000E+00  0.00000000000E+00  0.91188000000E+02  0.91188000000E+02 0.  0.
    9900012    2    3    3    0    0  0.15175311282E+02  0.31829056492E+02 -0.28030957056E+02  0.46142318041E+02  0.10000002553E+02 0.  0.
         12    1    3    3    0    0 -0.15175311282E+02 -0.31829056492E+02  0.28030957056E+02  0.45045681959E+02  0.00000000000E+00 0. -1.
         11    1    4    4    0    0  0.91300656369E+00 -0.75623997118E-01 -0.30572157916E+00  0.96579807381E+00  0.51100000000E-03 0. -1.
        -11    1    4    4    0    0  0.78591116829E+01  0.10592458296E+02 -0.12814180221E+02  0.18389372588E+02  0.51100000000E-03 0.  1.
         12    1    4    4    0    0  0.64031930354E+01  0.21312222193E+02 -0.14911055255E+02  0.26787147379E+02  0.00000000000E+00 0. -1.
</event>
<event>
 8    1  0.2882335E-009  0.9118800E+02  0.7816164E-02  0.1184000E+00
        -11   -1    0    0    0    0  0.00000000000E+00  0.00000000000E+00  0.45593999997E+02  0.45594000000E+02  0.51100000000E-03 0. -1.
         11   -1    0    0    0    0 -0.00000000000E+00 -0.00000000000E+00 -0.45593999997E+02  0.45594000000E+02  0.51100000000E-03 0.  1.
         23    2    1    2    0    0  0.35527136788E-14  0.00000000000E+00 -0.17763568394E-14  0.91188000000E+02  0.91188000000E+02 0.  0.
    9900012    2    3    3    0    0 -0.25489323140E+02  0.35561638816E+02  0.10713430212E+02  0.46142319449E+02  0.10000015393E+02 0.  0.
        -12    1    3    3    0    0  0.25489323140E+02 -0.35561638816E+02 -0.10713430212E+02  0.45045680551E+02  0.00000000000E+00 0.  1.
         11    1    4    4    0    0 -0.92651705778E+01  0.20925886576E+02  0.37261687868E+01  0.23186643761E+02  0.51100000000E-03 0. -1.
        -11    1    4    4    0    0 -0.12484046907E+02  0.11538174732E+02  0.51338102916E+01  0.17757728224E+02  0.51100000000E-03 0.  1.
         12    1    4    4    0    0 -0.37401056551E+01  0.30975775080E+01  0.18534511335E+01  0.51979474635E+01  0.00000000000E+00 0. -1.
</event>
<event>
 8    1  0.2882335E-009  0.9118800E+02  0.7816164E-02  0.1184000E+00
        -11   -1    0    0    0    0  0.00000000000E+00  0.00000000000E+00  0.45593999997E+02  0.45594000000E+02  0.51100000000E-03 0. -1.
         11   -1    0    0    0    0 -0.00000000000E+00 -0.00000000000E+00 -0.45593999997E+02  0.45594000000E+02  0.51100000000E-03 0.  1.
         23    2    1    2    0    0  0.00000000000E+00  0.00000000000E+00 -0.35527136788E-14  0.91188000000E+02  0.91188000000E+02 0.  0.
    9900012    2    3    3    0    0  0.31667468183E+02  0.24507130253E+01  0.31941806209E+02  0.46142317417E+02  0.99999968656E+01 0.  0.
        -12    1    3    3    0    0 -0.31667468183E+02 -0.24507130253E+01 -0.31941806209E+02  0.45045682583E+02  0.00000000000E+00 0.  1.
         11    1    4    4    0    0  0.19863843202E+02  0.63196919759E+01  0.20488632244E+02  0.29228322308E+02  0.51100000000E-03 0. -1.
        -11    1    4    4    0    0  0.24938456914E+01 -0.10843449988E+01  0.27825151171E+01  0.38906890196E+01  0.51100000000E-03 0.  1.
         12    1    4    4    0    0  0.93097792899E+01 -0.27846339518E+01  0.86706588470E+01  0.13023306090E+02  0.00000000000E+00 0. -1.
</event>
<event>
 8    1  0.2882335E-009  0.9118800E+02  0.7816164E-02  0.1184000E+00
        -11   -1    0    0    0    0  0.00000000000E+00  0.00000000000E+00  0.45593999997E+02  0.45594000000E+02  0.51100000000E-03 0. -1.
         11   -1    0    0    0    0 -0.00000000000E+00 -0.00000000000E+00 -0.45593999997E+02  0.45594000000E+02  0.51100000000E-03 0.  1.
         23    2    1    2    0    0  0.88817841970E-15  0.17763568394E-14  0.00000000000E+00  0.91188000000E+02  0.91188000000E+02 0.  0.
    9900012    2    3    3    0    0 -0.69993927631E+01 -0.10912862651E+02 -0.43139667325E+02  0.46142323546E+02  0.10000052752E+02 0.  0.
         12    1    3    3    0    0  0.69993927631E+01  0.10912862651E+02  0.43139667325E+02  0.45045676454E+02  0.00000000000E+00 0. -1.
         11    1    4    4    0    0 -0.74293553680E+01 -0.27890305340E+01 -0.25457654531E+02  0.26665824326E+02  0.51100000000E-03 0. -1.
        -11    1    4    4    0    0  0.41750876629E+00 -0.47241676342E+01 -0.95618852217E+01  0.10673411950E+02  0.51100000000E-03 0.  1.
         12    1    4    4    0    0  0.12453838606E-01 -0.33996644824E+01 -0.81201275719E+01  0.88030872695E+01  0.00000000000E+00 0. -1.
</event>
<event>
 8    1  0.2882335E-009  0.9118800E+02  0.7816164E-02  0.1184000E+00
        -11   -1    0    0    0    0  0.00000000000E+00  0.00000000000E+00  0.45593999997E+02  0.45594000000E+02  0.51100000000E-03 0. -1.
         11   -1    0    0    0    0 -0.00000000000E+00 -0.00000000000E+00 -0.45593999997E+02  0.45594000000E+02  0.51100000000E-03 0.  1.
         23    2    1    2    0    0  0.17763568394E-14  0.00000000000E+00  0.00000000000E+00  0.91188000000E+02  0.91188000000E+02 0.  0.
    9900012    2    3    3    0    0 -0.95945635273E+01 -0.28915085430E+02 -0.33180953395E+02  0.46142317822E+02  0.10000000555E+02 0.  0.
         12    1    3    3    0    0  0.95945635273E+01  0.28915085430E+02  0.33180953395E+02  0.45045682178E+02  0.00000000000E+00 0. -1.
         11    1    4    4    0    0 -0.26940392832E+01 -0.12201949555E+01 -0.32175113085E+01  0.43702520145E+01  0.51100000000E-03 0. -1.
        -11    1    4    4    0    0 -0.33478392084E+01 -0.67078983311E+01 -0.10693009204E+02  0.13059263896E+02  0.51100000000E-03 0.  1.
         12    1    4    4    0    0 -0.35526850357E+01 -0.20986992143E+02 -0.19270432882E+02  0.28712801912E+02  0.00000000000E+00 0. -1.
</event>
<event>
 8    1  0.2882335E-009  0.9118800E+02  0.7816164E-02  0.1184000E+00
        -11   -1    0    0    0    0  0.00000000000E+00  0.00000000000E+00  0.45593999997E+02  0.45594000000E+02  0.51100000000E-03 0. -1.
         11   -1    0    0    0    0 -0.00000000000E+00 -0.00000000000E+00 -0.45593999997E+02  0.45594000000E+02  0.51100000000E-03 0.  1.
         23    2    1    2    0    0  0.00000000000E+00  0.35527136788E-14  0.71054273576E-14  0.91188000000E+02  0.91188000000E+02 0.  0.
    9900012    2    3    3    0    0 -0.18711795140E+02 -0.16196501618E+02 -0.37638484308E+02  0.46142318264E+02  0.10000004589E+02 0.  0.
         12    1    3    3    0    0  0.18711795140E+02  0.16196501618E+02  0.37638484308E+02  0.45045681736E+02  0.00000000000E+00 0. -1.
         11    1    4    4    0    0 -0.29651665613E+01 -0.73466049388E-01 -0.13462183059E+01  0.32572862915E+01  0.51100000000E-03 0. -1.
        -11    1    4    4    0    0 -0.93043284159E+01 -0.77135549897E+01 -0.21911410762E+02  0.25023576477E+02  0.51100000000E-03 0.  1.
         12    1    4    4    0    0 -0.64423001623E+01 -0.84094805788E+01 -0.14380855240E+02  0.17861455496E+02  0.00000000000E+00 0. -1.
</event>
<event>
 8    1  0.2882335E-009  0.9118800E+02  0.7816164E-02  0.1184000E+00
        -11   -1    0    0    0    0  0.00000000000E+00  0.00000000000E+00  0.45593999997E+02  0.45594000000E+02  0.51100000000E-03 0. -1.
         11   -1    0    0    0    0 -0.00000000000E+00 -0.00000000000E+00 -0.45593999997E+02  0.45594000000E+02  0.51100000000E-03 0.  1.
         23    2    1    2    0    0  0.17763568394E-14  0.00000000000E+00  0.00000000000E+00  0.91188000000E+02  0.91188000000E+02 0.  0.
    9900012    2    3    3    0    0  0.13052732221E+02 -0.43544727994E+01  0.42892636071E+02  0.46142317844E+02  0.10000000756E+02 0.  0.
        -12    1    3    3    0    0 -0.13052732221E+02  0.43544727994E+01 -0.42892636071E+02  0.45045682156E+02  0.00000000000E+00 0.  1.
         11    1    4    4    0    0  0.98530073576E+01 -0.29928028271E+00  0.23440169388E+02  0.25428583600E+02  0.51100000000E-03 0. -1.
        -11    1    4    4    0    0  0.18922411941E+01 -0.47818313416E+01  0.17582267979E+02  0.18318914686E+02  0.51100000000E-03 0.  1.
        -12    1    4    4    0    0  0.13074836697E+01  0.72663882487E+00  0.18701987035E+01  0.23948195587E+01  0.00000000000E+00 0.  1.
</event>
<event>
 8    1  0.2882335E-009  0.9118800E+02  0.7816164E-02  0.1184000E+00
        -11   -1    0    0    0    0  0.00000000000E+00  0.00000000000E+00  0.45593999997E+02  0.45594000000E+02  0.51100000000E-03 0. -1.
         11   -1    0    0    0    0 -0.00000000000E+00 -0.00000000000E+00 -0.45593999997E+02  0.45594000000E+02  0.51100000000E-03 0.  1.
         23    2    1    2    0    0  0.00000000000E+00 -0.35527136788E-14  0.00000000000E+00  0.91188000000E+02  0.91188000000E+02 0.  0.
    9900012    2    3    3    0    0  0.30298483993E+02 -0.28143935688E+02 -0.17861544632E+02  0.46142311805E+02  0.99999456916E+01 0.  0.
         12    1    3    3    0    0 -0.30298483993E+02  0.28143935688E+02  0.17861544632E+02  0.45045688195E+02  0.00000000000E+00 0. -1.
         11    1    4    4    0    0  0.63458591420E+01 -0.94762084799E+01 -0.26860747850E+01  0.11716802184E+02  0.51100000000E-03 0. -1.
        -11    1    4    4    0    0  0.93931445777E+01 -0.10892666657E+02 -0.66014479412E+01  0.15825942851E+02  0.51100000000E-03 0.  1.
         12    1    4    4    0    0  0.14559480273E+02 -0.77750605516E+01 -0.85740219054E+01  0.18599566770E+02  0.00000000000E+00 0. -1.
</event>
<event>
 8    1  0.2882335E-009  0.9118800E+02  0.7816164E-02  0.1184000E+00
        -11   -1    0    0    0    0  0.00000000000E+00  0.00000000000E+00  0.45593999997E+02  0.45594000000E+02  0.51100000000E-03 0. -1.
         11   -1    0    0    0    0 -0.00000000000E+00 -0.00000000000E+00 -0.45593999997E+02  0.45594000000E+02  0.51100000000E-03 0.  1.
         23    2    1    2    0    0 -0.35527136788E-14  0.00000000000E+00 -0.71054273576E-14  0.91188000000E+02  0.91188000000E+02 0.  0.
    9900012    2    3    3    0    0  0.21014669175E+02  0.19561669796E+02  0.34710780285E+02  0.46142317479E+02  0.99999974304E+01 0.  0.
        -12    1    3    3    0    0 -0.21014669175E+02 -0.19561669796E+02 -0.34710780285E+02  0.45045682521E+02  0.00000000000E+00 0.  1.
         11    1    4    4    0    0  0.15098914462E+02  0.17217278485E+02  0.26133030025E+02  0.34746901371E+02  0.51100000000E-03 0. -1.
        -11    1    4    4    0    0  0.45117149681E+01  0.23914131658E+01  0.36641506117E+01  0.62849366623E+01  0.51100000000E-03 0.  1.
         12    1    4    4    0    0  0.14040397446E+01 -0.47021854265E-01  0.49135996486E+01  0.51104794458E+01  0.00000000000E+00 0. -1.
</event>
<event>
 8    1  0.2882335E-009  0.9118800E+02  0.7816164E-02  0.1184000E+00
        -11   -1    0    0    0    0  0.00000000000E+00  0.00000000000E+00  0.45593999997E+02  0.45594000000E+02  0.51100000000E-03 0. -1.
         11   -1    0    0    0    0 -0.00000000000E+00 -0.00000000000E+00 -0.45593999997E+02  0.45594000000E+02  0.51100000000E-03 0.  1.
         23    2    1    2    0    0 -0.88817841970E-15 -0.44408920985E-15 -0.71054273576E-14  0.91188000000E+02  0.91188000000E+02 0.  0.
    9900012    2    3    3    0    0 -0.35809969763E+01 -0.33747471089E+01  0.44776123217E+02  0.46142315770E+02  0.99999818435E+01 0.  0.
        -12    1    3    3    0    0  0.35809969763E+01  0.33747471089E+01 -0.44776123217E+02  0.45045684230E+02  0.00000000000E+00 0.  1.
         11    1    4    4    0    0 -0.56786619603E+01 -0.73367792353E-01  0.18235189488E+02  0.19099076428E+02  0.51100000000E-03 0. -1.
        -11    1    4    4    0    0  0.18744569639E+01 -0.33998314001E+01  0.26515215996E+02  0.26797931301E+02  0.51100000000E-03 0.  1.
        -12    1    4    4    0    0  0.22320802014E+00  0.98452083531E-01  0.25717733599E-01  0.24530804069E+00  0.00000000000E+00 0.  1.
</event>
<event>
 8    1  0.2882335E-009  0.9118800E+02  0.7816164E-02  0.1184000E+00
        -11   -1    0    0    0    0  0.00000000000E+00  0.00000000000E+00  0.45593999997E+02  0.45594000000E+02  0.51100000000E-03 0. -1.
         11   -1    0    0    0    0 -0.00000000000E+00 -0.00000000000E+00 -0.45593999997E+02  0.45594000000E+02  0.51100000000E-03 0.  1.
         23    2    1    2    0    0  0.00000000000E+00  0.35527136788E-14 -0.71054273576E-14  0.91188000000E+02  0.91188000000E+02 0.  0.
    9900012    2    3    3    0    0 -0.10801287054E+02 -0.23736898201E+02  0.36728808638E+02  0.46142317386E+02  0.99999965758E+01 0.  0.
        -12    1    3    3    0    0  0.10801287054E+02  0.23736898201E+02 -0.36728808638E+02  0.45045682614E+02  0.00000000000E+00 0.  1.
         11    1    4    4    0    0 -0.10117037448E+02 -0.19735619455E+02  0.30245586934E+02  0.37505261647E+02  0.51100000000E-03 0. -1.
        -11    1    4    4    0    0  0.15177299921E+01 -0.79598092665E+00  0.12694432798E+01  0.21327391932E+01  0.51100000000E-03 0.  1.
        -12    1    4    4    0    0 -0.22019795978E+01 -0.32052978201E+01  0.52137784244E+01  0.65043165454E+01  0.00000000000E+00 0.  1.
</event>
<event>
 8    1  0.3872811E-009  0.9118800E+02  0.7816164E-02  0.1184000E+00
        -11   -1    0    0    0    0  0.00000000000E+00  0.00000000000E+00  0.45593999997E+02  0.45594000000E+02  0.51100000000E-03 0. -1.
         11   -1    0    0    0    0 -0.00000000000E+00 -0.00000000000E+00 -0.45593999997E+02  0.45594000000E+02  0.51100000000E-03 0.  1.
         23    2    1    2    0    0 -0.88817841970E-15 -0.17763568394E-14  0.00000000000E+00  0.91188000000E+02  0.91188000000E+02 0.  0.
    9900012    2    3    3    0    0  0.47905351053E+01  0.11437494246E+02 -0.43305288278E+02  0.46142317698E+02  0.99999994200E+01 0.  0.
         12    1    3    3    0    0 -0.47905351053E+01 -0.11437494246E+02  0.43305288278E+02  0.45045682302E+02  0.00000000000E+00 0. -1.
         11    1    4    4    0    0 -0.21660691634E+01  0.33795897365E+01 -0.90092301843E+01  0.98630477634E+01  0.51100000000E-03 0. -1.
        -11    1    4    4    0    0  0.76998572655E+01  0.64226825017E+01 -0.28603118685E+02  0.30309685765E+02  0.51100000000E-03 0.  1.
        -12    1    4    4    0    0 -0.74325299678E+00  0.16352220080E+01 -0.56929394090E+01  0.59695841687E+01  0.00000000000E+00 0.  1.
</event>
<event>
 8    1  0.2882335E-009  0.9118800E+02  0.7816164E-02  0.1184000E+00
        -11   -1    0    0    0    0  0.00000000000E+00  0.00000000000E+00  0.45593999997E+02  0.45594000000E+02  0.51100000000E-03 0. -1.
         11   -1    0    0    0    0 -0.00000000000E+00 -0.00000000000E+00 -0.45593999997E+02  0.45594000000E+02  0.51100000000E-03 0.  1.
         23    2    1    2    0    0 -0.11102230246E-15  0.00000000000E+00  0.71054273576E-14  0.91188000000E+02  0.91188000000E+02 0.  0.
    9900012    2    3    3    0    0 -0.55130277867E+00  0.10648732799E+02  0.43765442976E+02  0.46142318255E+02  0.10000004500E+02 0.  0.
        -12    1    3    3    0    0  0.55130277867E+00 -0.10648732799E+02 -0.43765442976E+02  0.45045681745E+02  0.00000000000E+00 0.  1.
         11    1    4    4    0    0  0.21398592859E+00  0.78536227263E+01  0.28403821687E+02  0.29470362512E+02  0.51100000000E-03 0. -1.
        -11    1    4    4    0    0 -0.21928059204E+00  0.12289871520E+01  0.14897434623E+02  0.14949650565E+02  0.51100000000E-03 0.  1.
        -12    1    4    4    0    0 -0.54600811523E+00  0.15661229209E+01  0.46418666675E+00  0.17223051782E+01  0.00000000000E+00 0.  1.
</event>
<event>
 8    1  0.2882335E-009  0.9118800E+02  0.7816164E-02  0.1184000E+00
        -11   -1    0    0    0    0  0.00000000000E+00  0.00000000000E+00  0.45593999997E+02  0.45594000000E+02  0.51100000000E-03 0. -1.
         11   -1    0    0    0    0 -0.00000000000E+00 -0.00000000000E+00 -0.45593999997E+02  0.45594000000E+02  0.51100000000E-03 0.  1.
         23    2    1    2    0    0  0.88817841970E-15  0.88817841970E-15  0.71054273576E-14  0.91188000000E+02  0.91188000000E+02 0.  0.
    9900012    2    3    3    0    0  0.46259334600E+01 -0.44824810584E+01  0.44582750574E+02  0.46142317126E+02  0.99999942072E+01 0.  0.
        -12    1    3    3    0    0 -0.46259334600E+01  0.44824810584E+01 -0.44582750574E+02  0.45045682874E+02  0.00000000000E+00 0.  1.
         11    1    4    4    0    0  0.25541228766E+00 -0.54352442484E+01  0.15097302455E+02  0.16047917533E+02  0.51100000000E-03 0. -1.
        -11    1    4    4    0    0  0.25889710600E+01 -0.13594268577E+01  0.11101296225E+02  0.11479964751E+02  0.51100000000E-03 0.  1.
         12    1    4    4    0    0  0.17815501124E+01  0.23121900477E+01  0.18384151894E+02  0.18614434842E+02  0.00000000000E+00 0. -1.
</event>
<event>
 8    1  0.3059454E-009  0.9118800E+02  0.7816164E-02  0.1184000E+00
        -11   -1    0    0    0    0  0.00000000000E+00  0.00000000000E+00  0.45593999997E+02  0.45594000000E+02  0.51100000000E-03 0. -1.
         11   -1    0    0    0    0 -0.00000000000E+00 -0.00000000000E+00 -0.45593999997E+02  0.45594000000E+02  0.51100000000E-03 0.  1.
         23    2    1    2    0    0 -0.17763568394E-14 -0.35527136788E-14  0.71054273576E-14  0.91188000000E+02  0.91188000000E+02 0.  0.
    9900012    2    3    3    0    0  0.11909443631E+02  0.22372919737E+02 -0.37238838662E+02  0.46142317743E+02  0.99999998303E+01 0.  0.
         12    1    3    3    0    0 -0.11909443631E+02 -0.22372919737E+02  0.37238838662E+02  0.45045682257E+02  0.00000000000E+00 0. -1.
         11    1    4    4    0    0  0.22788571062E+01  0.14898014707E+01 -0.39335437130E+01  0.47838754724E+01  0.51100000000E-03 0. -1.
        -11    1    4    4    0    0  0.31558707368E+01  0.15767882149E+01 -0.21270098806E+01  0.41194602165E+01  0.51100000000E-03 0.  1.
        -12    1    4    4    0    0  0.64747157881E+01  0.19306330051E+02 -0.31178285068E+02  0.37238982054E+02  0.00000000000E+00 0.  1.
</event>
<event>
 8    1  0.2882335E-009  0.9118800E+02  0.7816164E-02  0.1184000E+00
        -11   -1    0    0    0    0  0.00000000000E+00  0.00000000000E+00  0.45593999997E+02  0.45594000000E+02  0.51100000000E-03 0. -1.
         11   -1    0    0    0    0 -0.00000000000E+00 -0.00000000000E+00 -0.45593999997E+02  0.45594000000E+02  0.51100000000E-03 0.  1.
         23    2    1    2    0    0  0.00000000000E+00  0.00000000000E+00  0.00000000000E+00  0.91188000000E+02  0.91188000000E+02 0.  0.
    9900012    2    3    3    0    0 -0.10946557288E+02 -0.18172550721E+02  0.39737191437E+02  0.46142322078E+02  0.10000039364E+02 0.  0.
        -12    1    3    3    0    0  0.10946557288E+02  0.18172550721E+02 -0.39737191437E+02  0.45045677922E+02  0.00000000000E+00 0.  1.
         11    1    4    4    0    0 -0.97428178879E+00  0.14502744112E+00  0.62205658776E+01  0.62980709794E+01  0.51100000000E-03 0. -1.
        -11    1    4    4    0    0  0.34461049907E+00 -0.26221490043E+01  0.56545894897E+01  0.62424998482E+01  0.51100000000E-03 0.  1.
         12    1    4    4    0    0 -0.10316885999E+02 -0.15695429158E+02  0.27862036070E+02  0.33601751250E+02  0.00000000000E+00 0. -1.
</event>
<event>
 8    1  0.2882335E-009  0.9118800E+02  0.7816164E-02  0.1184000E+00
        -11   -1    0    0    0    0  0.00000000000E+00  0.00000000000E+00  0.45593999997E+02  0.45594000000E+02  0.51100000000E-03 0. -1.
         11   -1    0    0    0    0 -0.00000000000E+00 -0.00000000000E+00 -0.45593999997E+02  0.45594000000E+02  0.51100000000E-03 0.  1.
         23    2    1    2    0    0  0.17763568394E-14  0.00000000000E+00  0.71054273576E-14  0.91188000000E+02  0.91188000000E+02 0.  0.
    9900012    2    3    3    0    0  0.10176350335E+02 -0.21802632808E+01  0.43826952823E+02  0.46142318210E+02  0.10000004096E+02 0.  0.
        -12    1    3    3    0    0 -0.10176350335E+02  0.21802632808E+01 -0.43826952823E+02  0.45045681790E+02  0.00000000000E+00 0.  1.
         11    1    4    4    0    0  0.53497544258E+01 -0.26051242665E+01  0.25310112417E+02  0.26000160301E+02  0.51100000000E-03 0. -1.
        -11    1    4    4    0    0  0.43255906936E+01  0.30042654501E+01  0.11467666367E+02  0.12619180556E+02  0.51100000000E-03 0.  1.
        -12    1    4    4    0    0  0.50100521600E+00 -0.25794044643E+01  0.70491740393E+01  0.75229773530E+01  0.00000000000E+00 0.  1.
</event>
<event>
 8    1  0.2882335E-009  0.9118800E+02  0.7816164E-02  0.1184000E+00
        -11   -1    0    0    0    0  0.00000000000E+00  0.00000000000E+00  0.45593999997E+02  0.45594000000E+02  0.51100000000E-03 0.  1.
         11   -1    0    0    0    0 -0.00000000000E+00 -0.00000000000E+00 -0.45593999997E+02  0.45594000000E+02  0.51100000000E-03 0. -1.
         23    2    1    2    0    0  0.00000000000E+00 -0.71054273576E-14 -0.71054273576E-14  0.91188000000E+02  0.91188000000E+02 0.  0.
    9900012    2    3    3    0    0 -0.44885281773E+01  0.39190641896E+02  0.21749946686E+02  0.46142317873E+02  0.10000001022E+02 0.  0.
        -12    1    3    3    0    0  0.44885281773E+01 -0.39190641896E+02 -0.21749946686E+02  0.45045682127E+02  0.00000000000E+00 0.  1.
         11    1    4    4    0    0  0.85546941968E+00  0.29484135079E+02  0.16593749416E+02  0.33843737518E+02  0.51100000000E-03 0. -1.
        -11    1    4    4    0    0 -0.28368958267E+00  0.14054769180E+01  0.49288105237E+00  0.15161718700E+01  0.51100000000E-03 0.  1.
        -12    1    4    4    0    0 -0.50603080143E+01  0.83010298998E+01  0.46633162167E+01  0.10782408485E+02  0.00000000000E+00 0.  1.
</event>
<event>
 8    1  0.2882335E-009  0.9118800E+02  0.7816164E-02  0.1184000E+00
        -11   -1    0    0    0    0  0.00000000000E+00  0.00000000000E+00  0.45593999997E+02  0.45594000000E+02  0.51100000000E-03 0. -1.
         11   -1    0    0    0    0 -0.00000000000E+00 -0.00000000000E+00 -0.45593999997E+02  0.45594000000E+02  0.51100000000E-03 0.  1.
         23    2    1    2    0    0 -0.35527136788E-14  0.88817841970E-15  0.00000000000E+00  0.91188000000E+02  0.91188000000E+02 0.  0.
    9900012    2    3    3    0    0 -0.22063984925E+02  0.39940622373E+01 -0.39068421654E+02  0.46142317250E+02  0.99999953392E+01 0.  0.
         12    1    3    3    0    0  0.22063984925E+02 -0.39940622373E+01  0.39068421654E+02  0.45045682750E+02  0.00000000000E+00 0. -1.
         11    1    4    4    0    0 -0.49997291640E+01  0.24111442312E+01 -0.44395425347E+01  0.71077736596E+01  0.51100000000E-03 0. -1.
        -11    1    4    4    0    0 -0.75244398727E+01  0.34740836005E+01 -0.15665350346E+02  0.17722574700E+02  0.51100000000E-03 0.  1.
         12    1    4    4    0    0 -0.95398158881E+01 -0.18911655943E+01 -0.18963528772E+02  0.21311968890E+02  0.00000000000E+00 0. -1.
</event>
<event>
 8    1  0.2882335E-009  0.9118800E+02  0.7816164E-02  0.1184000E+00
        -11   -1    0    0    0    0  0.00000000000E+00  0.00000000000E+00  0.45593999997E+02  0.45594000000E+02  0.51100000000E-03 0. -1.
         11   -1    0    0    0    0 -0.00000000000E+00 -0.00000000000E+00 -0.45593999997E+02  0.45594000000E+02  0.51100000000E-03 0.  1.
         23    2    1    2    0    0 -0.35527136788E-14 -0.88817841970E-15  0.00000000000E+00  0.91188000000E+02  0.91188000000E+02 0.  0.
    9900012    2    3    3    0    0  0.19581792298E+02  0.23870312855E+01 -0.40496530100E+02  0.46142318097E+02  0.10000003061E+02 0.  0.
         12    1    3    3    0    0 -0.19581792298E+02 -0.23870312855E+01  0.40496530100E+02  0.45045681903E+02  0.00000000000E+00 0. -1.
         11    1    4    4    0    0  0.12581955738E+02  0.40261852615E+01 -0.33557999496E+02  0.36064596329E+02  0.51100000000E-03 0. -1.
        -11    1    4    4    0    0  0.29150952404E+01 -0.13223560174E+01 -0.33151203517E+01  0.46083000016E+01  0.51100000000E-03 0.  1.
         12    1    4    4    0    0  0.40847413198E+01 -0.31679795857E+00 -0.36234102531E+01  0.54694217664E+01  0.00000000000E+00 0. -1.
</event>
<event>
 8    1  0.2882335E-009  0.9118800E+02  0.7816164E-02  0.1184000E+00
        -11   -1    0    0    0    0  0.00000000000E+00  0.00000000000E+00  0.45593999997E+02  0.45594000000E+02  0.51100000000E-03 0. -1.
         11   -1    0    0    0    0 -0.00000000000E+00 -0.00000000000E+00 -0.45593999997E+02  0.45594000000E+02  0.51100000000E-03 0.  1.
         23    2    1    2    0    0  0.35527136788E-14  0.17763568394E-14  0.71054273576E-14  0.91188000000E+02  0.91188000000E+02 0.  0.
    9900012    2    3    3    0    0 -0.24072424052E+02 -0.80153648452E+01  0.37220771516E+02  0.46142317570E+02  0.99999982571E+01 0.  0.
        -12    1    3    3    0    0  0.24072424052E+02  0.80153648452E+01 -0.37220771516E+02  0.45045682430E+02  0.00000000000E+00 0.  1.
         11    1    4    4    0    0 -0.65528056332E+01 -0.52861326608E+01  0.88908134195E+01  0.12244550776E+02  0.51100000000E-03 0. -1.
        -11    1    4    4    0    0 -0.17100491925E+02 -0.19100844625E+01  0.28099314961E+02  0.32949153984E+02  0.51100000000E-03 0.  1.
        -12    1    4    4    0    0 -0.41912649407E+00 -0.81914772199E+00  0.23064313575E+00  0.94861281066E+00  0.00000000000E+00 0.  1.
</event>
<event>
 8    1  0.2882335E-009  0.9118800E+02  0.7816164E-02  0.1184000E+00
        -11   -1    0    0    0    0  0.00000000000E+00  0.00000000000E+00  0.45593999997E+02  0.45594000000E+02  0.51100000000E-03 0.  1.
         11   -1    0    0    0    0 -0.00000000000E+00 -0.00000000000E+00 -0.45593999997E+02  0.45594000000E+02  0.51100000000E-03 0. -1.
         23    2    1    2    0    0  0.00000000000E+00  0.00000000000E+00  0.00000000000E+00  0.91188000000E+02  0.91188000000E+02 0.  0.
    9900012    2    3    3    0    0  0.20322186672E+02 -0.39366390032E+02 -0.81492055526E+01  0.46142317782E+02  0.10000000195E+02 0.  0.
        -12    1    3    3    0    0 -0.20322186672E+02  0.39366390032E+02  0.81492055526E+01  0.45045682218E+02  0.00000000000E+00 0.  1.
         11    1    4    4    0    0  0.12088288869E+02 -0.21874909766E+02 -0.24576622713E+01  0.25113313385E+02  0.51100000000E-03 0. -1.
        -11    1    4    4    0    0  0.13594705770E+01 -0.96581495192E+01 -0.18867614039E+01  0.99341774315E+01  0.51100000000E-03 0.  1.
         12    1    4    4    0    0  0.68744272260E+01 -0.78333307468E+01 -0.38047818774E+01  0.11094826966E+02  0.00000000000E+00 0. -1.
</event>
<event>
 8    1  0.2882335E-009  0.9118800E+02  0.7816164E-02  0.1184000E+00
        -11   -1    0    0    0    0  0.00000000000E+00  0.00000000000E+00  0.45593999997E+02  0.45594000000E+02  0.51100000000E-03 0. -1.
         11   -1    0    0    0    0 -0.00000000000E+00 -0.00000000000E+00 -0.45593999997E+02  0.45594000000E+02  0.51100000000E-03 0.  1.
         23    2    1    2    0    0  0.00000000000E+00  0.00000000000E+00  0.71054273576E-14  0.91188000000E+02  0.91188000000E+02 0.  0.
    9900012    2    3    3    0    0 -0.20293143230E+02  0.11370726212E+02 -0.38574717217E+02  0.46142313357E+02  0.99999598421E+01 0.  0.
         12    1    3    3    0    0  0.20293143230E+02 -0.11370726212E+02  0.38574717217E+02  0.45045686643E+02  0.00000000000E+00 0. -1.
         11    1    4    4    0    0 -0.38387075162E+00  0.26882328700E+01 -0.68455784013E+01  0.73645024697E+01  0.51100000000E-03 0. -1.
        -11    1    4    4    0    0 -0.18317966361E+02  0.68966177915E+01 -0.25800574028E+02  0.32384886120E+02  0.51100000000E-03 0.  1.
        -12    1    4    4    0    0 -0.15913061174E+01  0.17858755502E+01 -0.59285647883E+01  0.63929247680E+01  0.00000000000E+00 0.  1.
</event>
<event>
 8    1  0.2882335E-009  0.9118800E+02  0.7816164E-02  0.1184000E+00
        -11   -1    0    0    0    0  0.00000000000E+00  0.00000000000E+00  0.45593999997E+02  0.45594000000E+02  0.51100000000E-03 0. -1.
         11   -1    0    0    0    0 -0.00000000000E+00 -0.00000000000E+00 -0.45593999997E+02  0.45594000000E+02  0.51100000000E-03 0.  1.
         23    2    1    2    0    0  0.00000000000E+00  0.00000000000E+00  0.00000000000E+00  0.91188000000E+02  0.91188000000E+02 0.  0.
    9900012    2    3    3    0    0 -0.83079606413E+01  0.16418394551E+02  0.41116026337E+02  0.46142317506E+02  0.99999976722E+01 0.  0.
        -12    1    3    3    0    0  0.83079606413E+01 -0.16418394551E+02 -0.41116026337E+02  0.45045682494E+02  0.00000000000E+00 0.  1.
         11    1    4    4    0    0 -0.23447546064E+01  0.66775512338E+01  0.23295046550E+02  0.24346391081E+02  0.51100000000E-03 0. -1.
        -11    1    4    4    0    0 -0.22380131237E+01  0.50113785748E+00  0.54456530466E+01  0.59088898499E+01  0.51100000000E-03 0.  1.
         12    1    4    4    0    0 -0.37251929112E+01  0.92397054598E+01  0.12375326741E+02  0.15887036575E+02  0.00000000000E+00 0. -1.
</event>
<event>
 8    1  0.2882335E-009  0.9118800E+02  0.7816164E-02  0.1184000E+00
        -11   -1    0    0    0    0  0.00000000000E+00  0.00000000000E+00  0.45593999997E+02  0.45594000000E+02  0.51100000000E-03 0. -1.
         11   -1    0    0    0    0 -0.00000000000E+00 -0.00000000000E+00 -0.45593999997E+02  0.45594000000E+02  0.51100000000E-03 0.  1.
         23    2    1    2    0    0 -0.35527136788E-14  0.17763568394E-14 -0.71054273576E-14  0.91188000000E+02  0.91188000000E+02 0.  0.
    9900012    2    3    3    0    0 -0.20560755043E+02  0.90624269410E+01 -0.39041534266E+02  0.46142316213E+02  0.99999858812E+01 0.  0.
         12    1    3    3    0    0  0.20560755043E+02 -0.90624269410E+01  0.39041534266E+02  0.45045683787E+02  0.00000000000E+00 0. -1.
         11    1    4    4    0    0 -0.12855922423E+00 -0.49991806645E+00 -0.22863082989E+00  0.56455102940E+00  0.51100000000E-03 0. -1.
        -11    1    4    4    0    0 -0.76308369508E+01  0.71799214366E+01 -0.21475417935E+02  0.23895073136E+02  0.51100000000E-03 0.  1.
         12    1    4    4    0    0 -0.12801358868E+02  0.23824235709E+01 -0.17337485501E+02  0.21682692048E+02  0.00000000000E+00 0. -1.
</event>
<event>
 8    1  0.2882335E-009  0.9118800E+02  0.7816164E-02  0.1184000E+00
        -11   -1    0    0    0    0  0.00000000000E+00  0.00000000000E+00  0.45593999997E+02  0.45594000000E+02  0.51100000000E-03 0. -1.
         11   -1    0    0    0    0 -0.00000000000E+00 -0.00000000000E+00 -0.45593999997E+02  0.45594000000E+02  0.51100000000E-03 0.  1.
         23    2    1    2    0    0  0.17763568394E-14  0.71054273576E-14  0.00000000000E+00  0.91188000000E+02  0.91188000000E+02 0.  0.
    9900012    2    3    3    0    0  0.13945549053E+02  0.24799859381E+02 -0.34922803158E+02  0.46142317143E+02  0.99999943600E+01 0.  0.
         12    1    3    3    0    0 -0.13945549053E+02 -0.24799859381E+02  0.34922803158E+02  0.45045682857E+02  0.00000000000E+00 0. -1.
         11    1    4    4    0    0  0.36327700632E+01  0.30485374791E+01 -0.44374260973E+01  0.64947170626E+01  0.51100000000E-03 0. -1.
        -11    1    4    4    0    0  0.78366706222E+01  0.21462209025E+02 -0.27774085850E+02  0.35964422249E+02  0.51100000000E-03 0.  1.
        -12    1    4    4    0    0  0.24761083679E+01  0.28911287698E+00 -0.27112912103E+01  0.36831778307E+01  0.00000000000E+00 0.  1.
</event>
<event>
 8    1  0.3412479E-009  0.9118800E+02  0.7816164E-02  0.1184000E+00
        -11   -1    0    0    0    0  0.00000000000E+00  0.00000000000E+00  0.45593999997E+02  0.45594000000E+02  0.51100000000E-03 0. -1.
         11   -1    0    0    0    0 -0.00000000000E+00 -0.00000000000E+00 -0.45593999997E+02  0.45594000000E+02  0.51100000000E-03 0.  1.
         23    2    1    2    0    0 -0.35527136788E-14  0.35527136788E-14 -0.35527136788E-14  0.91188000000E+02  0.91188000000E+02 0.  0.
    9900012    2    3    3    0    0  0.28592266677E+02 -0.21788581053E+02  0.27145046268E+02  0.46142317466E+02  0.99999973083E+01 0.  0.
        -12    1    3    3    0    0 -0.28592266677E+02  0.21788581053E+02 -0.27145046268E+02  0.45045682534E+02  0.00000000000E+00 0.  1.
         11    1    4    4    0    0  0.26933176965E+02 -0.17430379143E+02  0.22993588730E+02  0.39470485954E+02  0.51100000000E-03 0. -1.
        -11    1    4    4    0    0 -0.52619594772E+00 -0.41582428652E+00  0.26838821338E+00  0.72237421525E+00  0.51100000000E-03 0.  1.
         12    1    4    4    0    0  0.21852856599E+01 -0.39423776238E+01  0.38830693247E+01  0.59494572966E+01  0.00000000000E+00 0. -1.
</event>
<event>
 8    1  0.2882335E-009  0.9118800E+02  0.7816164E-02  0.1184000E+00
        -11   -1    0    0    0    0  0.00000000000E+00  0.00000000000E+00  0.45593999997E+02  0.45594000000E+02  0.51100000000E-03 0.  1.
         11   -1    0    0    0    0 -0.00000000000E+00 -0.00000000000E+00 -0.45593999997E+02  0.45594000000E+02  0.51100000000E-03 0. -1.
         23    2    1    2    0    0  0.00000000000E+00  0.00000000000E+00 -0.17763568394E-14  0.91188000000E+02  0.91188000000E+02 0.  0.
    9900012    2    3    3    0    0  0.40003571083E+02  0.14210562670E+02  0.15062790310E+02  0.46142318268E+02  0.10000004623E+02 0.  0.
         12    1    3    3    0    0 -0.40003571083E+02 -0.14210562670E+02 -0.15062790310E+02  0.45045681732E+02  0.00000000000E+00 0. -1.
         11    1    4    4    0    0  0.18793513604E+02  0.86756408272E+01  0.71349004485E+01  0.21894513058E+02  0.51100000000E-03 0.  1.
        -11    1    4    4    0    0  0.20312219582E+02  0.35875812853E+01  0.79437411005E+01  0.22103394010E+02  0.51100000000E-03 0. -1.
         12    1    4    4    0    0  0.89783789641E+00  0.19473405574E+01 -0.15851238977E-01  0.21444112004E+01  0.00000000000E+00 0. -1.
</event>
<event>
 8    1  0.3165808E-009  0.9118800E+02  0.7816164E-02  0.1184000E+00
        -11   -1    0    0    0    0  0.00000000000E+00  0.00000000000E+00  0.45593999997E+02  0.45594000000E+02  0.51100000000E-03 0. -1.
         11   -1    0    0    0    0 -0.00000000000E+00 -0.00000000000E+00 -0.45593999997E+02  0.45594000000E+02  0.51100000000E-03 0.  1.
         23    2    1    2    0    0  0.00000000000E+00  0.35527136788E-14  0.00000000000E+00  0.91188000000E+02  0.91188000000E+02 0.  0.
    9900012    2    3    3    0    0 -0.52636733250E+01  0.27305296023E+02 -0.35437667055E+02  0.46142315478E+02  0.99999791785E+01 0.  0.
         12    1    3    3    0    0  0.52636733250E+01 -0.27305296023E+02  0.35437667055E+02  0.45045684522E+02  0.00000000000E+00 0. -1.
         11    1    4    4    0    0  0.83174063875E+00  0.83735086311E+01 -0.15313530341E+02  0.17473169462E+02  0.51100000000E-03 0. -1.
        -11    1    4    4    0    0 -0.63441417168E+01  0.13335895651E+02 -0.13675437308E+02  0.20127390113E+02  0.51100000000E-03 0.  1.
        -12    1    4    4    0    0  0.24872775302E+00  0.55958917403E+01 -0.64486994066E+01  0.85417559026E+01  0.00000000000E+00 0.  1.
</event>
<event>
 8    1  0.2882335E-009  0.9118800E+02  0.7816164E-02  0.1184000E+00
        -11   -1    0    0    0    0  0.00000000000E+00  0.00000000000E+00  0.45593999997E+02  0.45594000000E+02  0.51100000000E-03 0. -1.
         11   -1    0    0    0    0 -0.00000000000E+00 -0.00000000000E+00 -0.45593999997E+02  0.45594000000E+02  0.51100000000E-03 0.  1.
         23    2    1    2    0    0 -0.35527136788E-14  0.35527136788E-14  0.00000000000E+00  0.91188000000E+02  0.91188000000E+02 0.  0.
    9900012    2    3    3    0    0  0.28059394469E+02 -0.26617869877E+02  0.23092703774E+02  0.46142316718E+02  0.99999904878E+01 0.  0.
        -12    1    3    3    0    0 -0.28059394469E+02  0.26617869877E+02 -0.23092703774E+02  0.45045683282E+02  0.00000000000E+00 0.  1.
         11    1    4    4    0    0  0.20051597012E+02 -0.14445417004E+02  0.11194982384E+02  0.27130503977E+02  0.51100000000E-03 0. -1.
        -11    1    4    4    0    0  0.14641059119E+01 -0.35561430206E+01  0.19394021932E+01  0.43070918765E+01  0.51100000000E-03 0.  1.
         12    1    4    4    0    0  0.65436915445E+01 -0.86163098524E+01  0.99583191961E+01  0.14704720865E+02  0.00000000000E+00 0. -1.
</event>
<event>
 8    1  0.2882335E-009  0.9118800E+02  0.7816164E-02  0.1184000E+00
        -11   -1    0    0    0    0  0.00000000000E+00  0.00000000000E+00  0.45593999997E+02  0.45594000000E+02  0.51100000000E-03 0. -1.
         11   -1    0    0    0    0 -0.00000000000E+00 -0.00000000000E+00 -0.45593999997E+02  0.45594000000E+02  0.51100000000E-03 0.  1.
         23    2    1    2    0    0  0.00000000000E+00  0.00000000000E+00  0.00000000000E+00  0.91188000000E+02  0.91188000000E+02 0.  0.
    9900012    2    3    3    0    0  0.34745695919E+02  0.12922464349E+02 -0.25590232150E+02  0.46142318173E+02  0.10000003759E+02 0.  0.
         12    1    3    3    0    0 -0.34745695919E+02 -0.12922464349E+02  0.25590232150E+02  0.45045681827E+02  0.00000000000E+00 0. -1.
         11    1    4    4    0    0  0.18436437462E+01  0.23597827198E+01  0.12729074324E-01  0.29946216853E+01  0.51100000000E-03 0. -1.
        -11    1    4    4    0    0  0.30911888257E+02  0.10425169703E+02 -0.24874239174E+02  0.41023856153E+02  0.51100000000E-03 0.  1.
        -12    1    4    4    0    0  0.19901639154E+01  0.13751192619E+00 -0.72872205092E+00  0.21238403347E+01  0.00000000000E+00 0.  1.
</event>
<event>
 8    1  0.2882335E-009  0.9118800E+02  0.7816164E-02  0.1184000E+00
        -11   -1    0    0    0    0  0.00000000000E+00  0.00000000000E+00  0.45593999997E+02  0.45594000000E+02  0.51100000000E-03 0. -1.
         11   -1    0    0    0    0 -0.00000000000E+00 -0.00000000000E+00 -0.45593999997E+02  0.45594000000E+02  0.51100000000E-03 0.  1.
         23    2    1    2    0    0  0.00000000000E+00  0.00000000000E+00  0.00000000000E+00  0.91188000000E+02  0.91188000000E+02 0.  0.
    9900012    2    3    3    0    0 -0.35214376209E+02  0.86788469717E+01 -0.26715890289E+02  0.46142317960E+02  0.10000001814E+02 0.  0.
         12    1    3    3    0    0  0.35214376209E+02 -0.86788469717E+01  0.26715890289E+02  0.45045682040E+02  0.00000000000E+00 0. -1.
         11    1    4    4    0    0 -0.29408083895E+01  0.10019105081E+01  0.40201222568E-01  0.31070556881E+01  0.51100000000E-03 0. -1.
        -11    1    4    4    0    0 -0.64888998824E+01  0.20813363983E+01 -0.26992749357E+01  0.73296567673E+01  0.51100000000E-03 0.  1.
        -12    1    4    4    0    0 -0.25784667937E+02  0.55956000653E+01 -0.24056816576E+02  0.35705605505E+02  0.00000000000E+00 0.  1.
</event>
<event>
 8    1  0.2882335E-009  0.9118800E+02  0.7816164E-02  0.1184000E+00
        -11   -1    0    0    0    0  0.00000000000E+00  0.00000000000E+00  0.45593999997E+02  0.45594000000E+02  0.51100000000E-03 0. -1.
         11   -1    0    0    0    0 -0.00000000000E+00 -0.00000000000E+00 -0.45593999997E+02  0.45594000000E+02  0.51100000000E-03 0.  1.
         23    2    1    2    0    0  0.00000000000E+00  0.00000000000E+00  0.00000000000E+00  0.91188000000E+02  0.91188000000E+02 0.  0.
    9900012    2    3    3    0    0 -0.17837999215E+02 -0.35362133608E+02 -0.21457837318E+02  0.46142317724E+02  0.99999996646E+01 0.  0.
         12    1    3    3    0    0  0.17837999215E+02  0.35362133608E+02  0.21457837318E+02  0.45045682276E+02  0.00000000000E+00 0. -1.
         11    1    4    4    0    0 -0.11064242908E+02 -0.18374934035E+02 -0.79628714548E+01  0.22879313669E+02  0.51100000000E-03 0. -1.
        -11    1    4    4    0    0 -0.70940714012E+01 -0.12986715903E+02 -0.94102660002E+01  0.17536640084E+02  0.51100000000E-03 0.  1.
         12    1    4    4    0    0  0.32031509384E+00 -0.40004836701E+01 -0.40846998632E+01  0.57263639708E+01  0.00000000000E+00 0. -1.
</event>
<event>
 8    1  0.2882335E-009  0.9118800E+02  0.7816164E-02  0.1184000E+00
        -11   -1    0    0    0    0  0.00000000000E+00  0.00000000000E+00  0.45593999997E+02  0.45594000000E+02  0.51100000000E-03 0.  1.
         11   -1    0    0    0    0 -0.00000000000E+00 -0.00000000000E+00 -0.45593999997E+02  0.45594000000E+02  0.51100000000E-03 0. -1.
         23    2    1    2    0    0  0.00000000000E+00  0.00000000000E+00  0.00000000000E+00  0.91188000000E+02  0.91188000000E+02 0.  0.
    9900012    2    3    3    0    0  0.12768084052E+02 -0.39256471989E+02  0.18028281137E+02  0.46142317808E+02  0.10000000427E+02 0.  0.
        -12    1    3    3    0    0 -0.12768084052E+02  0.39256471989E+02 -0.18028281137E+02  0.45045682192E+02  0.00000000000E+00 0.  1.
         11    1    4    4    0    0  0.10760487041E+02 -0.29080407096E+02  0.15395567573E+02  0.34619093855E+02  0.51100000000E-03 0. -1.
        -11    1    4    4    0    0  0.16554670182E+01 -0.29702306978E+01  0.26462669874E+01  0.43087783276E+01  0.51100000000E-03 0.  1.
         12    1    4    4    0    0  0.35212999311E+00 -0.72058341951E+01 -0.13553422623E-01  0.72144456249E+01  0.00000000000E+00 0. -1.
</event>
<event>
 8    1  0.2882335E-009  0.9118800E+02  0.7816164E-02  0.1184000E+00
        -11   -1    0    0    0    0  0.00000000000E+00  0.00000000000E+00  0.45593999997E+02  0.45594000000E+02  0.51100000000E-03 0. -1.
         11   -1    0    0    0    0 -0.00000000000E+00 -0.00000000000E+00 -0.45593999997E+02  0.45594000000E+02  0.51100000000E-03 0.  1.
         23    2    1    2    0    0  0.00000000000E+00  0.71054273576E-14  0.17763568394E-14  0.91188000000E+02  0.91188000000E+02 0.  0.
    9900012    2    3    3    0    0  0.27474253731E+02  0.34488719982E+02 -0.92090749354E+01  0.46142317796E+02  0.10000000317E+02 0.  0.
         12    1    3    3    0    0 -0.27474253731E+02 -0.34488719982E+02  0.92090749354E+01  0.45045682204E+02  0.00000000000E+00 0. -1.
         11    1    4    4    0    0  0.12998582041E+02  0.14977454625E+02  0.43235267510E+00  0.19836184391E+02  0.51100000000E-03 0. -1.
        -11    1    4    4    0    0  0.11805527834E+02  0.17596532597E+02 -0.83706703026E+01  0.22783251929E+02  0.51100000000E-03 0.  1.
         12    1    4    4    0    0  0.26701438563E+01  0.19147327595E+01 -0.12707573080E+01  0.35228814753E+01  0.00000000000E+00 0. -1.
</event>
<event>
 8    1  0.2882335E-009  0.9118800E+02  0.7816164E-02  0.1184000E+00
        -11   -1    0    0    0    0  0.00000000000E+00  0.00000000000E+00  0.45593999997E+02  0.45594000000E+02  0.51100000000E-03 0.  1.
         11   -1    0    0    0    0 -0.00000000000E+00 -0.00000000000E+00 -0.45593999997E+02  0.45594000000E+02  0.51100000000E-03 0. -1.
         23    2    1    2    0    0 -0.17763568394E-14  0.00000000000E+00  0.00000000000E+00  0.91188000000E+02  0.91188000000E+02 0.  0.
    9900012    2    3    3    0    0  0.12255508459E+02  0.42920771677E+02 -0.60599868273E+01  0.46142316863E+02  0.99999918105E+01 0.  0.
         12    1    3    3    0    0 -0.12255508459E+02 -0.42920771677E+02  0.60599868273E+01  0.45045683137E+02  0.00000000000E+00 0. -1.
         11    1    4    4    0    0  0.25181266630E+01  0.43755064994E+01  0.21894776606E+01  0.55027113049E+01  0.51100000000E-03 0. -1.
        -11    1    4    4    0    0  0.71118769586E+01  0.29913123298E+02 -0.57840625220E+01  0.31286244882E+02  0.51100000000E-03 0.  1.
        -12    1    4    4    0    0  0.26255048378E+01  0.86321418793E+01 -0.24654019659E+01  0.93533606758E+01  0.00000000000E+00 0.  1.
</event>
<event>
 8    1  0.4509973E-009  0.9118800E+02  0.7816164E-02  0.1184000E+00
        -11   -1    0    0    0    0  0.00000000000E+00  0.00000000000E+00  0.45593999997E+02  0.45594000000E+02  0.51100000000E-03 0. -1.
         11   -1    0    0    0    0 -0.00000000000E+00 -0.00000000000E+00 -0.45593999997E+02  0.45594000000E+02  0.51100000000E-03 0.  1.
         23    2    1    2    0    0  0.35527136788E-14  0.00000000000E+00 -0.35527136788E-14  0.91188000000E+02  0.91188000000E+02 0.  0.
    9900012    2    3    3    0    0  0.24135763429E+02 -0.28775447541E+02 -0.24870706403E+02  0.46142317694E+02  0.99999993890E+01 0.  0.
         12    1    3    3    0    0 -0.24135763429E+02  0.28775447541E+02  0.24870706403E+02  0.45045682306E+02  0.00000000000E+00 0. -1.
         11    1    4    4    0    0 -0.52059187602E-01 -0.30359217226E+00 -0.13456548754E+01  0.13804585002E+01  0.51100000000E-03 0. -1.
        -11    1    4    4    0    0  0.16834857839E+02 -0.14553532831E+02 -0.15256907708E+02  0.26981308148E+02  0.51100000000E-03 0.  1.
        -12    1    4    4    0    0  0.73529647769E+01 -0.13918322538E+02 -0.82681438194E+01  0.17780551046E+02  0.00000000000E+00 0.  1.
</event>
<event>
 8    1  0.2882335E-009  0.9118800E+02  0.7816164E-02  0.1184000E+00
        -11   -1    0    0    0    0  0.00000000000E+00  0.00000000000E+00  0.45593999997E+02  0.45594000000E+02  0.51100000000E-03 0. -1.
         11   -1    0    0    0    0 -0.00000000000E+00 -0.00000000000E+00 -0.45593999997E+02  0.45594000000E+02  0.51100000000E-03 0.  1.
         23    2    1    2    0    0  0.00000000000E+00  0.17763568394E-14  0.11102230246E-15  0.91188000000E+02  0.91188000000E+02 0.  0.
    9900012    2    3    3    0    0  0.43271061643E+02  0.12499224807E+02  0.70574693714E+00  0.46142317907E+02  0.10000001329E+02 0.  0.
         12    1    3    3    0    0 -0.43271061643E+02 -0.12499224807E+02 -0.70574693714E+00  0.45045682093E+02  0.00000000000E+00 0. -1.
         11    1    4    4    0    0  0.28722654908E+02  0.11352004190E+02 -0.11500583381E+01  0.30906011366E+02  0.51100000000E-03 0. -1.
        -11    1    4    4    0    0  0.46812427337E+01  0.96559549492E+00  0.24078894925E+01  0.53520407567E+01  0.51100000000E-03 0.  1.
        -12    1    4    4    0    0  0.98671640015E+01  0.18162512213E+00 -0.55208421727E+00  0.98842657846E+01  0.00000000000E+00 0.  1.
</event>
<event>
 8    1  0.2882335E-009  0.9118800E+02  0.7816164E-02  0.1184000E+00
        -11   -1    0    0    0    0  0.00000000000E+00  0.00000000000E+00  0.45593999997E+02  0.45594000000E+02  0.51100000000E-03 0. -1.
         11   -1    0    0    0    0 -0.00000000000E+00 -0.00000000000E+00 -0.45593999997E+02  0.45594000000E+02  0.51100000000E-03 0.  1.
         23    2    1    2    0    0  0.00000000000E+00  0.00000000000E+00  0.00000000000E+00  0.91188000000E+02  0.91188000000E+02 0.  0.
    9900012    2    3    3    0    0  0.25633763796E+02  0.23671514064E+01  0.36965122481E+02  0.46142317275E+02  0.99999955708E+01 0.  0.
        -12    1    3    3    0    0 -0.25633763796E+02 -0.23671514064E+01 -0.36965122481E+02  0.45045682725E+02  0.00000000000E+00 0.  1.
         11    1    4    4    0    0  0.14776047501E+02  0.37004376328E+01  0.27405105147E+02  0.31353861115E+02  0.51100000000E-03 0. -1.
        -11    1    4    4    0    0  0.45119738084E+01  0.39059278751E+00  0.26387616417E+01  0.52415201646E+01  0.51100000000E-03 0.  1.
        -12    1    4    4    0    0  0.63457424867E+01 -0.17238790139E+01  0.69212556919E+01  0.95469359961E+01  0.00000000000E+00 0.  1.
</event>
<event>
 8    1  0.2882335E-009  0.9118800E+02  0.7816164E-02  0.1184000E+00
        -11   -1    0    0    0    0  0.00000000000E+00  0.00000000000E+00  0.45593999997E+02  0.45594000000E+02  0.51100000000E-03 0. -1.
         11   -1    0    0    0    0 -0.00000000000E+00 -0.00000000000E+00 -0.45593999997E+02  0.45594000000E+02  0.51100000000E-03 0.  1.
         23    2    1    2    0    0  0.00000000000E+00  0.00000000000E+00  0.71054273576E-14  0.91188000000E+02  0.91188000000E+02 0.  0.
    9900012    2    3    3    0    0  0.57812133085E+01 -0.19220153578E+02 -0.40327123340E+02  0.46142316436E+02  0.99999879155E+01 0.  0.
         12    1    3    3    0    0 -0.57812133085E+01  0.19220153578E+02  0.40327123340E+02  0.45045683564E+02  0.00000000000E+00 0. -1.
         11    1    4    4    0    0  0.34927295520E+01 -0.13898479751E+02 -0.23449415990E+02  0.27481666791E+02  0.51100000000E-03 0. -1.
        -11    1    4    4    0    0 -0.10187441082E+01 -0.19276771808E+01 -0.10449179495E+02  0.10674227431E+02  0.51100000000E-03 0.  1.
         12    1    4    4    0    0  0.33072278648E+01 -0.33939966467E+01 -0.64285278550E+01  0.79864222133E+01  0.00000000000E+00 0. -1.
</event>
<event>
 8    1  0.2882335E-009  0.9118800E+02  0.7816164E-02  0.1184000E+00
        -11   -1    0    0    0    0  0.00000000000E+00  0.00000000000E+00  0.45593999997E+02  0.45594000000E+02  0.51100000000E-03 0. -1.
         11   -1    0    0    0    0 -0.00000000000E+00 -0.00000000000E+00 -0.45593999997E+02  0.45594000000E+02  0.51100000000E-03 0.  1.
         23    2    1    2    0    0  0.00000000000E+00  0.00000000000E+00 -0.35527136788E-14  0.91188000000E+02  0.91188000000E+02 0.  0.
    9900012    2    3    3    0    0 -0.93365691882E+01 -0.33852564405E+02 -0.28212512435E+02  0.46142317644E+02  0.99999989349E+01 0.  0.
         12    1    3    3    0    0  0.93365691882E+01  0.33852564405E+02  0.28212512435E+02  0.45045682356E+02  0.00000000000E+00 0. -1.
         11    1    4    4    0    0 -0.17793480845E+01 -0.18558768956E+02 -0.17873660155E+02  0.25827537869E+02  0.51100000000E-03 0. -1.
        -11    1    4    4    0    0 -0.36961123001E+01 -0.61337096361E+01 -0.64592814016E+01  0.96439595873E+01  0.51100000000E-03 0.  1.
         12    1    4    4    0    0 -0.38611088037E+01 -0.91600858124E+01 -0.38795708787E+01  0.10670820188E+02  0.00000000000E+00 0. -1.
</event>
<event>
 8    1  0.2882335E-009  0.9118800E+02  0.7816164E-02  0.1184000E+00
        -11   -1    0    0    0    0  0.00000000000E+00  0.00000000000E+00  0.45593999997E+02  0.45594000000E+02  0.51100000000E-03 0. -1.
         11   -1    0    0    0    0 -0.00000000000E+00 -0.00000000000E+00 -0.45593999997E+02  0.45594000000E+02  0.51100000000E-03 0.  1.
         23    2    1    2    0    0  0.11102230246E-15  0.17763568394E-14  0.71054273576E-14  0.91188000000E+02  0.91188000000E+02 0.  0.
    9900012    2    3    3    0    0 -0.83860338032E+00 -0.15721625216E+02 -0.42204757600E+02  0.46142308540E+02  0.99999159115E+01 0.  0.
         12    1    3    3    0    0  0.83860338032E+00  0.15721625216E+02  0.42204757600E+02  0.45045691460E+02  0.00000000000E+00 0. -1.
         11    1    4    4    0    0 -0.95133851732E+00 -0.56563287035E+00 -0.38534349659E+00  0.11719536638E+01  0.51100000000E-03 0. -1.
        -11    1    4    4    0    0  0.14824161979E+01 -0.10943684949E+01 -0.20027955137E+01  0.27214684119E+01  0.51100000000E-03 0.  1.
         12    1    4    4    0    0 -0.13696810609E+01 -0.14061623851E+02 -0.39816618590E+02  0.42248886464E+02  0.00000000000E+00 0. -1.
</event>
<event>
 8    1  0.2882335E-009  0.9118800E+02  0.7816164E-02  0.1184000E+00
        -11   -1    0    0    0    0  0.00000000000E+00  0.00000000000E+00  0.45593999997E+02  0.45594000000E+02  0.51100000000E-03 0. -1.
         11   -1    0    0    0    0 -0.00000000000E+00 -0.00000000000E+00 -0.45593999997E+02  0.45594000000E+02  0.51100000000E-03 0.  1.
         23    2    1    2    0    0  0.35527136788E-14  0.88817841970E-15  0.00000000000E+00  0.91188000000E+02  0.91188000000E+02 0.  0.
    9900012    2    3    3    0    0  0.27106663099E+02 -0.50727207297E+01 -0.35617548992E+02  0.46142317896E+02  0.10000001234E+02 0.  0.
         12    1    3    3    0    0 -0.27106663099E+02  0.50727207297E+01  0.35617548992E+02  0.45045682104E+02  0.00000000000E+00 0. -1.
         11    1    4    4    0    0  0.15989874265E+01 -0.10610282744E+01 -0.57868558285E+01  0.60967403119E+01  0.51100000000E-03 0. -1.
        -11    1    4    4    0    0  0.21635627442E+02 -0.12094425340E+01 -0.26440153235E+02  0.34185447627E+02  0.51100000000E-03 0.  1.
        -12    1    4    4    0    0  0.38720482299E+01 -0.28022499213E+01 -0.33905399285E+01  0.58601299578E+01  0.00000000000E+00 0.  1.
</event>
<event>
 8    1  0.2882335E-009  0.9118800E+02  0.7816164E-02  0.1184000E+00
        -11   -1    0    0    0    0  0.00000000000E+00  0.00000000000E+00  0.45593999997E+02  0.45594000000E+02  0.51100000000E-03 0.  1.
         11   -1    0    0    0    0 -0.00000000000E+00 -0.00000000000E+00 -0.45593999997E+02  0.45594000000E+02  0.51100000000E-03 0. -1.
         23    2    1    2    0    0  0.17763568394E-14  0.00000000000E+00 -0.88817841970E-15  0.91188000000E+02  0.91188000000E+02 0.  0.
    9900012    2    3    3    0    0  0.12948398838E+02 -0.42967077019E+02 -0.39092999267E+01  0.46142319120E+02  0.10000012391E+02 0.  0.
        -12    1    3    3    0    0 -0.12948398838E+02  0.42967077019E+02  0.39092999267E+01  0.45045680880E+02  0.00000000000E+00 0.  1.
         11    1    4    4    0    0  0.84773057265E+01 -0.26873891743E+02  0.23652101109E+01  0.28278348413E+02  0.51100000000E-03 0. -1.
        -11    1    4    4    0    0  0.61324622559E+00 -0.28282205871E+01 -0.13984176199E+01  0.32141055869E+01  0.51100000000E-03 0.  1.
         12    1    4    4    0    0  0.38578468856E+01 -0.13264964689E+02 -0.48760924177E+01  0.14649865121E+02  0.00000000000E+00 0. -1.
</event>
<event>
 8    1  0.2882335E-009  0.9118800E+02  0.7816164E-02  0.1184000E+00
        -11   -1    0    0    0    0  0.00000000000E+00  0.00000000000E+00  0.45593999997E+02  0.45594000000E+02  0.51100000000E-03 0. -1.
         11   -1    0    0    0    0 -0.00000000000E+00 -0.00000000000E+00 -0.45593999997E+02  0.45594000000E+02  0.51100000000E-03 0.  1.
         23    2    1    2    0    0  0.00000000000E+00  0.35527136788E-14  0.00000000000E+00  0.91188000000E+02  0.91188000000E+02 0.  0.
    9900012    2    3    3    0    0 -0.29644089149E+02  0.28644988575E+02  0.18160567533E+02  0.46142316466E+02  0.99999881903E+01 0.  0.
        -12    1    3    3    0    0  0.29644089149E+02 -0.28644988575E+02 -0.18160567533E+02  0.45045683534E+02  0.00000000000E+00 0.  1.
         11    1    4    4    0    0 -0.12841942232E+02  0.95474638235E+01  0.81963129198E+01  0.17979129330E+02  0.51100000000E-03 0. -1.
        -11    1    4    4    0    0 -0.86511167693E+01  0.13023560748E+02  0.87734543319E+01  0.17928425951E+02  0.51100000000E-03 0.  1.
         12    1    4    4    0    0 -0.81510301484E+01  0.60739640036E+01  0.11908002809E+01  0.10234761185E+02  0.00000000000E+00 0. -1.
</event>
<event>
 8    1  0.2882335E-009  0.9118800E+02  0.7816164E-02  0.1184000E+00
        -11   -1    0    0    0    0  0.00000000000E+00  0.00000000000E+00  0.45593999997E+02  0.45594000000E+02  0.51100000000E-03 0. -1.
         11   -1    0    0    0    0 -0.00000000000E+00 -0.00000000000E+00 -0.45593999997E+02  0.45594000000E+02  0.51100000000E-03 0.  1.
         23    2    1    2    0    0 -0.35527136788E-14  0.17763568394E-14  0.00000000000E+00  0.91188000000E+02  0.91188000000E+02 0.  0.
    9900012    2    3    3    0    0  0.25213504335E+02 -0.57719854174E+01 -0.36879232007E+02  0.46142307976E+02  0.99999107675E+01 0.  0.
         12    1    3    3    0    0 -0.25213504335E+02  0.57719854174E+01  0.36879232007E+02  0.45045692024E+02  0.00000000000E+00 0. -1.
         11    1    4    4    0    0  0.10278545834E+01 -0.17095204174E+00 -0.62486846159E+00  0.12149775720E+01  0.51100000000E-03 0. -1.
        -11    1    4    4    0    0  0.59821479381E+01  0.26233459086E+01 -0.80736565053E+01  0.10385180178E+02  0.51100000000E-03 0.  1.
        -12    1    4    4    0    0  0.18203501813E+02 -0.82243792842E+01 -0.28180707040E+02  0.34542150225E+02  0.00000000000E+00 0.  1.
</event>
<event>
 8    1  0.2882335E-009  0.9118800E+02  0.7816164E-02  0.1184000E+00
        -11   -1    0    0    0    0  0.00000000000E+00  0.00000000000E+00  0.45593999997E+02  0.45594000000E+02  0.51100000000E-03 0. -1.
         11   -1    0    0    0    0 -0.00000000000E+00 -0.00000000000E+00 -0.45593999997E+02  0.45594000000E+02  0.51100000000E-03 0.  1.
         23    2    1    2    0    0  0.44408920985E-15 -0.17763568394E-14 -0.71054273576E-14  0.91188000000E+02  0.91188000000E+02 0.  0.
    9900012    2    3    3    0    0  0.22770749335E+01 -0.97969895441E+01 -0.43908398102E+02  0.46142317652E+02  0.99999990014E+01 0.  0.
         12    1    3    3    0    0 -0.22770749335E+01  0.97969895441E+01  0.43908398102E+02  0.45045682348E+02  0.00000000000E+00 0. -1.
         11    1    4    4    0    0 -0.15322309232E+01 -0.21665664674E+01 -0.87733263202E+01  0.91658603983E+01  0.51100000000E-03 0. -1.
        -11    1    4    4    0    0  0.18050892077E+01  0.61095240826E+00 -0.15103831969E+02  0.15223578762E+02  0.51100000000E-03 0.  1.
        -12    1    4    4    0    0  0.20042166491E+01 -0.82413754850E+01 -0.20031239812E+02  0.21752878492E+02  0.00000000000E+00 0.  1.
</event>
<event>
 8    1  0.2882335E-009  0.9118800E+02  0.7816164E-02  0.1184000E+00
        -11   -1    0    0    0    0  0.00000000000E+00  0.00000000000E+00  0.45593999997E+02  0.45594000000E+02  0.51100000000E-03 0. -1.
         11   -1    0    0    0    0 -0.00000000000E+00 -0.00000000000E+00 -0.45593999997E+02  0.45594000000E+02  0.51100000000E-03 0.  1.
         23    2    1    2    0    0  0.35527136788E-14  0.71054273576E-14  0.00000000000E+00  0.91188000000E+02  0.91188000000E+02 0.  0.
    9900012    2    3    3    0    0 -0.14197654590E+02 -0.19387874807E+02  0.38100532517E+02  0.46142315818E+02  0.99999822777E+01 0.  0.
        -12    1    3    3    0    0  0.14197654590E+02  0.19387874807E+02 -0.38100532517E+02  0.45045684182E+02  0.00000000000E+00 0.  1.
         11    1    4    4    0    0 -0.19933800245E+01 -0.17309243304E+01  0.37775078315E+01  0.46086037624E+01  0.51100000000E-03 0. -1.
        -11    1    4    4    0    0 -0.10680426383E+02 -0.15496504745E+02  0.34011639741E+02  0.38871645260E+02  0.51100000000E-03 0.  1.
        -12    1    4    4    0    0 -0.15238481821E+01 -0.21604457314E+01  0.31138494406E+00  0.26620667955E+01  0.00000000000E+00 0.  1.
</event>
<event>
 8    1  0.2882335E-009  0.9118800E+02  0.7816164E-02  0.1184000E+00
        -11   -1    0    0    0    0  0.00000000000E+00  0.00000000000E+00  0.45593999997E+02  0.45594000000E+02  0.51100000000E-03 0. -1.
         11   -1    0    0    0    0 -0.00000000000E+00 -0.00000000000E+00 -0.45593999997E+02  0.45594000000E+02  0.51100000000E-03 0.  1.
         23    2    1    2    0    0  0.00000000000E+00  0.00000000000E+00  0.00000000000E+00  0.91188000000E+02  0.91188000000E+02 0.  0.
    9900012    2    3    3    0    0 -0.14041760370E+02  0.13406806697E+02 -0.40647269012E+02  0.46142312324E+02  0.99999504168E+01 0.  0.
         12    1    3    3    0    0  0.14041760370E+02 -0.13406806697E+02  0.40647269012E+02  0.45045687676E+02  0.00000000000E+00 0. -1.
         11    1    4    4    0    0 -0.21596005370E+01  0.31675431160E+00 -0.31765662156E+01  0.38541900519E+01  0.51100000000E-03 0. -1.
        -11    1    4    4    0    0 -0.97931769630E+01  0.47748627127E+01 -0.18497321852E+02  0.21467569609E+02  0.51100000000E-03 0.  1.
        -12    1    4    4    0    0 -0.20889828701E+01  0.83151896729E+01 -0.18973380944E+02  0.20820552663E+02  0.00000000000E+00 0.  1.
</event>
<event>
 8    1  0.2882335E-009  0.9118800E+02  0.7816164E-02  0.1184000E+00
        -11   -1    0    0    0    0  0.00000000000E+00  0.00000000000E+00  0.45593999997E+02  0.45594000000E+02  0.51100000000E-03 0. -1.
         11   -1    0    0    0    0 -0.00000000000E+00 -0.00000000000E+00 -0.45593999997E+02  0.45594000000E+02  0.51100000000E-03 0.  1.
         23    2    1    2    0    0  0.00000000000E+00  0.35527136788E-14  0.00000000000E+00  0.91188000000E+02  0.91188000000E+02 0.  0.
    9900012    2    3    3    0    0  0.21749133159E+02  0.29426718760E+02  0.26270836151E+02  0.46142318717E+02  0.10000008717E+02 0.  0.
        -12    1    3    3    0    0 -0.21749133159E+02 -0.29426718760E+02 -0.26270836151E+02  0.45045681283E+02  0.00000000000E+00 0.  1.
         11    1    4    4    0    0  0.77984335185E+01  0.55904368940E+01  0.76752481913E+01  0.12287309920E+02  0.51100000000E-03 0. -1.
        -11    1    4    4    0    0  0.23252505952E+01  0.78702874641E+01  0.31807559774E+01  0.88014444239E+01  0.51100000000E-03 0.  1.
         12    1    4    4    0    0  0.11625449045E+02  0.15965994402E+02  0.15414831982E+02  0.25053564373E+02  0.00000000000E+00 0. -1.
</event>
<event>
 8    1  0.2882335E-009  0.9118800E+02  0.7816164E-02  0.1184000E+00
        -11   -1    0    0    0    0  0.00000000000E+00  0.00000000000E+00  0.45593999997E+02  0.45594000000E+02  0.51100000000E-03 0. -1.
         11   -1    0    0    0    0 -0.00000000000E+00 -0.00000000000E+00 -0.45593999997E+02  0.45594000000E+02  0.51100000000E-03 0.  1.
         23    2    1    2    0    0  0.00000000000E+00  0.00000000000E+00  0.00000000000E+00  0.91188000000E+02  0.91188000000E+02 0.  0.
    9900012    2    3    3    0    0  0.38034352692E+01 -0.33310833901E+02  0.30083811221E+02  0.46142317936E+02  0.10000001596E+02 0.  0.
        -12    1    3    3    0    0 -0.38034352692E+01  0.33310833901E+02 -0.30083811221E+02  0.45045682064E+02  0.00000000000E+00 0.  1.
         11    1    4    4    0    0  0.23169810963E+01 -0.20033331619E+02  0.12264624538E+02  0.23603469924E+02  0.51100000000E-03 0. -1.
        -11    1    4    4    0    0  0.21591062626E+00 -0.11004074024E+02  0.15739824978E+02  0.19206206109E+02  0.51100000000E-03 0.  1.
        -12    1    4    4    0    0  0.12705435466E+01 -0.22734282585E+01  0.20793617049E+01  0.33326419025E+01  0.00000000000E+00 0.  1.
</event>
<event>
 8    1  0.2882335E-009  0.9118800E+02  0.7816164E-02  0.1184000E+00
        -11   -1    0    0    0    0  0.00000000000E+00  0.00000000000E+00  0.45593999997E+02  0.45594000000E+02  0.51100000000E-03 0. -1.
         11   -1    0    0    0    0 -0.00000000000E+00 -0.00000000000E+00 -0.45593999997E+02  0.45594000000E+02  0.51100000000E-03 0.  1.
         23    2    1    2    0    0  0.00000000000E+00 -0.11102230246E-15  0.00000000000E+00  0.91188000000E+02  0.91188000000E+02 0.  0.
    9900012    2    3    3    0    0  0.24331224544E+02 -0.56217574191E+00 -0.37904998773E+02  0.46142318061E+02  0.10000002737E+02 0.  0.
         12    1    3    3    0    0 -0.24331224544E+02  0.56217574191E+00  0.37904998773E+02  0.45045681939E+02  0.00000000000E+00 0. -1.
         11    1    4    4    0    0 -0.54639867712E+00  0.83478635476E+00 -0.63830488201E+00  0.11844210214E+01  0.51100000000E-03 0. -1.
        -11    1    4    4    0    0  0.17747915477E+02 -0.23132694655E+01 -0.27968640197E+02  0.33205188663E+02  0.51100000000E-03 0.  1.
         12    1    4    4    0    0  0.71297077435E+01  0.91630736881E+00 -0.92980536941E+01  0.11752708377E+02  0.00000000000E+00 0. -1.
</event>
<event>
 8    1  0.2882335E-009  0.9118800E+02  0.7816164E-02  0.1184000E+00
        -11   -1    0    0    0    0  0.00000000000E+00  0.00000000000E+00  0.45593999997E+02  0.45594000000E+02  0.51100000000E-03 0.  1.
         11   -1    0    0    0    0 -0.00000000000E+00 -0.00000000000E+00 -0.45593999997E+02  0.45594000000E+02  0.51100000000E-03 0. -1.
         23    2    1    2    0    0  0.35527136788E-14  0.00000000000E+00  0.00000000000E+00  0.91188000000E+02  0.91188000000E+02 0.  0.
    9900012    2    3    3    0    0  0.23534904867E+02  0.38178534763E+02  0.41977510609E+01  0.46142318989E+02  0.10000011198E+02 0.  0.
         12    1    3    3    0    0 -0.23534904867E+02 -0.38178534763E+02 -0.41977510609E+01  0.45045681011E+02  0.00000000000E+00 0. -1.
         11    1    4    4    0    0  0.11241946228E+01  0.44395022251E+01 -0.11608552974E+01  0.47244659846E+01  0.51100000000E-03 0. -1.
        -11    1    4    4    0    0  0.17061339343E+02  0.21627215375E+02  0.13336312480E+01  0.27579055778E+02  0.51100000000E-03 0.  1.
        -12    1    4    4    0    0  0.53493709013E+01  0.12111817163E+02  0.40249751102E+01  0.13838797226E+02  0.00000000000E+00 0.  1.
</event>
<event>
 8    1  0.2882335E-009  0.9118800E+02  0.7816164E-02  0.1184000E+00
        -11   -1    0    0    0    0  0.00000000000E+00  0.00000000000E+00  0.45593999997E+02  0.45594000000E+02  0.51100000000E-03 0. -1.
         11   -1    0    0    0    0 -0.00000000000E+00 -0.00000000000E+00 -0.45593999997E+02  0.45594000000E+02  0.51100000000E-03 0.  1.
         23    2    1    2    0    0  0.00000000000E+00  0.00000000000E+00  0.00000000000E+00  0.91188000000E+02  0.91188000000E+02 0.  0.
    9900012    2    3    3    0    0 -0.42793227067E+01 -0.42597802592E+02  0.14008147334E+02  0.46142316741E+02  0.99999906993E+01 0.  0.
        -12    1    3    3    0    0  0.42793227067E+01  0.42597802592E+02 -0.14008147334E+02  0.45045683259E+02  0.00000000000E+00 0.  1.
         11    1    4    4    0    0  0.29461339363E+00 -0.11755718825E+02  0.79154648554E+01  0.14175270942E+02  0.51100000000E-03 0. -1.
        -11    1    4    4    0    0 -0.38832305838E+01 -0.26812056370E+02  0.40381654280E+01  0.27391104886E+02  0.51100000000E-03 0.  1.
        -12    1    4    4    0    0 -0.69070551651E+00 -0.40300273965E+01  0.20545170508E+01  0.45759409129E+01  0.00000000000E+00 0.  1.
</event>
<event>
 8    1  0.2882335E-009  0.9118800E+02  0.7816164E-02  0.1184000E+00
        -11   -1    0    0    0    0  0.00000000000E+00  0.00000000000E+00  0.45593999997E+02  0.45594000000E+02  0.51100000000E-03 0.  1.
         11   -1    0    0    0    0 -0.00000000000E+00 -0.00000000000E+00 -0.45593999997E+02  0.45594000000E+02  0.51100000000E-03 0. -1.
         23    2    1    2    0    0  0.00000000000E+00  0.71054273576E-14  0.00000000000E+00  0.91188000000E+02  0.91188000000E+02 0.  0.
    9900012    2    3    3    0    0 -0.22943857947E+02 -0.34705209186E+02  0.17269665771E+02  0.46142317433E+02  0.99999970053E+01 0.  0.
        -12    1    3    3    0    0  0.22943857947E+02  0.34705209186E+02 -0.17269665771E+02  0.45045682567E+02  0.00000000000E+00 0.  1.
         11    1    4    4    0    0 -0.97712187538E+01 -0.10194876751E+02  0.72651733631E+01  0.15880647725E+02  0.51100000000E-03 0. -1.
        -11    1    4    4    0    0  0.73911696783E+00 -0.10713555326E+01  0.52958167697E+00  0.14051880952E+01  0.51100000000E-03 0.  1.
        -12    1    4    4    0    0 -0.13911756161E+02 -0.23438976902E+02  0.94749107312E+01  0.28856481613E+02  0.00000000000E+00 0.  1.
</event>
<event>
 8    1  0.2882335E-009  0.9118800E+02  0.7816164E-02  0.1184000E+00
        -11   -1    0    0    0    0  0.00000000000E+00  0.00000000000E+00  0.45593999997E+02  0.45594000000E+02  0.51100000000E-03 0. -1.
         11   -1    0    0    0    0 -0.00000000000E+00 -0.00000000000E+00 -0.45593999997E+02  0.45594000000E+02  0.51100000000E-03 0.  1.
         23    2    1    2    0    0  0.00000000000E+00  0.00000000000E+00 -0.35527136788E-14  0.91188000000E+02  0.91188000000E+02 0.  0.
    9900012    2    3    3    0    0 -0.10133058909E+02 -0.38744384594E+02  0.20622978640E+02  0.46142317983E+02  0.10000002023E+02 0.  0.
        -12    1    3    3    0    0  0.10133058909E+02  0.38744384594E+02 -0.20622978640E+02  0.45045682017E+02  0.00000000000E+00 0.  1.
         11    1    4    4    0    0 -0.11788418683E+01 -0.98209138423E+01  0.49287979313E+01  0.11051382997E+02  0.51100000000E-03 0. -1.
        -11    1    4    4    0    0 -0.15019745988E+01 -0.15750846364E+02  0.10906841501E+02  0.19217291190E+02  0.51100000000E-03 0.  1.
        -12    1    4    4    0    0 -0.74522424420E+01 -0.13172624387E+02  0.47873392076E+01  0.15873643795E+02  0.00000000000E+00 0.  1.
</event>
<event>
 8    1  0.2882335E-009  0.9118800E+02  0.7816164E-02  0.1184000E+00
        -11   -1    0    0    0    0  0.00000000000E+00  0.00000000000E+00  0.45593999997E+02  0.45594000000E+02  0.51100000000E-03 0. -1.
         11   -1    0    0    0    0 -0.00000000000E+00 -0.00000000000E+00 -0.45593999997E+02  0.45594000000E+02  0.51100000000E-03 0.  1.
         23    2    1    2    0    0 -0.35527136788E-14  0.00000000000E+00  0.00000000000E+00  0.91188000000E+02  0.91188000000E+02 0.  0.
    9900012    2    3    3    0    0 -0.19008075966E+02  0.98565095283E+00  0.40826891053E+02  0.46142317712E+02  0.99999995501E+01 0.  0.
        -12    1    3    3    0    0  0.19008075966E+02 -0.98565095283E+00 -0.40826891053E+02  0.45045682288E+02  0.00000000000E+00 0.  1.
         11    1    4    4    0    0 -0.62530502106E+01  0.92877375633E+00  0.22855995947E+02  0.23714126773E+02  0.51100000000E-03 0. -1.
        -11    1    4    4    0    0 -0.80629596039E+01  0.10752069672E+01  0.14026217434E+02  0.16214258027E+02  0.51100000000E-03 0.  1.
         12    1    4    4    0    0 -0.46920661517E+01 -0.10183297707E+01  0.39446776728E+01  0.62139329121E+01  0.00000000000E+00 0. -1.
</event>
<event>
 8    1  0.2882335E-009  0.9118800E+02  0.7816164E-02  0.1184000E+00
        -11   -1    0    0    0    0  0.00000000000E+00  0.00000000000E+00  0.45593999997E+02  0.45594000000E+02  0.51100000000E-03 0. -1.
         11   -1    0    0    0    0 -0.00000000000E+00 -0.00000000000E+00 -0.45593999997E+02  0.45594000000E+02  0.51100000000E-03 0.  1.
         23    2    1    2    0    0  0.00000000000E+00  0.00000000000E+00  0.35527136788E-14  0.91188000000E+02  0.91188000000E+02 0.  0.
    9900012    2    3    3    0    0 -0.27939596950E+02  0.24951285508E+02  0.25018508689E+02  0.46142317596E+02  0.99999984938E+01 0.  0.
        -12    1    3    3    0    0  0.27939596950E+02 -0.24951285508E+02 -0.25018508689E+02  0.45045682404E+02  0.00000000000E+00 0.  1.
         11    1    4    4    0    0 -0.22849493724E+02  0.20480964519E+02  0.18468626177E+02  0.35814234938E+02  0.51100000000E-03 0. -1.
        -11    1    4    4    0    0  0.15006679699E+00 -0.43036687373E+00  0.14648674625E+01  0.15341357937E+01  0.51100000000E-03 0.  1.
        -12    1    4    4    0    0 -0.52401700235E+01  0.49006878624E+01  0.50850150495E+01  0.87939468644E+01  0.00000000000E+00 0.  1.
</event>
<event>
 8    1  0.2882335E-009  0.9118800E+02  0.7816164E-02  0.1184000E+00
        -11   -1    0    0    0    0  0.00000000000E+00  0.00000000000E+00  0.45593999997E+02  0.45594000000E+02  0.51100000000E-03 0. -1.
         11   -1    0    0    0    0 -0.00000000000E+00 -0.00000000000E+00 -0.45593999997E+02  0.45594000000E+02  0.51100000000E-03 0.  1.
         23    2    1    2    0    0 -0.17763568394E-14  0.00000000000E+00 -0.71054273576E-14  0.91188000000E+02  0.91188000000E+02 0.  0.
    9900012    2    3    3    0    0  0.11817477677E+02  0.74559569405E+01  0.42823702508E+02  0.46142316866E+02  0.99999918339E+01 0.  0.
        -12    1    3    3    0    0 -0.11817477677E+02 -0.74559569405E+01 -0.42823702508E+02  0.45045683134E+02  0.00000000000E+00 0.  1.
         11    1    4    4    0    0  0.13866299757E+01  0.10755351840E+01  0.18748841577E+02  0.18830788071E+02  0.51100000000E-03 0. -1.
        -11    1    4    4    0    0  0.78153930278E+01  0.29030257149E+01  0.18022001462E+02  0.19857000364E+02  0.51100000000E-03 0.  1.
        -12    1    4    4    0    0  0.26154546737E+01  0.34773960417E+01  0.60528594682E+01  0.74545284306E+01  0.00000000000E+00 0.  1.
</event>
<event>
 8    1  0.2882335E-009  0.9118800E+02  0.7816164E-02  0.1184000E+00
        -11   -1    0    0    0    0  0.00000000000E+00  0.00000000000E+00  0.45593999997E+02  0.45594000000E+02  0.51100000000E-03 0. -1.
         11   -1    0    0    0    0 -0.00000000000E+00 -0.00000000000E+00 -0.45593999997E+02  0.45594000000E+02  0.51100000000E-03 0.  1.
         23    2    1    2    0    0 -0.35527136788E-14  0.00000000000E+00  0.00000000000E+00  0.91188000000E+02  0.91188000000E+02 0.  0.
    9900012    2    3    3    0    0  0.17786602192E+02 -0.28355576402E+02 -0.30144842508E+02  0.46142318071E+02  0.10000002826E+02 0.  0.
         12    1    3    3    0    0 -0.17786602192E+02  0.28355576402E+02  0.30144842508E+02  0.45045681929E+02  0.00000000000E+00 0. -1.
         11    1    4    4    0    0  0.10304403675E+02 -0.11385701651E+02 -0.17957298299E+02  0.23627938963E+02  0.51100000000E-03 0. -1.
        -11    1    4    4    0    0  0.37401709861E+01 -0.12764703071E+02 -0.85634637224E+01  0.15819590218E+02  0.51100000000E-03 0.  1.
         12    1    4    4    0    0  0.37420275308E+01 -0.42051716808E+01 -0.36240804860E+01  0.66947888895E+01  0.00000000000E+00 0. -1.
</event>
<event>
 8    1  0.2882335E-009  0.9118800E+02  0.7816164E-02  0.1184000E+00
        -11   -1    0    0    0    0  0.00000000000E+00  0.00000000000E+00  0.45593999997E+02  0.45594000000E+02  0.51100000000E-03 0. -1.
         11   -1    0    0    0    0 -0.00000000000E+00 -0.00000000000E+00 -0.45593999997E+02  0.45594000000E+02  0.51100000000E-03 0.  1.
         23    2    1    2    0    0 -0.71054273576E-14  0.88817841970E-15 -0.88817841970E-15  0.91188000000E+02  0.91188000000E+02 0.  0.
    9900012    2    3    3    0    0 -0.43792674181E+02  0.77994495133E+01 -0.71051895787E+01  0.46142318259E+02  0.10000004536E+02 0.  0.
         12    1    3    3    0    0  0.43792674181E+02 -0.77994495133E+01  0.71051895787E+01  0.45045681741E+02  0.00000000000E+00 0. -1.
         11    1    4    4    0    0 -0.11056572155E+02  0.49285720508E+01 -0.29899212114E+01  0.12469091362E+02  0.51100000000E-03 0. -1.
        -11    1    4    4    0    0 -0.24516066491E+02  0.13350597320E+01 -0.48561904891E+00  0.24557192974E+02  0.51100000000E-03 0.  1.
        -12    1    4    4    0    0 -0.82200355349E+01  0.15358177306E+01 -0.36296493184E+01  0.91160339222E+01  0.00000000000E+00 0.  1.
</event>
<event>
 8    1  0.2882335E-009  0.9118800E+02  0.7816164E-02  0.1184000E+00
        -11   -1    0    0    0    0  0.00000000000E+00  0.00000000000E+00  0.45593999997E+02  0.45594000000E+02  0.51100000000E-03 0.  1.
         11   -1    0    0    0    0 -0.00000000000E+00 -0.00000000000E+00 -0.45593999997E+02  0.45594000000E+02  0.51100000000E-03 0. -1.
         23    2    1    2    0    0  0.00000000000E+00  0.00000000000E+00  0.35527136788E-14  0.91188000000E+02  0.91188000000E+02 0.  0.
    9900012    2    3    3    0    0 -0.18008145143E+02 -0.36486249036E+02  0.19328060709E+02  0.46142316622E+02  0.99999896135E+01 0.  0.
         12    1    3    3    0    0  0.18008145143E+02  0.36486249036E+02 -0.19328060709E+02  0.45045683378E+02  0.00000000000E+00 0. -1.
         11    1    4    4    0    0 -0.15420683062E+01 -0.49335037894E+01  0.43767198048E+01  0.67729691282E+01  0.51100000000E-03 0. -1.
        -11    1    4    4    0    0 -0.85809339349E+01 -0.88645488064E+01  0.61781577321E+01  0.13797908753E+02  0.51100000000E-03 0.  1.
        -12    1    4    4    0    0 -0.78851429015E+01 -0.22688196441E+02  0.87731831718E+01  0.25571438741E+02  0.00000000000E+00 0.  1.
</event>
<event>
 8    1  0.2882335E-009  0.9118800E+02  0.7816164E-02  0.1184000E+00
        -11   -1    0    0    0    0  0.00000000000E+00  0.00000000000E+00  0.45593999997E+02  0.45594000000E+02  0.51100000000E-03 0. -1.
         11   -1    0    0    0    0 -0.00000000000E+00 -0.00000000000E+00 -0.45593999997E+02  0.45594000000E+02  0.51100000000E-03 0.  1.
         23    2    1    2    0    0  0.35527136788E-14  0.00000000000E+00  0.00000000000E+00  0.91188000000E+02  0.91188000000E+02 0.  0.
    9900012    2    3    3    0    0 -0.27516884809E+02 -0.17144211688E+02 -0.31273160851E+02  0.46142317259E+02  0.99999954178E+01 0.  0.
         12    1    3    3    0    0  0.27516884809E+02  0.17144211688E+02  0.31273160851E+02  0.45045682741E+02  0.00000000000E+00 0. -1.
         11    1    4    4    0    0 -0.26967741807E+01 -0.22134209248E+01 -0.53194171789E+01  0.63614481493E+01  0.51100000000E-03 0. -1.
        -11    1    4    4    0    0 -0.72867351131E+01 -0.65673314054E+01 -0.43591017247E+01  0.10734436106E+02  0.51100000000E-03 0.  1.
        -12    1    4    4    0    0 -0.17533375515E+02 -0.83634593582E+01 -0.21594641948E+02  0.29046433004E+02  0.00000000000E+00 0.  1.
</event>
<event>
 8    1  0.2882335E-009  0.9118800E+02  0.7816164E-02  0.1184000E+00
        -11   -1    0    0    0    0  0.00000000000E+00  0.00000000000E+00  0.45593999997E+02  0.45594000000E+02  0.51100000000E-03 0. -1.
         11   -1    0    0    0    0 -0.00000000000E+00 -0.00000000000E+00 -0.45593999997E+02  0.45594000000E+02  0.51100000000E-03 0.  1.
         23    2    1    2    0    0  0.00000000000E+00 -0.17763568394E-14  0.71054273576E-14  0.91188000000E+02  0.91188000000E+02 0.  0.
    9900012    2    3    3    0    0  0.21991435865E+02  0.10887835880E+02 -0.37774928591E+02  0.46142318169E+02  0.10000003718E+02 0.  0.
         12    1    3    3    0    0 -0.21991435865E+02 -0.10887835880E+02  0.37774928591E+02  0.45045681831E+02  0.00000000000E+00 0. -1.
         11    1    4    4    0    0  0.40336426202E+00  0.50462314365E+00 -0.18045450749E+01  0.19166977940E+01  0.51100000000E-03 0. -1.
        -11    1    4    4    0    0  0.18725860410E+02  0.99545683322E+01 -0.35414206792E+02  0.41278533425E+02  0.51100000000E-03 0.  1.
        -12    1    4    4    0    0  0.28622111933E+01  0.42864440381E+00 -0.55617672436E+00  0.29470869496E+01  0.00000000000E+00 0.  1.
</event>
<event>
 8    1  0.2882335E-009  0.9118800E+02  0.7816164E-02  0.1184000E+00
        -11   -1    0    0    0    0  0.00000000000E+00  0.00000000000E+00  0.45593999997E+02  0.45594000000E+02  0.51100000000E-03 0. -1.
         11   -1    0    0    0    0 -0.00000000000E+00 -0.00000000000E+00 -0.45593999997E+02  0.45594000000E+02  0.51100000000E-03 0.  1.
         23    2    1    2    0    0  0.00000000000E+00  0.00000000000E+00  0.00000000000E+00  0.91188000000E+02  0.91188000000E+02 0.  0.
    9900012    2    3    3    0    0  0.36541604521E+02 -0.24225746001E+02  0.10341073050E+02  0.46142318497E+02  0.10000006708E+02 0.  0.
        -12    1    3    3    0    0 -0.36541604521E+02  0.24225746001E+02 -0.10341073050E+02  0.45045681503E+02  0.00000000000E+00 0.  1.
         11    1    4    4    0    0  0.12469988680E+02 -0.10196885005E+02  0.76856823837E+01  0.17847879299E+02  0.51100000000E-03 0. -1.
        -11    1    4    4    0    0  0.23784990971E+01 -0.19877095294E+01 -0.90560278710E+00  0.32292977251E+01  0.51100000000E-03 0.  1.
        -12    1    4    4    0    0  0.21693116744E+02 -0.12041151466E+02  0.35609934531E+01  0.25065141473E+02  0.00000000000E+00 0.  1.
</event>
<event>
 8    1  0.2882335E-009  0.9118800E+02  0.7816164E-02  0.1184000E+00
        -11   -1    0    0    0    0  0.00000000000E+00  0.00000000000E+00  0.45593999997E+02  0.45594000000E+02  0.51100000000E-03 0. -1.
         11   -1    0    0    0    0 -0.00000000000E+00 -0.00000000000E+00 -0.45593999997E+02  0.45594000000E+02  0.51100000000E-03 0.  1.
         23    2    1    2    0    0 -0.35527136788E-14  0.00000000000E+00  0.00000000000E+00  0.91188000000E+02  0.91188000000E+02 0.  0.
    9900012    2    3    3    0    0 -0.12929008511E+02  0.20543203647E+02  0.37946422859E+02  0.46142317799E+02  0.10000000343E+02 0.  0.
        -12    1    3    3    0    0  0.12929008511E+02 -0.20543203647E+02 -0.37946422859E+02  0.45045682201E+02  0.00000000000E+00 0.  1.
         11    1    4    4    0    0 -0.28369868390E+01  0.70328792560E+01  0.19600362924E+02  0.21016282068E+02  0.51100000000E-03 0. -1.
        -11    1    4    4    0    0 -0.58901878033E+01  0.91981562542E+01  0.98161508478E+01  0.14685271825E+02  0.51100000000E-03 0.  1.
        -12    1    4    4    0    0 -0.42018338687E+01  0.43121681369E+01  0.85299090870E+01  0.10440763906E+02  0.00000000000E+00 0.  1.
</event>
<event>
 8    1  0.3278970E-009  0.9118800E+02  0.7816164E-02  0.1184000E+00
        -11   -1    0    0    0    0  0.00000000000E+00  0.00000000000E+00  0.45593999997E+02  0.45594000000E+02  0.51100000000E-03 0. -1.
         11   -1    0    0    0    0 -0.00000000000E+00 -0.00000000000E+00 -0.45593999997E+02  0.45594000000E+02  0.51100000000E-03 0.  1.
         23    2    1    2    0    0  0.00000000000E+00  0.00000000000E+00 -0.71054273576E-14  0.91188000000E+02  0.91188000000E+02 0.  0.
    9900012    2    3    3    0    0 -0.24668038850E+02 -0.11592911191E+02 -0.35863710671E+02  0.46142317924E+02  0.10000001481E+02 0.  0.
         12    1    3    3    0    0  0.24668038850E+02  0.11592911191E+02  0.35863710671E+02  0.45045682076E+02  0.00000000000E+00 0. -1.
         11    1    4    4    0    0 -0.34071649532E+01  0.45847741090E+00 -0.28538399577E+01  0.44680395388E+01  0.51100000000E-03 0. -1.
        -11    1    4    4    0    0 -0.44884705554E+01 -0.62011317387E+01 -0.92022100695E+01  0.11970007234E+02  0.51100000000E-03 0.  1.
        -12    1    4    4    0    0 -0.16772403342E+02 -0.58502568630E+01 -0.23807660644E+02  0.29704271150E+02  0.00000000000E+00 0.  1.
</event>
<event>
 8    1  0.2882335E-009  0.9118800E+02  0.7816164E-02  0.1184000E+00
        -11   -1    0    0    0    0  0.00000000000E+00  0.00000000000E+00  0.45593999997E+02  0.45594000000E+02  0.51100000000E-03 0.  1.
         11   -1    0    0    0    0 -0.00000000000E+00 -0.00000000000E+00 -0.45593999997E+02  0.45594000000E+02  0.51100000000E-03 0. -1.
         23    2    1    2    0    0  0.00000000000E+00  0.00000000000E+00  0.00000000000E+00  0.91188000000E+02  0.91188000000E+02 0.  0.
    9900012    2    3    3    0    0  0.22226922396E+02  0.30872223559E+02  0.24124326541E+02  0.46142318767E+02  0.10000009173E+02 0.  0.
        -12    1    3    3    0    0 -0.22226922396E+02 -0.30872223559E+02 -0.24124326541E+02  0.45045681233E+02  0.00000000000E+00 0.  1.
         11    1    4    4    0    0  0.10002028147E+02  0.18533716571E+02  0.11405376264E+02  0.23950403440E+02  0.51100000000E-03 0. -1.
        -11    1    4    4    0    0  0.12597462835E+01  0.38416280635E+01  0.45777092435E+01  0.61074126318E+01  0.51100000000E-03 0.  1.
         12    1    4    4    0    0  0.10965147966E+02  0.84968789249E+01  0.81412410341E+01  0.16084502695E+02  0.00000000000E+00 0. -1.
</event>
<event>
 8    1  0.2882335E-009  0.9118800E+02  0.7816164E-02  0.1184000E+00
        -11   -1    0    0    0    0  0.00000000000E+00  0.00000000000E+00  0.45593999997E+02  0.45594000000E+02  0.51100000000E-03 0. -1.
         11   -1    0    0    0    0 -0.00000000000E+00 -0.00000000000E+00 -0.45593999997E+02  0.45594000000E+02  0.51100000000E-03 0.  1.
         23    2    1    2    0    0  0.00000000000E+00 -0.17763568394E-14  0.00000000000E+00  0.91188000000E+02  0.91188000000E+02 0.  0.
    9900012    2    3    3    0    0 -0.12307714117E+02  0.10387965048E+02 -0.42068094128E+02  0.46142309994E+02  0.99999291705E+01 0.  0.
         12    1    3    3    0    0  0.12307714117E+02 -0.10387965048E+02  0.42068094128E+02  0.45045690006E+02  0.00000000000E+00 0. -1.
         11    1    4    4    0    0 -0.14988842194E+01  0.32536943226E+00 -0.14852514647E+01  0.21350623750E+01  0.51100000000E-03 0. -1.
        -11    1    4    4    0    0 -0.50561319247E+01  0.99721008834E+01 -0.24639903262E+02  0.27057939669E+02  0.51100000000E-03 0.  1.
        -12    1    4    4    0    0 -0.57526979725E+01  0.90494732185E-01 -0.15942939401E+02  0.16949307950E+02  0.00000000000E+00 0.  1.
</event>
<event>
 8    1  0.2882335E-009  0.9118800E+02  0.7816164E-02  0.1184000E+00
        -11   -1    0    0    0    0  0.00000000000E+00  0.00000000000E+00  0.45593999997E+02  0.45594000000E+02  0.51100000000E-03 0. -1.
         11   -1    0    0    0    0 -0.00000000000E+00 -0.00000000000E+00 -0.45593999997E+02  0.45594000000E+02  0.51100000000E-03 0.  1.
         23    2    1    2    0    0 -0.71054273576E-14 -0.35527136788E-14  0.00000000000E+00  0.91188000000E+02  0.91188000000E+02 0.  0.
    9900012    2    3    3    0    0 -0.32555473982E+02 -0.19613189729E+02  0.24178036010E+02  0.46142317378E+02  0.99999965099E+01 0.  0.
        -12    1    3    3    0    0  0.32555473982E+02  0.19613189729E+02 -0.24178036010E+02  0.45045682622E+02  0.00000000000E+00 0.  1.
         11    1    4    4    0    0 -0.18654412611E+02 -0.83193108331E+01  0.12673728521E+02  0.24037916663E+02  0.51100000000E-03 0.  1.
        -11    1    4    4    0    0 -0.10088949596E+02 -0.10071584823E+02  0.64236725643E+01  0.15636089481E+02  0.51100000000E-03 0. -1.
        -12    1    4    4    0    0 -0.38121117757E+01 -0.12222940731E+01  0.50806349242E+01  0.64683112344E+01  0.00000000000E+00 0.  1.
</event>
<event>
 8    1  0.2882335E-009  0.9118800E+02  0.7816164E-02  0.1184000E+00
        -11   -1    0    0    0    0  0.00000000000E+00  0.00000000000E+00  0.45593999997E+02  0.45594000000E+02  0.51100000000E-03 0. -1.
         11   -1    0    0    0    0 -0.00000000000E+00 -0.00000000000E+00 -0.45593999997E+02  0.45594000000E+02  0.51100000000E-03 0.  1.
         23    2    1    2    0    0  0.00000000000E+00  0.00000000000E+00 -0.35527136788E-14  0.91188000000E+02  0.91188000000E+02 0.  0.
    9900012    2    3    3    0    0  0.31064372607E+02 -0.10625230312E+02 -0.30841888551E+02  0.46142324802E+02  0.10000064204E+02 0.  0.
         12    1    3    3    0    0 -0.31064372607E+02  0.10625230312E+02  0.30841888551E+02  0.45045675198E+02  0.00000000000E+00 0. -1.
         11    1    4    4    0    0  0.11698422040E+02 -0.44975376058E+00 -0.11327675854E+02  0.16290230115E+02  0.51100000000E-03 0. -1.
        -11    1    4    4    0    0  0.12478260394E+02 -0.64477770072E+01 -0.15933967338E+02  0.21240812748E+02  0.51100000000E-03 0.  1.
         12    1    4    4    0    0  0.68876901730E+01 -0.37276995439E+01 -0.35802453585E+01  0.86112819392E+01  0.00000000000E+00 0. -1.
</event>
<event>
 8    1  0.2882335E-009  0.9118800E+02  0.7816164E-02  0.1184000E+00
        -11   -1    0    0    0    0  0.00000000000E+00  0.00000000000E+00  0.45593999997E+02  0.45594000000E+02  0.51100000000E-03 0.  1.
         11   -1    0    0    0    0 -0.00000000000E+00 -0.00000000000E+00 -0.45593999997E+02  0.45594000000E+02  0.51100000000E-03 0. -1.
         23    2    1    2    0    0 -0.35527136788E-14 -0.71054273576E-14  0.00000000000E+00  0.91188000000E+02  0.91188000000E+02 0.  0.
    9900012    2    3    3    0    0 -0.21787259304E+02 -0.35571477236E+02 -0.17002904322E+02  0.46142318563E+02  0.10000007313E+02 0.  0.
         12    1    3    3    0    0  0.21787259304E+02  0.35571477236E+02  0.17002904322E+02  0.45045681437E+02  0.00000000000E+00 0. -1.
         11    1    4    4    0    0 -0.12684986362E+02 -0.13855022367E+02 -0.41984284038E+01  0.19248307072E+02  0.51100000000E-03 0. -1.
        -11    1    4    4    0    0 -0.33594962533E+01 -0.66282669332E+01 -0.30557647462E+01  0.80347891110E+01  0.51100000000E-03 0.  1.
         12    1    4    4    0    0 -0.57427766884E+01 -0.15088187936E+02 -0.97487111720E+01  0.18859222380E+02  0.00000000000E+00 0. -1.
</event>
<event>
 8    1  0.2882335E-009  0.9118800E+02  0.7816164E-02  0.1184000E+00
        -11   -1    0    0    0    0  0.00000000000E+00  0.00000000000E+00  0.45593999997E+02  0.45594000000E+02  0.51100000000E-03 0. -1.
         11   -1    0    0    0    0 -0.00000000000E+00 -0.00000000000E+00 -0.45593999997E+02  0.45594000000E+02  0.51100000000E-03 0.  1.
         23    2    1    2    0    0  0.00000000000E+00  0.00000000000E+00  0.00000000000E+00  0.91188000000E+02  0.91188000000E+02 0.  0.
    9900012    2    3    3    0    0 -0.28107436934E+02 -0.21052576811E+02 -0.28211250410E+02  0.46142315955E+02  0.99999835293E+01 0.  0.
         12    1    3    3    0    0  0.28107436934E+02  0.21052576811E+02  0.28211250410E+02  0.45045684045E+02  0.00000000000E+00 0. -1.
         11    1    4    4    0    0 -0.25786962162E+02 -0.20823333911E+02 -0.23232530226E+02  0.40476278407E+02  0.51100000000E-03 0. -1.
        -11    1    4    4    0    0 -0.15953615350E+01 -0.71713308008E+00 -0.26163103244E+01  0.31471476381E+01  0.51100000000E-03 0.  1.
         12    1    4    4    0    0 -0.72511323713E+00  0.48789017945E+00 -0.23624098595E+01  0.25188899099E+01  0.00000000000E+00 0. -1.
</event>
<event>
 8    1  0.2882335E-009  0.9118800E+02  0.7816164E-02  0.1184000E+00
        -11   -1    0    0    0    0  0.00000000000E+00  0.00000000000E+00  0.45593999997E+02  0.45594000000E+02  0.51100000000E-03 0. -1.
         11   -1    0    0    0    0 -0.00000000000E+00 -0.00000000000E+00 -0.45593999997E+02  0.45594000000E+02  0.51100000000E-03 0.  1.
         23    2    1    2    0    0  0.00000000000E+00 -0.44408920985E-15  0.00000000000E+00  0.91188000000E+02  0.91188000000E+02 0.  0.
    9900012    2    3    3    0    0  0.79048780615E+01  0.27289493849E+01  0.44262616491E+02  0.46142317848E+02  0.10000000792E+02 0.  0.
        -12    1    3    3    0    0 -0.79048780615E+01 -0.27289493849E+01 -0.44262616491E+02  0.45045682152E+02  0.00000000000E+00 0.  1.
         11    1    4    4    0    0  0.15120239723E+01  0.14272725197E-01  0.13114071168E+01  0.20015516707E+01  0.51100000000E-03 0. -1.
        -11    1    4    4    0    0 -0.57149949981E+00 -0.64516710866E+00  0.17959725492E+02  0.17980394665E+02  0.51100000000E-03 0.  1.
         12    1    4    4    0    0  0.69643535890E+01  0.33598437684E+01  0.24991483882E+02  0.26160371513E+02  0.00000000000E+00 0. -1.
</event>
<event>
 8    1  0.2882335E-009  0.9118800E+02  0.7816164E-02  0.1184000E+00
        -11   -1    0    0    0    0  0.00000000000E+00  0.00000000000E+00  0.45593999997E+02  0.45594000000E+02  0.51100000000E-03 0. -1.
         11   -1    0    0    0    0 -0.00000000000E+00 -0.00000000000E+00 -0.45593999997E+02  0.45594000000E+02  0.51100000000E-03 0.  1.
         23    2    1    2    0    0  0.38857805862E-15  0.00000000000E+00 -0.88817841970E-15  0.91188000000E+02  0.91188000000E+02 0.  0.
    9900012    2    3    3    0    0 -0.11514830722E+00 -0.44764394491E+02  0.50248640603E+01  0.46142317276E+02  0.99999955762E+01 0.  0.
        -12    1    3    3    0    0  0.11514830722E+00  0.44764394491E+02 -0.50248640603E+01  0.45045682724E+02  0.00000000000E+00 0.  1.
         11    1    4    4    0    0 -0.49210258090E+00 -0.10855026375E+02  0.45221280446E+01  0.11769596631E+02  0.51100000000E-03 0. -1.
        -11    1    4    4    0    0  0.15737910410E+01 -0.98633203404E+01 -0.19350390283E+01  0.10173803747E+02  0.51100000000E-03 0.  1.
         12    1    4    4    0    0 -0.11968367673E+01 -0.24046047776E+02  0.24377750439E+01  0.24198916898E+02  0.00000000000E+00 0. -1.
</event>
<event>
 8    1  0.2882335E-009  0.9118800E+02  0.7816164E-02  0.1184000E+00
        -11   -1    0    0    0    0  0.00000000000E+00  0.00000000000E+00  0.45593999997E+02  0.45594000000E+02  0.51100000000E-03 0. -1.
         11   -1    0    0    0    0 -0.00000000000E+00 -0.00000000000E+00 -0.45593999997E+02  0.45594000000E+02  0.51100000000E-03 0.  1.
         23    2    1    2    0    0  0.17763568394E-14 -0.71054273576E-14  0.35527136788E-14  0.91188000000E+02  0.91188000000E+02 0.  0.
    9900012    2    3    3    0    0 -0.13489641832E+02  0.38772187162E+02 -0.18543485731E+02  0.46142314334E+02  0.99999687463E+01 0.  0.
         12    1    3    3    0    0  0.13489641832E+02 -0.38772187162E+02  0.18543485731E+02  0.45045685666E+02  0.00000000000E+00 0. -1.
         11    1    4    4    0    0 -0.34029488593E+01  0.21048548850E+02 -0.11199553856E+02  0.24084257856E+02  0.51100000000E-03 0. -1.
        -11    1    4    4    0    0 -0.78504716865E+01  0.14263432245E+02 -0.75209750679E+01  0.17934337773E+02  0.51100000000E-03 0.  1.
         12    1    4    4    0    0 -0.22362212863E+01  0.34602060664E+01  0.17704319307E+00  0.41237187047E+01  0.00000000000E+00 0. -1.
</event>
<event>
 8    1  0.2882335E-009  0.9118800E+02  0.7816164E-02  0.1184000E+00
        -11   -1    0    0    0    0  0.00000000000E+00  0.00000000000E+00  0.45593999997E+02  0.45594000000E+02  0.51100000000E-03 0. -1.
         11   -1    0    0    0    0 -0.00000000000E+00 -0.00000000000E+00 -0.45593999997E+02  0.45594000000E+02  0.51100000000E-03 0.  1.
         23    2    1    2    0    0  0.00000000000E+00  0.00000000000E+00  0.00000000000E+00  0.91188000000E+02  0.91188000000E+02 0.  0.
    9900012    2    3    3    0    0  0.14382720681E+02  0.57530353664E+01 -0.42298386500E+02  0.46142316848E+02  0.99999916733E+01 0.  0.
         12    1    3    3    0    0 -0.14382720681E+02 -0.57530353664E+01  0.42298386500E+02  0.45045683152E+02  0.00000000000E+00 0. -1.
         11    1    4    4    0    0  0.99591105441E+00 -0.88841180315E+00 -0.61831388617E+01  0.63255292905E+01  0.51100000000E-03 0. -1.
        -11    1    4    4    0    0  0.89096934164E+01  0.41537151474E+01 -0.13938815202E+02  0.17056569285E+02  0.51100000000E-03 0.  1.
        -12    1    4    4    0    0  0.44771162105E+01  0.24877320222E+01 -0.22176432437E+02  0.22760218272E+02  0.00000000000E+00 0.  1.
</event>
<event>
 8    1  0.2882335E-009  0.9118800E+02  0.7816164E-02  0.1184000E+00
        -11   -1    0    0    0    0  0.00000000000E+00  0.00000000000E+00  0.45593999997E+02  0.45594000000E+02  0.51100000000E-03 0.  1.
         11   -1    0    0    0    0 -0.00000000000E+00 -0.00000000000E+00 -0.45593999997E+02  0.45594000000E+02  0.51100000000E-03 0. -1.
         23    2    1    2    0    0 -0.88817841970E-15  0.00000000000E+00  0.35527136788E-14  0.91188000000E+02  0.91188000000E+02 0.  0.
    9900012    2    3    3    0    0  0.73562477603E+01 -0.39778021575E+02 -0.19816864987E+02  0.46142317416E+02  0.99999968561E+01 0.  0.
         12    1    3    3    0    0 -0.73562477603E+01  0.39778021575E+02  0.19816864987E+02  0.45045682584E+02  0.00000000000E+00 0. -1.
         11    1    4    4    0    0  0.14658928471E+01 -0.27603547522E+01 -0.47557323790E+01  0.56908163666E+01  0.51100000000E-03 0. -1.
        -11    1    4    4    0    0  0.19402303861E+01 -0.18721793979E+02 -0.72705068799E+01  0.20177470959E+02  0.51100000000E-03 0.  1.
         12    1    4    4    0    0  0.39501245271E+01 -0.18295872844E+02 -0.77906257280E+01  0.20274030091E+02  0.00000000000E+00 0. -1.
</event>
<event>
 8    1  0.2882335E-009  0.9118800E+02  0.7816164E-02  0.1184000E+00
        -11   -1    0    0    0    0  0.00000000000E+00  0.00000000000E+00  0.45593999997E+02  0.45594000000E+02  0.51100000000E-03 0. -1.
         11   -1    0    0    0    0 -0.00000000000E+00 -0.00000000000E+00 -0.45593999997E+02  0.45594000000E+02  0.51100000000E-03 0.  1.
         23    2    1    2    0    0  0.88817841970E-15 -0.17763568394E-14 -0.71054273576E-14  0.91188000000E+02  0.91188000000E+02 0.  0.
    9900012    2    3    3    0    0 -0.79442503191E+01 -0.13153516120E+02 -0.42343682431E+02  0.46142317173E+02  0.99999946408E+01 0.  0.
         12    1    3    3    0    0  0.79442503191E+01  0.13153516120E+02  0.42343682431E+02  0.45045682827E+02  0.00000000000E+00 0. -1.
         11    1    4    4    0    0  0.15238285218E+01 -0.22252410558E+01 -0.71644508721E+01  0.76552666629E+01  0.51100000000E-03 0. -1.
        -11    1    4    4    0    0 -0.42453875041E+01 -0.45326807301E+01 -0.22616553891E+02  0.23453720810E+02  0.51100000000E-03 0.  1.
        -12    1    4    4    0    0 -0.52226913368E+01 -0.63955943346E+01 -0.12562677669E+02  0.15033329701E+02  0.00000000000E+00 0.  1.
</event>
<event>
 8    1  0.2882335E-009  0.9118800E+02  0.7816164E-02  0.1184000E+00
        -11   -1    0    0    0    0  0.00000000000E+00  0.00000000000E+00  0.45593999997E+02  0.45594000000E+02  0.51100000000E-03 0. -1.
         11   -1    0    0    0    0 -0.00000000000E+00 -0.00000000000E+00 -0.45593999997E+02  0.45594000000E+02  0.51100000000E-03 0.  1.
         23    2    1    2    0    0  0.00000000000E+00  0.17763568394E-14  0.00000000000E+00  0.91188000000E+02  0.91188000000E+02 0.  0.
    9900012    2    3    3    0    0  0.11522119240E+01  0.10528204075E+02 -0.43782905763E+02  0.46142317517E+02  0.99999977713E+01 0.  0.
         12    1    3    3    0    0 -0.11522119240E+01 -0.10528204075E+02  0.43782905763E+02  0.45045682483E+02  0.00000000000E+00 0. -1.
         11    1    4    4    0    0  0.19417613717E+01  0.46627637665E+01 -0.93050010933E+01  0.10587485479E+02  0.51100000000E-03 0. -1.
        -11    1    4    4    0    0 -0.99446853490E+00  0.48860778144E+01 -0.11251282095E+02  0.12306667832E+02  0.51100000000E-03 0.  1.
         12    1    4    4    0    0  0.20491908714E+00  0.97936249420E+00 -0.23226622574E+02  0.23248164206E+02  0.00000000000E+00 0. -1.
</event>
<event>
 8    1  0.2882335E-009  0.9118800E+02  0.7816164E-02  0.1184000E+00
        -11   -1    0    0    0    0  0.00000000000E+00  0.00000000000E+00  0.45593999997E+02  0.45594000000E+02  0.51100000000E-03 0. -1.
         11   -1    0    0    0    0 -0.00000000000E+00 -0.00000000000E+00 -0.45593999997E+02  0.45594000000E+02  0.51100000000E-03 0.  1.
         23    2    1    2    0    0  0.00000000000E+00 -0.35527136788E-14  0.00000000000E+00  0.91188000000E+02  0.91188000000E+02 0.  0.
    9900012    2    3    3    0    0  0.28242501524E+02  0.30428728597E+02 -0.17480478242E+02  0.46142317233E+02  0.99999951871E+01 0.  0.
         12    1    3    3    0    0 -0.28242501524E+02 -0.30428728597E+02  0.17480478242E+02  0.45045682767E+02  0.00000000000E+00 0. -1.
         11    1    4    4    0    0  0.70390377207E+01  0.49860508276E+01 -0.59667085300E+01  0.10488582642E+02  0.51100000000E-03 0. -1.
        -11    1    4    4    0    0  0.20166761010E+02  0.24062077910E+02 -0.12347622306E+02  0.33736413856E+02  0.51100000000E-03 0.  1.
         12    1    4    4    0    0  0.10367027928E+01  0.13805998594E+01  0.83385259469E+00  0.19173207353E+01  0.00000000000E+00 0. -1.
</event>
<event>
 8    1  0.2882335E-009  0.9118800E+02  0.7816164E-02  0.1184000E+00
        -11   -1    0    0    0    0  0.00000000000E+00  0.00000000000E+00  0.45593999997E+02  0.45594000000E+02  0.51100000000E-03 0. -1.
         11   -1    0    0    0    0 -0.00000000000E+00 -0.00000000000E+00 -0.45593999997E+02  0.45594000000E+02  0.51100000000E-03 0.  1.
         23    2    1    2    0    0 -0.17763568394E-14 -0.71054273576E-14  0.00000000000E+00  0.91188000000E+02  0.91188000000E+02 0.  0.
    9900012    2    3    3    0    0  0.89785209464E+01  0.35235021746E+02  0.26589343684E+02  0.46142314376E+02  0.99999691278E+01 0.  0.
        -12    1    3    3    0    0 -0.89785209464E+01 -0.35235021746E+02 -0.26589343684E+02  0.45045685624E+02  0.00000000000E+00 0.  1.
         11    1    4    4    0    0  0.41501661381E+01  0.10341809529E+02  0.10254586341E+02  0.15143759262E+02  0.51100000000E-03 0. -1.
        -11    1    4    4    0    0  0.65920326683E+01  0.21448906401E+02  0.14497548123E+02  0.26714965513E+02  0.51100000000E-03 0.  1.
        -12    1    4    4    0    0 -0.17636778600E+01  0.34443058155E+01  0.18372092196E+01  0.42835896000E+01  0.00000000000E+00 0.  1.
</event>
<event>
 8    1  0.2882335E-009  0.9118800E+02  0.7816164E-02  0.1184000E+00
        -11   -1    0    0    0    0  0.00000000000E+00  0.00000000000E+00  0.45593999997E+02  0.45594000000E+02  0.51100000000E-03 0. -1.
         11   -1    0    0    0    0 -0.00000000000E+00 -0.00000000000E+00 -0.45593999997E+02  0.45594000000E+02  0.51100000000E-03 0.  1.
         23    2    1    2    0    0  0.00000000000E+00  0.00000000000E+00  0.71054273576E-14  0.91188000000E+02  0.91188000000E+02 0.  0.
    9900012    2    3    3    0    0 -0.37127630329E+01 -0.16509456812E+02 -0.41746457234E+02  0.46142318019E+02  0.10000002352E+02 0.  0.
         12    1    3    3    0    0  0.37127630329E+01  0.16509456812E+02  0.41746457234E+02  0.45045681981E+02  0.00000000000E+00 0. -1.
         11    1    4    4    0    0 -0.14172806047E+01 -0.34587590850E+01 -0.18119240625E+02  0.18500772411E+02  0.51100000000E-03 0. -1.
        -11    1    4    4    0    0 -0.17957944827E+01 -0.72204241249E+00 -0.23388911480E+01  0.30358911596E+01  0.51100000000E-03 0.  1.
         12    1    4    4    0    0 -0.49968794554E+00 -0.12328655315E+02 -0.21288325460E+02  0.24605654448E+02  0.00000000000E+00 0. -1.
</event>
<event>
 8    1  0.2882335E-009  0.9118800E+02  0.7816164E-02  0.1184000E+00
        -11   -1    0    0    0    0  0.00000000000E+00  0.00000000000E+00  0.45593999997E+02  0.45594000000E+02  0.51100000000E-03 0. -1.
         11   -1    0    0    0    0 -0.00000000000E+00 -0.00000000000E+00 -0.45593999997E+02  0.45594000000E+02  0.51100000000E-03 0.  1.
         23    2    1    2    0    0  0.00000000000E+00  0.35527136788E-14  0.35527136788E-14  0.91188000000E+02  0.91188000000E+02 0.  0.
    9900012    2    3    3    0    0  0.22825847254E+02 -0.28862603085E+02 -0.25981619838E+02  0.46142315088E+02  0.99999756284E+01 0.  0.
         12    1    3    3    0    0 -0.22825847254E+02  0.28862603085E+02  0.25981619838E+02  0.45045684912E+02  0.00000000000E+00 0. -1.
         11    1    4    4    0    0  0.95455973816E+01 -0.12600227569E+02 -0.67274458095E+01  0.17179717446E+02  0.51100000000E-03 0. -1.
        -11    1    4    4    0    0  0.70952360283E+01 -0.77353011744E+01 -0.62095140426E+01  0.12195709223E+02  0.51100000000E-03 0.  1.
         12    1    4    4    0    0  0.61850138446E+01 -0.85270743420E+01 -0.13044659986E+02  0.16766888419E+02  0.00000000000E+00 0. -1.
</event>
<event>
 8    1  0.2882335E-009  0.9118800E+02  0.7816164E-02  0.1184000E+00
        -11   -1    0    0    0    0  0.00000000000E+00  0.00000000000E+00  0.45593999997E+02  0.45594000000E+02  0.51100000000E-03 0. -1.
         11   -1    0    0    0    0 -0.00000000000E+00 -0.00000000000E+00 -0.45593999997E+02  0.45594000000E+02  0.51100000000E-03 0.  1.
         23    2    1    2    0    0  0.00000000000E+00  0.00000000000E+00  0.00000000000E+00  0.91188000000E+02  0.91188000000E+02 0.  0.
    9900012    2    3    3    0    0 -0.25026661108E+02 -0.81751355099E+01 -0.36550613041E+02  0.46142312964E+02  0.99999562573E+01 0.  0.
         12    1    3    3    0    0  0.25026661108E+02  0.81751355099E+01  0.36550613041E+02  0.45045687036E+02  0.00000000000E+00 0. -1.
         11    1    4    4    0    0 -0.18638828415E+02 -0.20469846168E+01 -0.20419265819E+02  0.27722598860E+02  0.51100000000E-03 0. -1.
        -11    1    4    4    0    0 -0.57646207611E+01 -0.52825422646E+01 -0.13765417196E+02  0.15831071225E+02  0.51100000000E-03 0.  1.
         12    1    4    4    0    0 -0.62321193219E+00 -0.84560862854E+00 -0.23659300262E+01  0.25886428788E+01  0.00000000000E+00 0. -1.
</event>
<event>
 8    1  0.2882335E-009  0.9118800E+02  0.7816164E-02  0.1184000E+00
        -11   -1    0    0    0    0  0.00000000000E+00  0.00000000000E+00  0.45593999997E+02  0.45594000000E+02  0.51100000000E-03 0. -1.
         11   -1    0    0    0    0 -0.00000000000E+00 -0.00000000000E+00 -0.45593999997E+02  0.45594000000E+02  0.51100000000E-03 0.  1.
         23    2    1    2    0    0  0.00000000000E+00  0.00000000000E+00  0.00000000000E+00  0.91188000000E+02  0.91188000000E+02 0.  0.
    9900012    2    3    3    0    0  0.43372706189E+02 -0.65163490570E+01 -0.10269326652E+02  0.46142317442E+02  0.99999970934E+01 0.  0.
         12    1    3    3    0    0 -0.43372706189E+02  0.65163490570E+01  0.10269326652E+02  0.45045682558E+02  0.00000000000E+00 0. -1.
         11    1    4    4    0    0  0.13337342400E+02 -0.47050943044E+01 -0.60251150468E+01  0.15372853551E+02  0.51100000000E-03 0. -1.
        -11    1    4    4    0    0  0.16321229785E+02 -0.33467347768E+01 -0.27967679815E+01  0.16893936391E+02  0.51100000000E-03 0.  1.
         12    1    4    4    0    0  0.13714134004E+02  0.15354800242E+01 -0.14474436234E+01  0.13875527501E+02  0.00000000000E+00 0. -1.
</event>
<event>
 8    1  0.2882335E-009  0.9118800E+02  0.7816164E-02  0.1184000E+00
        -11   -1    0    0    0    0  0.00000000000E+00  0.00000000000E+00  0.45593999997E+02  0.45594000000E+02  0.51100000000E-03 0. -1.
         11   -1    0    0    0    0 -0.00000000000E+00 -0.00000000000E+00 -0.45593999997E+02  0.45594000000E+02  0.51100000000E-03 0.  1.
         23    2    1    2    0    0 -0.35527136788E-14  0.00000000000E+00  0.71054273576E-14  0.91188000000E+02  0.91188000000E+02 0.  0.
    9900012    2    3    3    0    0  0.22398291618E+02 -0.49834954033E+01 -0.38763318151E+02  0.46142317322E+02  0.99999959950E+01 0.  0.
         12    1    3    3    0    0 -0.22398291618E+02  0.49834954033E+01  0.38763318151E+02  0.45045682678E+02  0.00000000000E+00 0. -1.
         11    1    4    4    0    0  0.86576565773E+00 -0.12489999364E+01 -0.12326878388E+01  0.19568011100E+01  0.51100000000E-03 0. -1.
        -11    1    4    4    0    0  0.58638624118E+01 -0.37482553309E+01 -0.70107074250E+01  0.98784775786E+01  0.51100000000E-03 0.  1.
        -12    1    4    4    0    0  0.15668663548E+02  0.13759863957E-01 -0.30519922888E+02  0.34307038633E+02  0.00000000000E+00 0.  1.
</event>
<event>
 8    1  0.3249042E-009  0.9118800E+02  0.7816164E-02  0.1184000E+00
        -11   -1    0    0    0    0  0.00000000000E+00  0.00000000000E+00  0.45593999997E+02  0.45594000000E+02  0.51100000000E-03 0. -1.
         11   -1    0    0    0    0 -0.00000000000E+00 -0.00000000000E+00 -0.45593999997E+02  0.45594000000E+02  0.51100000000E-03 0.  1.
         23    2    1    2    0    0 -0.17763568394E-14  0.00000000000E+00  0.71054273576E-14  0.91188000000E+02  0.91188000000E+02 0.  0.
    9900012    2    3    3    0    0  0.14340471101E+02 -0.22264066717E+02  0.36438656630E+02  0.46142317907E+02  0.10000001331E+02 0.  0.
        -12    1    3    3    0    0 -0.14340471101E+02  0.22264066717E+02 -0.36438656630E+02  0.45045682093E+02  0.00000000000E+00 0.  1.
         11    1    4    4    0    0  0.14595547134E+02 -0.20219872251E+02  0.34675220632E+02  0.42711171327E+02  0.51100000000E-03 0. -1.
        -11    1    4    4    0    0 -0.20766789765E+00  0.10087198401E+00 -0.35012212698E+00  0.41938869536E+00  0.51100000000E-03 0.  1.
         12    1    4    4    0    0 -0.47408134654E-01 -0.21450664502E+01  0.21135581247E+01  0.30117578843E+01  0.00000000000E+00 0. -1.
</event>
<event>
 8    1  0.2882335E-009  0.9118800E+02  0.7816164E-02  0.1184000E+00
        -11   -1    0    0    0    0  0.00000000000E+00  0.00000000000E+00  0.45593999997E+02  0.45594000000E+02  0.51100000000E-03 0. -1.
         11   -1    0    0    0    0 -0.00000000000E+00 -0.00000000000E+00 -0.45593999997E+02  0.45594000000E+02  0.51100000000E-03 0.  1.
         23    2    1    2    0    0  0.00000000000E+00 -0.17763568394E-14  0.17763568394E-14  0.91188000000E+02  0.91188000000E+02 0.  0.
    9900012    2    3    3    0    0  0.41337288750E+02  0.13406245753E+02  0.11858102430E+02  0.46142318080E+02  0.10000002912E+02 0.  0.
        -12    1    3    3    0    0 -0.41337288750E+02 -0.13406245753E+02 -0.11858102430E+02  0.45045681920E+02  0.00000000000E+00 0.  1.
         11    1    4    4    0    0  0.30372501009E+02  0.71688820108E+01  0.10231727154E+02  0.32841588385E+02  0.51100000000E-03 0. -1.
        -11    1    4    4    0    0  0.73064983879E+01  0.26004580465E+01 -0.38243703321E+00  0.77648927288E+01  0.51100000000E-03 0.  1.
        -12    1    4    4    0    0  0.36582893526E+01  0.36369056960E+01  0.20088123086E+01  0.55358369665E+01  0.00000000000E+00 0.  1.
</event>
<event>
 8    1  0.2882335E-009  0.9118800E+02  0.7816164E-02  0.1184000E+00
        -11   -1    0    0    0    0  0.00000000000E+00  0.00000000000E+00  0.45593999997E+02  0.45594000000E+02  0.51100000000E-03 0. -1.
         11   -1    0    0    0    0 -0.00000000000E+00 -0.00000000000E+00 -0.45593999997E+02  0.45594000000E+02  0.51100000000E-03 0.  1.
         23    2    1    2    0    0 -0.71054273576E-14  0.35527136788E-14  0.00000000000E+00  0.91188000000E+02  0.91188000000E+02 0.  0.
    9900012    2    3    3    0    0  0.32577206693E+02 -0.22446069649E+02  0.21540956311E+02  0.46142320547E+02  0.10000025402E+02 0.  0.
        -12    1    3    3    0    0 -0.32577206693E+02  0.22446069649E+02 -0.21540956311E+02  0.45045679453E+02  0.00000000000E+00 0.  1.
         11    1    4    4    0    0  0.10470077504E+01  0.21963989768E+00  0.25126207603E+01  0.27308845198E+01  0.51100000000E-03 0. -1.
        -11    1    4    4    0    0  0.27085342815E+02 -0.18397014740E+02  0.14763464360E+02  0.35916929531E+02  0.51100000000E-03 0.  1.
         12    1    4    4    0    0  0.44448561267E+01 -0.42686948073E+01  0.42648711906E+01  0.74945064959E+01  0.00000000000E+00 0. -1.
</event>
<event>
 8    1  0.2882335E-009  0.9118800E+02  0.7816164E-02  0.1184000E+00
        -11   -1    0    0    0    0  0.00000000000E+00  0.00000000000E+00  0.45593999997E+02  0.45594000000E+02  0.51100000000E-03 0. -1.
         11   -1    0    0    0    0 -0.00000000000E+00 -0.00000000000E+00 -0.45593999997E+02  0.45594000000E+02  0.51100000000E-03 0.  1.
         23    2    1    2    0    0  0.71054273576E-14  0.00000000000E+00  0.00000000000E+00  0.91188000000E+02  0.91188000000E+02 0.  0.
    9900012    2    3    3    0    0 -0.33332435982E+02 -0.27118085334E+02  0.13515606298E+02  0.46142318140E+02  0.10000003455E+02 0.  0.
        -12    1    3    3    0    0  0.33332435982E+02  0.27118085334E+02 -0.13515606298E+02  0.45045681860E+02  0.00000000000E+00 0.  1.
         11    1    4    4    0    0 -0.15730704399E+02 -0.13257143807E+02  0.53345031788E+01  0.21252384507E+02  0.51100000000E-03 0. -1.
        -11    1    4    4    0    0 -0.69395337514E+01 -0.95627137282E+01  0.25434546498E+01  0.12086016066E+02  0.51100000000E-03 0.  1.
        -12    1    4    4    0    0 -0.10662197831E+02 -0.42982277988E+01  0.56376484692E+01  0.12803917567E+02  0.00000000000E+00 0.  1.
</event>
<event>
 8    1  0.5385030E-009  0.9118800E+02  0.7816164E-02  0.1184000E+00
        -11   -1    0    0    0    0  0.00000000000E+00  0.00000000000E+00  0.45593999997E+02  0.45594000000E+02  0.51100000000E-03 0. -1.
         11   -1    0    0    0    0 -0.00000000000E+00 -0.00000000000E+00 -0.45593999997E+02  0.45594000000E+02  0.51100000000E-03 0.  1.
         23    2    1    2    0    0  0.55511151231E-15  0.00000000000E+00  0.00000000000E+00  0.91188000000E+02  0.91188000000E+02 0.  0.
    9900012    2    3    3    0    0  0.24686073225E+00  0.53351644286E+00 -0.45041846213E+02  0.46142317739E+02  0.99999998020E+01 0.  0.
         12    1    3    3    0    0 -0.24686073225E+00 -0.53351644286E+00  0.45041846213E+02  0.45045682261E+02  0.00000000000E+00 0. -1.
         11    1    4    4    0    0 -0.94882726682E+00  0.23134525436E+01 -0.79136047887E+01  0.82992455601E+01  0.51100000000E-03 0. -1.
        -11    1    4    4    0    0 -0.11740745904E+01 -0.13609876608E+01 -0.22402786863E+01  0.28722094996E+01  0.51100000000E-03 0.  1.
        -12    1    4    4    0    0  0.23697625895E+01 -0.41894843993E+00 -0.34887962738E+02  0.34970862680E+02  0.00000000000E+00 0.  1.
</event>
<event>
 8    1  0.2882335E-009  0.9118800E+02  0.7816164E-02  0.1184000E+00
        -11   -1    0    0    0    0  0.00000000000E+00  0.00000000000E+00  0.45593999997E+02  0.45594000000E+02  0.51100000000E-03 0. -1.
         11   -1    0    0    0    0 -0.00000000000E+00 -0.00000000000E+00 -0.45593999997E+02  0.45594000000E+02  0.51100000000E-03 0.  1.
         23    2    1    2    0    0 -0.35527136788E-14  0.00000000000E+00 -0.71054273576E-14  0.91188000000E+02  0.91188000000E+02 0.  0.
    9900012    2    3    3    0    0  0.24935061886E+02 -0.61172436702E+01  0.37012641089E+02  0.46142316725E+02  0.99999905480E+01 0.  0.
        -12    1    3    3    0    0 -0.24935061886E+02  0.61172436702E+01 -0.37012641089E+02  0.45045683275E+02  0.00000000000E+00 0.  1.
         11    1    4    4    0    0  0.72554167757E+01 -0.14477520808E+01  0.50469486964E+01  0.89559337917E+01  0.51100000000E-03 0. -1.
        -11    1    4    4    0    0  0.13708560980E+02 -0.18405018846E+01  0.26270058165E+02  0.29688853928E+02  0.51100000000E-03 0.  1.
        -12    1    4    4    0    0  0.39710841302E+01 -0.28289897047E+01  0.56956342274E+01  0.74975290044E+01  0.00000000000E+00 0.  1.
</event>
<event>
 8    1  0.2882335E-009  0.9118800E+02  0.7816164E-02  0.1184000E+00
        -11   -1    0    0    0    0  0.00000000000E+00  0.00000000000E+00  0.45593999997E+02  0.45594000000E+02  0.51100000000E-03 0.  1.
         11   -1    0    0    0    0 -0.00000000000E+00 -0.00000000000E+00 -0.45593999997E+02  0.45594000000E+02  0.51100000000E-03 0. -1.
         23    2    1    2    0    0  0.00000000000E+00 -0.34000580129E-15  0.00000000000E+00  0.91188000000E+02  0.91188000000E+02 0.  0.
    9900012    2    3    3    0    0 -0.44955588146E+02  0.39239213615E-01 -0.28472717121E+01  0.46142318726E+02  0.10000008794E+02 0.  0.
         12    1    3    3    0    0  0.44955588146E+02 -0.39239213615E-01  0.28472717121E+01  0.45045681274E+02  0.00000000000E+00 0. -1.
         11    1    4    4    0    0 -0.96996962883E+01 -0.95325253818E+00 -0.22071162709E+01  0.99932057410E+01  0.51100000000E-03 0. -1.
        -11    1    4    4    0    0 -0.29238403378E+02  0.29632988758E+01  0.16021098974E+01  0.29431821702E+02  0.51100000000E-03 0.  1.
        -12    1    4    4    0    0 -0.60174884800E+01 -0.19708071240E+01 -0.22422653386E+01  0.67172912827E+01  0.00000000000E+00 0.  1.
</event>
<event>
 8    1  0.2882335E-009  0.9118800E+02  0.7816164E-02  0.1184000E+00
        -11   -1    0    0    0    0  0.00000000000E+00  0.00000000000E+00  0.45593999997E+02  0.45594000000E+02  0.51100000000E-03 0. -1.
         11   -1    0    0    0    0 -0.00000000000E+00 -0.00000000000E+00 -0.45593999997E+02  0.45594000000E+02  0.51100000000E-03 0.  1.
         23    2    1    2    0    0  0.22204460493E-15  0.00000000000E+00  0.71054273576E-14  0.91188000000E+02  0.91188000000E+02 0.  0.
    9900012    2    3    3    0    0  0.97943846302E+00 -0.20090345992E+02  0.40305486089E+02  0.46142317514E+02  0.99999977444E+01 0.  0.
        -12    1    3    3    0    0 -0.97943846302E+00  0.20090345992E+02 -0.40305486089E+02  0.45045682486E+02  0.00000000000E+00 0.  1.
         11    1    4    4    0    0 -0.12743133926E+01 -0.90861624619E+01  0.18956757663E+02  0.21060410354E+02  0.51100000000E-03 0. -1.
        -11    1    4    4    0    0  0.19015503274E+01 -0.10152660653E+02  0.12635920419E+02  0.16320505417E+02  0.51100000000E-03 0.  1.
        -12    1    4    4    0    0  0.35220152826E+00 -0.85152287667E+00  0.87128080076E+01  0.87614017431E+01  0.00000000000E+00 0.  1.
</event>
<event>
 8    1  0.2882335E-009  0.9118800E+02  0.7816164E-02  0.1184000E+00
        -11   -1    0    0    0    0  0.00000000000E+00  0.00000000000E+00  0.45593999997E+02  0.45594000000E+02  0.51100000000E-03 0. -1.
         11   -1    0    0    0    0 -0.00000000000E+00 -0.00000000000E+00 -0.45593999997E+02  0.45594000000E+02  0.51100000000E-03 0.  1.
         23    2    1    2    0    0  0.17763568394E-14  0.17763568394E-14  0.71054273576E-14  0.91188000000E+02  0.91188000000E+02 0.  0.
    9900012    2    3    3    0    0  0.89473259762E+01  0.10431661782E+02  0.42898009556E+02  0.46142318369E+02  0.10000005547E+02 0.  0.
        -12    1    3    3    0    0 -0.89473259762E+01 -0.10431661782E+02 -0.42898009556E+02  0.45045681631E+02  0.00000000000E+00 0.  1.
         11    1    4    4    0    0  0.75105385596E+00 -0.15466915479E+01  0.70273382681E+01  0.72346264613E+01  0.51100000000E-03 0.  1.
        -11    1    4    4    0    0  0.67071016012E+01  0.10704591096E+02  0.26802187890E+02  0.29629896361E+02  0.51100000000E-03 0. -1.
         12    1    4    4    0    0  0.14891705190E+01  0.12737622337E+01  0.90684833985E+01  0.92777955470E+01  0.00000000000E+00 0. -1.
</event>
<event>
 8    1  0.2882335E-009  0.9118800E+02  0.7816164E-02  0.1184000E+00
        -11   -1    0    0    0    0  0.00000000000E+00  0.00000000000E+00  0.45593999997E+02  0.45594000000E+02  0.51100000000E-03 0. -1.
         11   -1    0    0    0    0 -0.00000000000E+00 -0.00000000000E+00 -0.45593999997E+02  0.45594000000E+02  0.51100000000E-03 0.  1.
         23    2    1    2    0    0  0.17763568394E-14  0.88817841970E-15  0.00000000000E+00  0.91188000000E+02  0.91188000000E+02 0.  0.
    9900012    2    3    3    0    0 -0.15359571462E+02 -0.49672886237E+01  0.42053812334E+02  0.46142317370E+02  0.99999964340E+01 0.  0.
        -12    1    3    3    0    0  0.15359571462E+02  0.49672886237E+01 -0.42053812334E+02  0.45045682630E+02  0.00000000000E+00 0.  1.
         11    1    4    4    0    0 -0.46103332073E+01 -0.18738486265E+01  0.10014831750E+02  0.11183172009E+02  0.51100000000E-03 0. -1.
        -11    1    4    4    0    0  0.88617107794E+00 -0.21317974617E+01  0.55897993521E+01  0.60477860953E+01  0.51100000000E-03 0.  1.
        -12    1    4    4    0    0 -0.11635409333E+02 -0.96164253546E+00  0.26449181232E+02  0.28911359265E+02  0.00000000000E+00 0.  1.
</event>
<event>
 8    1  0.2882335E-009  0.9118800E+02  0.7816164E-02  0.1184000E+00
        -11   -1    0    0    0    0  0.00000000000E+00  0.00000000000E+00  0.45593999997E+02  0.45594000000E+02  0.51100000000E-03 0. -1.
         11   -1    0    0    0    0 -0.00000000000E+00 -0.00000000000E+00 -0.45593999997E+02  0.45594000000E+02  0.51100000000E-03 0.  1.
         23    2    1    2    0    0  0.00000000000E+00  0.00000000000E+00  0.00000000000E+00  0.91188000000E+02  0.91188000000E+02 0.  0.
    9900012    2    3    3    0    0  0.32448198887E+01 -0.27793561780E+02  0.35300175736E+02  0.46142319413E+02  0.10000015065E+02 0.  0.
        -12    1    3    3    0    0 -0.32448198887E+01  0.27793561780E+02 -0.35300175736E+02  0.45045680587E+02  0.00000000000E+00 0.  1.
         11    1    4    4    0    0 -0.25555425084E+00 -0.54053715211E+01  0.10329937141E+02  0.11661515805E+02  0.51100000000E-03 0. -1.
        -11    1    4    4    0    0  0.87831139850E+00 -0.12765015375E+02  0.89692323877E+01  0.15625753688E+02  0.51100000000E-03 0.  1.
         12    1    4    4    0    0  0.26220627410E+01 -0.96231748839E+01  0.16001006207E+02  0.18855049921E+02  0.00000000000E+00 0. -1.
</event>
<event>
 8    1  0.2882335E-009  0.9118800E+02  0.7816164E-02  0.1184000E+00
        -11   -1    0    0    0    0  0.00000000000E+00  0.00000000000E+00  0.45593999997E+02  0.45594000000E+02  0.51100000000E-03 0. -1.
         11   -1    0    0    0    0 -0.00000000000E+00 -0.00000000000E+00 -0.45593999997E+02  0.45594000000E+02  0.51100000000E-03 0.  1.
         23    2    1    2    0    0 -0.35527136788E-14  0.00000000000E+00  0.71054273576E-14  0.91188000000E+02  0.91188000000E+02 0.  0.
    9900012    2    3    3    0    0 -0.22700771003E+02  0.75377959143E+01  0.38170279001E+02  0.46142316850E+02  0.99999916952E+01 0.  0.
        -12    1    3    3    0    0  0.22700771003E+02 -0.75377959143E+01 -0.38170279001E+02  0.45045683150E+02  0.00000000000E+00 0.  1.
         11    1    4    4    0    0 -0.86311718429E+01  0.20972384261E+01  0.22387674276E+02  0.24085337783E+02  0.51100000000E-03 0. -1.
        -11    1    4    4    0    0 -0.10670678307E+02  0.44876999208E+01  0.10076510797E+02  0.15347276508E+02  0.51100000000E-03 0.  1.
         12    1    4    4    0    0 -0.33989208537E+01  0.95285756749E+00  0.57060939285E+01  0.67097025593E+01  0.00000000000E+00 0. -1.
</event>
<event>
 8    1  0.2882335E-009  0.9118800E+02  0.7816164E-02  0.1184000E+00
        -11   -1    0    0    0    0  0.00000000000E+00  0.00000000000E+00  0.45593999997E+02  0.45594000000E+02  0.51100000000E-03 0. -1.
         11   -1    0    0    0    0 -0.00000000000E+00 -0.00000000000E+00 -0.45593999997E+02  0.45594000000E+02  0.51100000000E-03 0.  1.
         23    2    1    2    0    0 -0.35527136788E-14  0.71054273576E-14  0.35527136788E-14  0.91188000000E+02  0.91188000000E+02 0.  0.
    9900012    2    3    3    0    0  0.20529368354E+02 -0.33833198992E+02 -0.21516810108E+02  0.46142318340E+02  0.10000005275E+02 0.  0.
         12    1    3    3    0    0 -0.20529368354E+02  0.33833198992E+02  0.21516810108E+02  0.45045681660E+02  0.00000000000E+00 0. -1.
         11    1    4    4    0    0  0.24198586540E+01 -0.12210744676E+02 -0.76960688695E+01  0.14635145293E+02  0.51100000000E-03 0. -1.
        -11    1    4    4    0    0  0.10334865556E+02 -0.13999959171E+02 -0.91398377597E+01  0.19655659170E+02  0.51100000000E-03 0.  1.
         12    1    4    4    0    0  0.77746441438E+01 -0.76224951452E+01 -0.46809034785E+01  0.11851513877E+02  0.00000000000E+00 0. -1.
</event>
<event>
 8    1  0.2882335E-009  0.9118800E+02  0.7816164E-02  0.1184000E+00
        -11   -1    0    0    0    0  0.00000000000E+00  0.00000000000E+00  0.45593999997E+02  0.45594000000E+02  0.51100000000E-03 0.  1.
         11   -1    0    0    0    0 -0.00000000000E+00 -0.00000000000E+00 -0.45593999997E+02  0.45594000000E+02  0.51100000000E-03 0. -1.
         23    2    1    2    0    0 -0.35527136788E-14 -0.71054273576E-14  0.00000000000E+00  0.91188000000E+02  0.91188000000E+02 0.  0.
    9900012    2    3    3    0    0 -0.25937480035E+02 -0.33521278415E+02  0.15253998777E+02  0.46142318122E+02  0.10000003291E+02 0.  0.
        -12    1    3    3    0    0  0.25937480035E+02  0.33521278415E+02 -0.15253998777E+02  0.45045681878E+02  0.00000000000E+00 0.  1.
         11    1    4    4    0    0 -0.93453930669E+01 -0.19139565702E+02  0.83898450999E+01  0.22892113225E+02  0.51100000000E-03 0. -1.
        -11    1    4    4    0    0 -0.13959072834E+02 -0.11004140782E+02  0.44082000079E+01  0.18313357319E+02  0.51100000000E-03 0.  1.
         12    1    4    4    0    0 -0.26330141345E+01 -0.33775719318E+01  0.24559536691E+01  0.49368475784E+01  0.00000000000E+00 0. -1.
</event>
<event>
 8    1  0.2882335E-009  0.9118800E+02  0.7816164E-02  0.1184000E+00
        -11   -1    0    0    0    0  0.00000000000E+00  0.00000000000E+00  0.45593999997E+02  0.45594000000E+02  0.51100000000E-03 0. -1.
         11   -1    0    0    0    0 -0.00000000000E+00 -0.00000000000E+00 -0.45593999997E+02  0.45594000000E+02  0.51100000000E-03 0.  1.
         23    2    1    2    0    0  0.00000000000E+00  0.33306690739E-15  0.00000000000E+00  0.91188000000E+02  0.91188000000E+02 0.  0.
    9900012    2    3    3    0    0 -0.15484350886E+02  0.31475548777E+00  0.42299519180E+02  0.46142317452E+02  0.99999971785E+01 0.  0.
        -12    1    3    3    0    0  0.15484350886E+02 -0.31475548777E+00 -0.42299519180E+02  0.45045682548E+02  0.00000000000E+00 0.  1.
         11    1    4    4    0    0 -0.82280507565E+01 -0.18731902243E+00  0.19254173558E+02  0.20939415162E+02  0.51100000000E-03 0. -1.
        -11    1    4    4    0    0 -0.17715497952E+01  0.19685397321E+01  0.17755736466E+01  0.31884478025E+01  0.51100000000E-03 0.  1.
        -12    1    4    4    0    0 -0.54847503347E+01 -0.14664652219E+01  0.21269771976E+02  0.22014454487E+02  0.00000000000E+00 0.  1.
</event>
<event>
 8    1  0.2882335E-009  0.9118800E+02  0.7816164E-02  0.1184000E+00
        -11   -1    0    0    0    0  0.00000000000E+00  0.00000000000E+00  0.45593999997E+02  0.45594000000E+02  0.51100000000E-03 0. -1.
         11   -1    0    0    0    0 -0.00000000000E+00 -0.00000000000E+00 -0.45593999997E+02  0.45594000000E+02  0.51100000000E-03 0.  1.
         23    2    1    2    0    0  0.00000000000E+00 -0.35527136788E-14 -0.35527136788E-14  0.91188000000E+02  0.91188000000E+02 0.  0.
    9900012    2    3    3    0    0  0.26773052556E+02  0.23408980943E+02  0.27646641918E+02  0.46142317174E+02  0.99999946425E+01 0.  0.
        -12    1    3    3    0    0 -0.26773052556E+02 -0.23408980943E+02 -0.27646641918E+02  0.45045682826E+02  0.00000000000E+00 0.  1.
         11    1    4    4    0    0  0.22979216446E+02  0.17046294989E+02  0.22803096655E+02  0.36586907203E+02  0.51100000000E-03 0. -1.
        -11    1    4    4    0    0  0.18779687257E+01  0.53214602348E+01  0.20329252008E+01  0.59981239316E+01  0.51100000000E-03 0.  1.
         12    1    4    4    0    0  0.19158673836E+01  0.10412257188E+01  0.28106200621E+01  0.35572860389E+01  0.00000000000E+00 0. -1.
</event>
<event>
 8    1  0.2882335E-009  0.9118800E+02  0.7816164E-02  0.1184000E+00
        -11   -1    0    0    0    0  0.00000000000E+00  0.00000000000E+00  0.45593999997E+02  0.45594000000E+02  0.51100000000E-03 0. -1.
         11   -1    0    0    0    0 -0.00000000000E+00 -0.00000000000E+00 -0.45593999997E+02  0.45594000000E+02  0.51100000000E-03 0.  1.
         23    2    1    2    0    0  0.00000000000E+00 -0.22204460493E-15  0.00000000000E+00  0.91188000000E+02  0.91188000000E+02 0.  0.
    9900012    2    3    3    0    0  0.34285146041E+01  0.10448540818E+01 -0.44902862490E+02  0.46142317718E+02  0.99999996095E+01 0.  0.
         12    1    3    3    0    0 -0.34285146041E+01 -0.10448540818E+01  0.44902862490E+02  0.45045682282E+02  0.00000000000E+00 0. -1.
         11    1    4    4    0    0 -0.24121687670E+01 -0.24746611446E+01 -0.11058179701E+02  0.11585587792E+02  0.51100000000E-03 0. -1.
        -11    1    4    4    0    0  0.37968118858E+01  0.27415624006E+01 -0.20042493687E+02  0.20582358911E+02  0.51100000000E-03 0.  1.
         12    1    4    4    0    0  0.20438714853E+01  0.77795282575E+00 -0.13802189102E+02  0.13974371015E+02  0.00000000000E+00 0. -1.
</event>
<event>
 8    1  0.2882335E-009  0.9118800E+02  0.7816164E-02  0.1184000E+00
        -11   -1    0    0    0    0  0.00000000000E+00  0.00000000000E+00  0.45593999997E+02  0.45594000000E+02  0.51100000000E-03 0. -1.
         11   -1    0    0    0    0 -0.00000000000E+00 -0.00000000000E+00 -0.45593999997E+02  0.45594000000E+02  0.51100000000E-03 0.  1.
         23    2    1    2    0    0  0.00000000000E+00  0.35527136788E-14 -0.35527136788E-14  0.91188000000E+02  0.91188000000E+02 0.  0.
    9900012    2    3    3    0    0  0.32956234925E+02  0.13604383538E+02 -0.27530361415E+02  0.46142317948E+02  0.10000001704E+02 0.  0.
         12    1    3    3    0    0 -0.32956234925E+02 -0.13604383538E+02  0.27530361415E+02  0.45045682052E+02  0.00000000000E+00 0. -1.
         11    1    4    4    0    0  0.12768125807E+02  0.44911395217E+01 -0.53274843356E+01  0.14545702473E+02  0.51100000000E-03 0. -1.
        -11    1    4    4    0    0  0.17850679526E+02  0.68194737182E+01 -0.17847540007E+02  0.26147402661E+02  0.51100000000E-03 0.  1.
         12    1    4    4    0    0  0.23374295915E+01  0.22937702980E+01 -0.43553370726E+01  0.54492128140E+01  0.00000000000E+00 0. -1.
</event>
<event>
 8    1  0.2882335E-009  0.9118800E+02  0.7816164E-02  0.1184000E+00
        -11   -1    0    0    0    0  0.00000000000E+00  0.00000000000E+00  0.45593999997E+02  0.45594000000E+02  0.51100000000E-03 0. -1.
         11   -1    0    0    0    0 -0.00000000000E+00 -0.00000000000E+00 -0.45593999997E+02  0.45594000000E+02  0.51100000000E-03 0.  1.
         23    2    1    2    0    0  0.00000000000E+00  0.00000000000E+00  0.00000000000E+00  0.91188000000E+02  0.91188000000E+02 0.  0.
    9900012    2    3    3    0    0  0.17978459625E+02  0.15929135086E+02  0.38107099467E+02  0.46142318910E+02  0.10000010476E+02 0.  0.
        -12    1    3    3    0    0 -0.17978459625E+02 -0.15929135086E+02 -0.38107099467E+02  0.45045681090E+02  0.00000000000E+00 0.  1.
         11    1    4    4    0    0  0.86977626012E+01  0.56638375254E+01  0.16788832491E+02  0.19738161678E+02  0.51100000000E-03 0. -1.
        -11    1    4    4    0    0 -0.84794729583E+00  0.24606678894E+01  0.22216332720E+01  0.34219228125E+01  0.51100000000E-03 0.  1.
        -12    1    4    4    0    0  0.10128644320E+02  0.78046296711E+01  0.19096633704E+02  0.22982234419E+02  0.00000000000E+00 0.  1.
</event>
<event>
 8    1  0.2882335E-009  0.9118800E+02  0.7816164E-02  0.1184000E+00
        -11   -1    0    0    0    0  0.00000000000E+00  0.00000000000E+00  0.45593999997E+02  0.45594000000E+02  0.51100000000E-03 0. -1.
         11   -1    0    0    0    0 -0.00000000000E+00 -0.00000000000E+00 -0.45593999997E+02  0.45594000000E+02  0.51100000000E-03 0.  1.
         23    2    1    2    0    0  0.00000000000E+00  0.00000000000E+00  0.00000000000E+00  0.91188000000E+02  0.91188000000E+02 0.  0.
    9900012    2    3    3    0    0  0.19019942918E+02 -0.39656930742E+02  0.97305256812E+01  0.46142317471E+02  0.99999973512E+01 0.  0.
        -12    1    3    3    0    0 -0.19019942918E+02  0.39656930742E+02 -0.97305256812E+01  0.45045682529E+02  0.00000000000E+00 0.  1.
         11    1    4    4    0    0  0.56168364686E+01 -0.18470022798E+02  0.24696389137E+01  0.19462520667E+02  0.51100000000E-03 0. -1.
        -11    1    4    4    0    0  0.11679814425E+01  0.39462513344E-01  0.23363751255E+00  0.11917737572E+01  0.51100000000E-03 0.  1.
        -12    1    4    4    0    0  0.12235125007E+02 -0.21226370457E+02  0.70272492550E+01  0.25488023047E+02  0.00000000000E+00 0.  1.
</event>
<event>
 8    1  0.2882335E-009  0.9118800E+02  0.7816164E-02  0.1184000E+00
        -11   -1    0    0    0    0  0.00000000000E+00  0.00000000000E+00  0.45593999997E+02  0.45594000000E+02  0.51100000000E-03 0. -1.
         11   -1    0    0    0    0 -0.00000000000E+00 -0.00000000000E+00 -0.45593999997E+02  0.45594000000E+02  0.51100000000E-03 0.  1.
         23    2    1    2    0    0  0.17763568394E-14  0.00000000000E+00  0.71054273576E-14  0.91188000000E+02  0.91188000000E+02 0.  0.
    9900012    2    3    3    0    0  0.14648030857E+02 -0.31101637366E+02  0.29107331999E+02  0.46142318398E+02  0.10000005812E+02 0.  0.
        -12    1    3    3    0    0 -0.14648030857E+02  0.31101637366E+02 -0.29107331999E+02  0.45045681602E+02  0.00000000000E+00 0.  1.
         11    1    4    4    0    0  0.90281218034E+01 -0.18628369826E+02  0.19312772733E+02  0.28310887244E+02  0.51100000000E-03 0. -1.
        -11    1    4    4    0    0  0.64349056545E+01 -0.76709179615E+01  0.69847927475E+01  0.12208125292E+02  0.51100000000E-03 0.  1.
         12    1    4    4    0    0 -0.81499660045E+00 -0.48023495780E+01  0.28097665193E+01  0.56233058623E+01  0.00000000000E+00 0. -1.
</event>
<event>
 8    1  0.2882335E-009  0.9118800E+02  0.7816164E-02  0.1184000E+00
        -11   -1    0    0    0    0  0.00000000000E+00  0.00000000000E+00  0.45593999997E+02  0.45594000000E+02  0.51100000000E-03 0. -1.
         11   -1    0    0    0    0 -0.00000000000E+00 -0.00000000000E+00 -0.45593999997E+02  0.45594000000E+02  0.51100000000E-03 0.  1.
         23    2    1    2    0    0  0.00000000000E+00  0.00000000000E+00  0.00000000000E+00  0.91188000000E+02  0.91188000000E+02 0.  0.
    9900012    2    3    3    0    0  0.18659318355E+01 -0.35848766707E+02  0.27212088081E+02  0.46142317480E+02  0.99999974327E+01 0.  0.
        -12    1    3    3    0    0 -0.18659318355E+01  0.35848766707E+02 -0.27212088081E+02  0.45045682520E+02  0.00000000000E+00 0.  1.
         11    1    4    4    0    0 -0.26552128035E+01 -0.20708113826E+02  0.13951688082E+02  0.25110271481E+02  0.51100000000E-03 0. -1.
        -11    1    4    4    0    0  0.16555306819E+01 -0.19427870550E+01  0.84952518699E+00  0.26901480785E+01  0.51100000000E-03 0.  1.
         12    1    4    4    0    0  0.28656139570E+01 -0.13197865826E+02  0.12410874812E+02  0.18341897920E+02  0.00000000000E+00 0. -1.
</event>
<event>
 8    1  0.2882335E-009  0.9118800E+02  0.7816164E-02  0.1184000E+00
        -11   -1    0    0    0    0  0.00000000000E+00  0.00000000000E+00  0.45593999997E+02  0.45594000000E+02  0.51100000000E-03 0. -1.
         11   -1    0    0    0    0 -0.00000000000E+00 -0.00000000000E+00 -0.45593999997E+02  0.45594000000E+02  0.51100000000E-03 0.  1.
         23    2    1    2    0    0  0.00000000000E+00  0.00000000000E+00  0.35527136788E-14  0.91188000000E+02  0.91188000000E+02 0.  0.
    9900012    2    3    3    0    0 -0.20380267138E+02 -0.34866694104E+02 -0.19951738850E+02  0.46142317304E+02  0.99999958341E+01 0.  0.
         12    1    3    3    0    0  0.20380267138E+02  0.34866694104E+02  0.19951738850E+02  0.45045682696E+02  0.00000000000E+00 0. -1.
         11    1    4    4    0    0 -0.28239094864E+01 -0.11142452515E+01 -0.26957882620E+01  0.40599608228E+01  0.51100000000E-03 0. -1.
        -11    1    4    4    0    0 -0.43787916029E+01 -0.13731183142E+02 -0.63713797470E+01  0.15757972157E+02  0.51100000000E-03 0.  1.
        -12    1    4    4    0    0 -0.13177566049E+02 -0.20021265711E+02 -0.10884570841E+02  0.26324384324E+02  0.00000000000E+00 0.  1.
</event>
<event>
 8    1  0.2882335E-009  0.9118800E+02  0.7816164E-02  0.1184000E+00
        -11   -1    0    0    0    0  0.00000000000E+00  0.00000000000E+00  0.45593999997E+02  0.45594000000E+02  0.51100000000E-03 0. -1.
         11   -1    0    0    0    0 -0.00000000000E+00 -0.00000000000E+00 -0.45593999997E+02  0.45594000000E+02  0.51100000000E-03 0.  1.
         23    2    1    2    0    0  0.88817841970E-15  0.00000000000E+00  0.00000000000E+00  0.91188000000E+02  0.91188000000E+02 0.  0.
    9900012    2    3    3    0    0  0.48946812174E+01 -0.17646122867E+02 -0.41155436241E+02  0.46142317758E+02  0.99999999755E+01 0.  0.
         12    1    3    3    0    0 -0.48946812174E+01  0.17646122867E+02  0.41155436241E+02  0.45045682242E+02  0.00000000000E+00 0. -1.
         11    1    4    4    0    0 -0.23684467003E+01 -0.66035620999E+01 -0.14645917349E+02  0.16239441722E+02  0.51100000000E-03 0. -1.
        -11    1    4    4    0    0  0.56072522192E+01 -0.71311270181E+01 -0.21497252236E+02  0.23332940319E+02  0.51100000000E-03 0.  1.
        -12    1    4    4    0    0  0.16558756985E+01 -0.39114337488E+01 -0.50122666562E+01  0.65699357176E+01  0.00000000000E+00 0.  1.
</event>
<event>
 8    1  0.2882335E-009  0.9118800E+02  0.7816164E-02  0.1184000E+00
        -11   -1    0    0    0    0  0.00000000000E+00  0.00000000000E+00  0.45593999997E+02  0.45594000000E+02  0.51100000000E-03 0. -1.
         11   -1    0    0    0    0 -0.00000000000E+00 -0.00000000000E+00 -0.45593999997E+02  0.45594000000E+02  0.51100000000E-03 0.  1.
         23    2    1    2    0    0  0.00000000000E+00 -0.88817841970E-15  0.00000000000E+00  0.91188000000E+02  0.91188000000E+02 0.  0.
    9900012    2    3    3    0    0  0.35048330877E+02 -0.46590867605E+01  0.27910945683E+02  0.46142317903E+02  0.10000001294E+02 0.  0.
        -12    1    3    3    0    0 -0.35048330877E+02  0.46590867605E+01 -0.27910945683E+02  0.45045682097E+02  0.00000000000E+00 0.  1.
         11    1    4    4    0    0  0.11461547061E+02 -0.30765407872E+01  0.12003486714E+02  0.16879450755E+02  0.51100000000E-03 0. -1.
        -11    1    4    4    0    0  0.56159843112E+01  0.24701416663E+01  0.42097653245E+01  0.74406319613E+01  0.51100000000E-03 0.  1.
        -12    1    4    4    0    0  0.17970799505E+02 -0.40526876396E+01  0.11697693644E+02  0.21822235187E+02  0.00000000000E+00 0.  1.
</event>
<event>
 8    1  0.3273100E-009  0.9118800E+02  0.7816164E-02  0.1184000E+00
        -11   -1    0    0    0    0  0.00000000000E+00  0.00000000000E+00  0.45593999997E+02  0.45594000000E+02  0.51100000000E-03 0. -1.
         11   -1    0    0    0    0 -0.00000000000E+00 -0.00000000000E+00 -0.45593999997E+02  0.45594000000E+02  0.51100000000E-03 0.  1.
         23    2    1    2    0    0  0.00000000000E+00  0.00000000000E+00  0.00000000000E+00  0.91188000000E+02  0.91188000000E+02 0.  0.
    9900012    2    3    3    0    0  0.10583377691E+02  0.23167746292E+01  0.43723428113E+02  0.46142317699E+02  0.99999994345E+01 0.  0.
        -12    1    3    3    0    0 -0.10583377691E+02 -0.23167746292E+01 -0.43723428113E+02  0.45045682301E+02  0.00000000000E+00 0.  1.
         11    1    4    4    0    0  0.60447236278E+01  0.50377096661E+01  0.25672420732E+02  0.26851264196E+02  0.51100000000E-03 0. -1.
        -11    1    4    4    0    0  0.20749157378E+01 -0.98300541399E+00  0.22846955682E+01  0.32390444676E+01  0.51100000000E-03 0.  1.
         12    1    4    4    0    0  0.24637383253E+01 -0.17379296229E+01  0.15766311813E+02  0.16052009036E+02  0.00000000000E+00 0. -1.
</event>
<event>
 8    1  0.2882335E-009  0.9118800E+02  0.7816164E-02  0.1184000E+00
        -11   -1    0    0    0    0  0.00000000000E+00  0.00000000000E+00  0.45593999997E+02  0.45594000000E+02  0.51100000000E-03 0. -1.
         11   -1    0    0    0    0 -0.00000000000E+00 -0.00000000000E+00 -0.45593999997E+02  0.45594000000E+02  0.51100000000E-03 0.  1.
         23    2    1    2    0    0  0.33306690739E-15  0.44408920985E-15  0.00000000000E+00  0.91188000000E+02  0.91188000000E+02 0.  0.
    9900012    2    3    3    0    0 -0.40795058080E+00  0.17560769957E+01 -0.45009588338E+02  0.46142320158E+02  0.10000021856E+02 0.  0.
         12    1    3    3    0    0  0.40795058080E+00 -0.17560769957E+01  0.45009588338E+02  0.45045679842E+02  0.00000000000E+00 0. -1.
         11    1    4    4    0    0 -0.42608643554E+01 -0.12505802386E+01 -0.15896576367E+02  0.16505152421E+02  0.51100000000E-03 0. -1.
        -11    1    4    4    0    0  0.23785147441E+01  0.32650706637E+01 -0.22105927945E+02  0.22471984100E+02  0.51100000000E-03 0.  1.
         12    1    4    4    0    0  0.14743990305E+01 -0.25841342942E+00 -0.70070840259E+01  0.71651836367E+01  0.00000000000E+00 0. -1.
</event>
<event>
 8    1  0.2882335E-009  0.9118800E+02  0.7816164E-02  0.1184000E+00
        -11   -1    0    0    0    0  0.00000000000E+00  0.00000000000E+00  0.45593999997E+02  0.45594000000E+02  0.51100000000E-03 0. -1.
         11   -1    0    0    0    0 -0.00000000000E+00 -0.00000000000E+00 -0.45593999997E+02  0.45594000000E+02  0.51100000000E-03 0.  1.
         23    2    1    2    0    0 -0.17763568394E-14  0.00000000000E+00  0.71054273576E-14  0.91188000000E+02  0.91188000000E+02 0.  0.
    9900012    2    3    3    0    0  0.83739711841E+01  0.42802545663E+01 -0.44053029462E+02  0.46142318993E+02  0.10000011235E+02 0.  0.
         12    1    3    3    0    0 -0.83739711841E+01 -0.42802545663E+01  0.44053029462E+02  0.45045681007E+02  0.00000000000E+00 0. -1.
         11    1    4    4    0    0  0.41086676513E-01  0.39861146796E+01 -0.12737625318E+02  0.13346830986E+02  0.51100000000E-03 0. -1.
        -11    1    4    4    0    0  0.62487988849E+01  0.11283208554E+01 -0.28478628987E+02  0.29177952373E+02  0.51100000000E-03 0.  1.
         12    1    4    4    0    0  0.20840856228E+01 -0.83418096871E+00 -0.28367751572E+01  0.36175356341E+01  0.00000000000E+00 0. -1.
</event>
<event>
 8    1  0.2882335E-009  0.9118800E+02  0.7816164E-02  0.1184000E+00
        -11   -1    0    0    0    0  0.00000000000E+00  0.00000000000E+00  0.45593999997E+02  0.45594000000E+02  0.51100000000E-03 0.  1.
         11   -1    0    0    0    0 -0.00000000000E+00 -0.00000000000E+00 -0.45593999997E+02  0.45594000000E+02  0.51100000000E-03 0. -1.
         23    2    1    2    0    0  0.00000000000E+00  0.00000000000E+00  0.00000000000E+00  0.91188000000E+02  0.91188000000E+02 0.  0.
    9900012    2    3    3    0    0 -0.38632928879E+02  0.12346632622E+02 -0.19600277337E+02  0.46142318714E+02  0.10000008690E+02 0.  0.
         12    1    3    3    0    0  0.38632928879E+02 -0.12346632622E+02  0.19600277337E+02  0.45045681286E+02  0.00000000000E+00 0. -1.
         11    1    4    4    0    0 -0.11502152265E+02  0.31654474778E+01 -0.75610181600E+01  0.14124041926E+02  0.51100000000E-03 0. -1.
        -11    1    4    4    0    0 -0.76079896269E+01  0.61578617731E+01 -0.53902377564E+01  0.11173872700E+02  0.51100000000E-03 0.  1.
        -12    1    4    4    0    0 -0.19522786987E+02  0.30233233707E+01 -0.66490214205E+01  0.20844404088E+02  0.00000000000E+00 0.  1.
</event>
<event>
 8    1  0.2882335E-009  0.9118800E+02  0.7816164E-02  0.1184000E+00
        -11   -1    0    0    0    0  0.00000000000E+00  0.00000000000E+00  0.45593999997E+02  0.45594000000E+02  0.51100000000E-03 0. -1.
         11   -1    0    0    0    0 -0.00000000000E+00 -0.00000000000E+00 -0.45593999997E+02  0.45594000000E+02  0.51100000000E-03 0.  1.
         23    2    1    2    0    0  0.00000000000E+00  0.88817841970E-15  0.00000000000E+00  0.91188000000E+02  0.91188000000E+02 0.  0.
    9900012    2    3    3    0    0  0.85845332675E+01 -0.47382746968E+01 -0.43965530797E+02  0.46142319222E+02  0.10000013317E+02 0.  0.
         12    1    3    3    0    0 -0.85845332675E+01  0.47382746968E+01  0.43965530797E+02  0.45045680778E+02  0.00000000000E+00 0. -1.
         11    1    4    4    0    0  0.18563085493E+01 -0.34967578491E+01 -0.15127822886E+02  0.15637270300E+02  0.51100000000E-03 0. -1.
        -11    1    4    4    0    0  0.82416867258E+01 -0.15042386479E+01 -0.25206540283E+02  0.26562338137E+02  0.51100000000E-03 0.  1.
         12    1    4    4    0    0 -0.15134620076E+01  0.26272180016E+00 -0.36311676279E+01  0.39427107851E+01  0.00000000000E+00 0. -1.
</event>
<event>
 8    1  0.2882335E-009  0.9118800E+02  0.7816164E-02  0.1184000E+00
        -11   -1    0    0    0    0  0.00000000000E+00  0.00000000000E+00  0.45593999997E+02  0.45594000000E+02  0.51100000000E-03 0. -1.
         11   -1    0    0    0    0 -0.00000000000E+00 -0.00000000000E+00 -0.45593999997E+02  0.45594000000E+02  0.51100000000E-03 0.  1.
         23    2    1    2    0    0 -0.35527136788E-14  0.17763568394E-14 -0.71054273576E-14  0.91188000000E+02  0.91188000000E+02 0.  0.
    9900012    2    3    3    0    0 -0.28228543005E+02  0.12882604673E+02 -0.32654269978E+02  0.46142317730E+02  0.99999997178E+01 0.  0.
         12    1    3    3    0    0  0.28228543005E+02 -0.12882604673E+02  0.32654269978E+02  0.45045682270E+02  0.00000000000E+00 0. -1.
         11    1    4    4    0    0 -0.14882717658E+02  0.10077272391E+02 -0.13773895748E+02  0.22644357091E+02  0.51100000000E-03 0. -1.
        -11    1    4    4    0    0 -0.11219564680E+02  0.15479866894E+01 -0.13829540812E+02  0.17875432687E+02  0.51100000000E-03 0.  1.
         12    1    4    4    0    0 -0.21262606677E+01  0.12573455932E+01 -0.50508334172E+01  0.56225279525E+01  0.00000000000E+00 0. -1.
</event>
<event>
 8    1  0.2882335E-009  0.9118800E+02  0.7816164E-02  0.1184000E+00
        -11   -1    0    0    0    0  0.00000000000E+00  0.00000000000E+00  0.45593999997E+02  0.45594000000E+02  0.51100000000E-03 0. -1.
         11   -1    0    0    0    0 -0.00000000000E+00 -0.00000000000E+00 -0.45593999997E+02  0.45594000000E+02  0.51100000000E-03 0.  1.
         23    2    1    2    0    0  0.88817841970E-15  0.88817841970E-15  0.00000000000E+00  0.91188000000E+02  0.91188000000E+02 0.  0.
    9900012    2    3    3    0    0 -0.43694350137E+01 -0.40249048954E+01  0.44652230515E+02  0.46142317502E+02  0.99999976362E+01 0.  0.
        -12    1    3    3    0    0  0.43694350137E+01  0.40249048954E+01 -0.44652230515E+02  0.45045682498E+02  0.00000000000E+00 0.  1.
         11    1    4    4    0    0 -0.42131292327E+01 -0.18931115321E+01  0.11043718298E+02  0.11970716073E+02  0.51100000000E-03 0. -1.
        -11    1    4    4    0    0 -0.11732946127E+01 -0.32891442440E+01  0.30530044066E+02  0.30729117804E+02  0.51100000000E-03 0.  1.
        -12    1    4    4    0    0  0.10169888317E+01  0.11573508807E+01  0.30784681516E+01  0.34424836245E+01  0.00000000000E+00 0.  1.
</event>
<event>
 8    1  0.2882335E-009  0.9118800E+02  0.7816164E-02  0.1184000E+00
        -11   -1    0    0    0    0  0.00000000000E+00  0.00000000000E+00  0.45593999997E+02  0.45594000000E+02  0.51100000000E-03 0. -1.
         11   -1    0    0    0    0 -0.00000000000E+00 -0.00000000000E+00 -0.45593999997E+02  0.45594000000E+02  0.51100000000E-03 0.  1.
         23    2    1    2    0    0  0.17763568394E-14  0.71054273576E-14  0.00000000000E+00  0.91188000000E+02  0.91188000000E+02 0.  0.
    9900012    2    3    3    0    0 -0.91613576523E+01 -0.25543150055E+02 -0.35954561493E+02  0.46142317844E+02  0.10000000754E+02 0.  0.
         12    1    3    3    0    0  0.91613576523E+01  0.25543150055E+02  0.35954561493E+02  0.45045682156E+02  0.00000000000E+00 0. -1.
         11    1    4    4    0    0  0.14377545628E+01 -0.91927479206E+01 -0.12520256911E+02  0.15599057211E+02  0.51100000000E-03 0. -1.
        -11    1    4    4    0    0 -0.68741392038E+01 -0.95640874032E+01 -0.12867477750E+02  0.17444126276E+02  0.51100000000E-03 0.  1.
         12    1    4    4    0    0 -0.37249730113E+01 -0.67863147315E+01 -0.10566826832E+02  0.13099134356E+02  0.00000000000E+00 0. -1.
</event>
<event>
 8    1  0.2882335E-009  0.9118800E+02  0.7816164E-02  0.1184000E+00
        -11   -1    0    0    0    0  0.00000000000E+00  0.00000000000E+00  0.45593999997E+02  0.45594000000E+02  0.51100000000E-03 0. -1.
         11   -1    0    0    0    0 -0.00000000000E+00 -0.00000000000E+00 -0.45593999997E+02  0.45594000000E+02  0.51100000000E-03 0.  1.
         23    2    1    2    0    0  0.00000000000E+00  0.00000000000E+00  0.00000000000E+00  0.91188000000E+02  0.91188000000E+02 0.  0.
    9900012    2    3    3    0    0 -0.25621756498E+02  0.12377083013E+02  0.34920582920E+02  0.46142315396E+02  0.99999784329E+01 0.  0.
        -12    1    3    3    0    0  0.25621756498E+02 -0.12377083013E+02 -0.34920582920E+02  0.45045684604E+02  0.00000000000E+00 0.  1.
         11    1    4    4    0    0 -0.33203802349E+01 -0.13689532996E+01  0.37543300253E+01  0.51955704442E+01  0.51100000000E-03 0. -1.
        -11    1    4    4    0    0 -0.10238020472E+02  0.88691748414E+01  0.15973373499E+02  0.20943447346E+02  0.51100000000E-03 0.  1.
         12    1    4    4    0    0 -0.12063355791E+02  0.48768614717E+01  0.15192879396E+02  0.20003297606E+02  0.00000000000E+00 0. -1.
</event>
<event>
 8    1  0.2882335E-009  0.9118800E+02  0.7816164E-02  0.1184000E+00
        -11   -1    0    0    0    0  0.00000000000E+00  0.00000000000E+00  0.45593999997E+02  0.45594000000E+02  0.51100000000E-03 0. -1.
         11   -1    0    0    0    0 -0.00000000000E+00 -0.00000000000E+00 -0.45593999997E+02  0.45594000000E+02  0.51100000000E-03 0.  1.
         23    2    1    2    0    0  0.00000000000E+00 -0.88817841970E-15  0.71054273576E-14  0.91188000000E+02  0.91188000000E+02 0.  0.
    9900012    2    3    3    0    0 -0.23378437439E+02  0.62832293756E+01 -0.37987936348E+02  0.46142316339E+02  0.99999870335E+01 0.  0.
         12    1    3    3    0    0  0.23378437439E+02 -0.62832293756E+01  0.37987936348E+02  0.45045683661E+02  0.00000000000E+00 0. -1.
         11    1    4    4    0    0 -0.14770326750E+02  0.30446598426E+01 -0.18105059143E+02  0.23563227128E+02  0.51100000000E-03 0. -1.
        -11    1    4    4    0    0  0.37940021705E+00  0.13958141868E+01 -0.18676661365E+01  0.23622910124E+01  0.51100000000E-03 0.  1.
        -12    1    4    4    0    0 -0.89875109060E+01  0.18427553462E+01 -0.18015211069E+02  0.20216798199E+02  0.00000000000E+00 0.  1.
</event>
<event>
 8    1  0.2882335E-009  0.9118800E+02  0.7816164E-02  0.1184000E+00
        -11   -1    0    0    0    0  0.00000000000E+00  0.00000000000E+00  0.45593999997E+02  0.45594000000E+02  0.51100000000E-03 0. -1.
         11   -1    0    0    0    0 -0.00000000000E+00 -0.00000000000E+00 -0.45593999997E+02  0.45594000000E+02  0.51100000000E-03 0.  1.
         23    2    1    2    0    0  0.00000000000E+00 -0.17763568394E-14  0.71054273576E-14  0.91188000000E+02  0.91188000000E+02 0.  0.
    9900012    2    3    3    0    0  0.27128866680E+02  0.98909749141E+01 -0.34573207821E+02  0.46142317731E+02  0.99999997210E+01 0.  0.
         12    1    3    3    0    0 -0.27128866680E+02 -0.98909749141E+01  0.34573207821E+02  0.45045682269E+02  0.00000000000E+00 0. -1.
         11    1    4    4    0    0  0.12234789243E+01 -0.17598786577E+00 -0.27604680512E+00  0.12665206302E+01  0.51100000000E-03 0. -1.
        -11    1    4    4    0    0  0.22289746147E+02  0.72033113459E+01 -0.32174526703E+02  0.39798500555E+02  0.51100000000E-03 0.  1.
         12    1    4    4    0    0  0.36156416088E+01  0.28636514340E+01 -0.21226343129E+01  0.50772965449E+01  0.00000000000E+00 0. -1.
</event>
<event>
 8    1  0.2882335E-009  0.9118800E+02  0.7816164E-02  0.1184000E+00
        -11   -1    0    0    0    0  0.00000000000E+00  0.00000000000E+00  0.45593999997E+02  0.45594000000E+02  0.51100000000E-03 0.  1.
         11   -1    0    0    0    0 -0.00000000000E+00 -0.00000000000E+00 -0.45593999997E+02  0.45594000000E+02  0.51100000000E-03 0. -1.
         23    2    1    2    0    0  0.00000000000E+00  0.00000000000E+00 -0.27755575616E-16  0.91188000000E+02  0.91188000000E+02 0.  0.
    9900012    2    3    3    0    0 -0.39578438375E+02  0.21509019387E+02  0.15098633257E+00  0.46142317675E+02  0.99999992161E+01 0.  0.
        -12    1    3    3    0    0  0.39578438375E+02 -0.21509019387E+02 -0.15098633257E+00  0.45045682325E+02  0.00000000000E+00 0.  1.
         11    1    4    4    0    0 -0.47844628175E+01 -0.12897616762E+00  0.13979517039E+00  0.47882420840E+01  0.51100000000E-03 0. -1.
        -11    1    4    4    0    0 -0.97469430702E+00 -0.30368890180E+00  0.19888276503E+00  0.10401012242E+01  0.51100000000E-03 0.  1.
         12    1    4    4    0    0 -0.33819281251E+02  0.21941684457E+02 -0.18769160285E+00  0.40313974367E+02  0.00000000000E+00 0. -1.
</event>
<event>
 8    1  0.2882335E-009  0.9118800E+02  0.7816164E-02  0.1184000E+00
        -11   -1    0    0    0    0  0.00000000000E+00  0.00000000000E+00  0.45593999997E+02  0.45594000000E+02  0.51100000000E-03 0. -1.
         11   -1    0    0    0    0 -0.00000000000E+00 -0.00000000000E+00 -0.45593999997E+02  0.45594000000E+02  0.51100000000E-03 0.  1.
         23    2    1    2    0    0  0.00000000000E+00 -0.17763568394E-14  0.00000000000E+00  0.91188000000E+02  0.91188000000E+02 0.  0.
    9900012    2    3    3    0    0 -0.20809474738E+02  0.98228256981E+01 -0.38724557909E+02  0.46142317312E+02  0.99999959058E+01 0.  0.
         12    1    3    3    0    0  0.20809474738E+02 -0.98228256981E+01  0.38724557909E+02  0.45045682688E+02  0.00000000000E+00 0. -1.
         11    1    4    4    0    0 -0.28715880185E+00  0.32904085528E+00 -0.50383458999E+01  0.50572381524E+01  0.51100000000E-03 0. -1.
        -11    1    4    4    0    0  0.34404515145E+00  0.42733521493E-01  0.18955188557E-02  0.34669449694E+00  0.51100000000E-03 0.  1.
        -12    1    4    4    0    0 -0.20866361087E+02  0.94510513214E+01 -0.33688107528E+02  0.40738384663E+02  0.00000000000E+00 0.  1.
</event>
<event>
 8    1  0.2882335E-009  0.9118800E+02  0.7816164E-02  0.1184000E+00
        -11   -1    0    0    0    0  0.00000000000E+00  0.00000000000E+00  0.45593999997E+02  0.45594000000E+02  0.51100000000E-03 0. -1.
         11   -1    0    0    0    0 -0.00000000000E+00 -0.00000000000E+00 -0.45593999997E+02  0.45594000000E+02  0.51100000000E-03 0.  1.
         23    2    1    2    0    0 -0.35527136788E-14  0.88817841970E-15  0.00000000000E+00  0.91188000000E+02  0.91188000000E+02 0.  0.
    9900012    2    3    3    0    0 -0.26144991463E+02  0.71949893230E+01 -0.35969224317E+02  0.46142317100E+02  0.99999939703E+01 0.  0.
         12    1    3    3    0    0  0.26144991463E+02 -0.71949893230E+01  0.35969224317E+02  0.45045682900E+02  0.00000000000E+00 0. -1.
         11    1    4    4    0    0 -0.44330568858E+01  0.51921681131E+00 -0.12027905587E+02  0.12829344976E+02  0.51100000000E-03 0. -1.
        -11    1    4    4    0    0 -0.19972184624E+02  0.72236126621E+01 -0.22809578479E+02  0.31166417972E+02  0.51100000000E-03 0.  1.
         12    1    4    4    0    0 -0.17397499534E+01 -0.54784015040E+00 -0.11317402514E+01  0.21465541520E+01  0.00000000000E+00 0. -1.
</event>
<event>
 8    1  0.2882335E-009  0.9118800E+02  0.7816164E-02  0.1184000E+00
        -11   -1    0    0    0    0  0.00000000000E+00  0.00000000000E+00  0.45593999997E+02  0.45594000000E+02  0.51100000000E-03 0. -1.
         11   -1    0    0    0    0 -0.00000000000E+00 -0.00000000000E+00 -0.45593999997E+02  0.45594000000E+02  0.51100000000E-03 0.  1.
         23    2    1    2    0    0 -0.44408920985E-15  0.00000000000E+00  0.71054273576E-14  0.91188000000E+02  0.91188000000E+02 0.  0.
    9900012    2    3    3    0    0 -0.24185695582E+01 -0.17671953062E+02  0.41363825956E+02  0.46142317616E+02  0.99999986727E+01 0.  0.
        -12    1    3    3    0    0  0.24185695582E+01  0.17671953062E+02 -0.41363825956E+02  0.45045682384E+02  0.00000000000E+00 0.  1.
         11    1    4    4    0    0  0.17562781402E+01 -0.14315434796E-02  0.71328233261E+01  0.73458616797E+01  0.51100000000E-03 0. -1.
        -11    1    4    4    0    0 -0.20278041961E+01 -0.10948937366E+02  0.19293948027E+02  0.22276616664E+02  0.51100000000E-03 0.  1.
         12    1    4    4    0    0 -0.21470435024E+01 -0.67215841527E+01  0.14937054604E+02  0.16519839272E+02  0.00000000000E+00 0. -1.
</event>
<event>
 8    1  0.2882335E-009  0.9118800E+02  0.7816164E-02  0.1184000E+00
        -11   -1    0    0    0    0  0.00000000000E+00  0.00000000000E+00  0.45593999997E+02  0.45594000000E+02  0.51100000000E-03 0. -1.
         11   -1    0    0    0    0 -0.00000000000E+00 -0.00000000000E+00 -0.45593999997E+02  0.45594000000E+02  0.51100000000E-03 0.  1.
         23    2    1    2    0    0  0.00000000000E+00  0.35527136788E-14  0.71054273576E-14  0.91188000000E+02  0.91188000000E+02 0.  0.
    9900012    2    3    3    0    0 -0.18665785879E+02 -0.17462934738E+02 -0.37091074884E+02  0.46142317763E+02  0.10000000014E+02 0.  0.
         12    1    3    3    0    0  0.18665785879E+02  0.17462934738E+02  0.37091074884E+02  0.45045682237E+02  0.00000000000E+00 0. -1.
         11    1    4    4    0    0 -0.30460884632E+01 -0.84264300210E+01 -0.15489458131E+02  0.17894320084E+02  0.51100000000E-03 0. -1.
        -11    1    4    4    0    0 -0.95417029139E+01 -0.41680358534E+01 -0.12129871166E+02  0.15985943580E+02  0.51100000000E-03 0.  1.
         12    1    4    4    0    0 -0.60779945024E+01 -0.48684688639E+01 -0.94717455869E+01  0.12262054098E+02  0.00000000000E+00 0. -1.
</event>
<event>
 8    1  0.2882335E-009  0.9118800E+02  0.7816164E-02  0.1184000E+00
        -11   -1    0    0    0    0  0.00000000000E+00  0.00000000000E+00  0.45593999997E+02  0.45594000000E+02  0.51100000000E-03 0.  1.
         11   -1    0    0    0    0 -0.00000000000E+00 -0.00000000000E+00 -0.45593999997E+02  0.45594000000E+02  0.51100000000E-03 0. -1.
         23    2    1    2    0    0  0.00000000000E+00  0.00000000000E+00 -0.35527136788E-14  0.91188000000E+02  0.91188000000E+02 0.  0.
    9900012    2    3    3    0    0 -0.26555339761E+02  0.24341034350E+02 -0.27045174898E+02  0.46142317540E+02  0.99999979848E+01 0.  0.
         12    1    3    3    0    0  0.26555339761E+02 -0.24341034350E+02  0.27045174898E+02  0.45045682460E+02  0.00000000000E+00 0. -1.
         11    1    4    4    0    0 -0.38419452826E+01  0.48300391065E+00 -0.16205564606E+01  0.41976231174E+01  0.51100000000E-03 0. -1.
        -11    1    4    4    0    0 -0.15726594198E+02  0.14018422596E+02 -0.18462243028E+02  0.28012432151E+02  0.51100000000E-03 0.  1.
         12    1    4    4    0    0 -0.69868002801E+01  0.98396078429E+01 -0.69623754093E+01  0.13932262271E+02  0.00000000000E+00 0. -1.
</event>
<event>
 8    1  0.2882335E-009  0.9118800E+02  0.7816164E-02  0.1184000E+00
        -11   -1    0    0    0    0  0.00000000000E+00  0.00000000000E+00  0.45593999997E+02  0.45594000000E+02  0.51100000000E-03 0. -1.
         11   -1    0    0    0    0 -0.00000000000E+00 -0.00000000000E+00 -0.45593999997E+02  0.45594000000E+02  0.51100000000E-03 0.  1.
         23    2    1    2    0    0 -0.35527136788E-14  0.00000000000E+00  0.00000000000E+00  0.91188000000E+02  0.91188000000E+02 0.  0.
    9900012    2    3    3    0    0  0.14360341749E+02  0.32460824027E+02  0.27734258081E+02  0.46142316711E+02  0.99999904273E+01 0.  0.
        -12    1    3    3    0    0 -0.14360341749E+02 -0.32460824027E+02 -0.27734258081E+02  0.45045683289E+02  0.00000000000E+00 0.  1.
         11    1    4    4    0    0  0.85127079848E+01  0.17402048001E+02  0.94276481073E+01  0.21544791040E+02  0.51100000000E-03 0. -1.
        -11    1    4    4    0    0  0.28410891752E+01  0.60910843508E+01  0.97567316349E+01  0.11847654145E+02  0.51100000000E-03 0.  1.
        -12    1    4    4    0    0  0.30065445885E+01  0.89676916751E+01  0.85498783389E+01  0.12749871527E+02  0.00000000000E+00 0.  1.
</event>
<event>
 8    1  0.2882335E-009  0.9118800E+02  0.7816164E-02  0.1184000E+00
        -11   -1    0    0    0    0  0.00000000000E+00  0.00000000000E+00  0.45593999997E+02  0.45594000000E+02  0.51100000000E-03 0.  1.
         11   -1    0    0    0    0 -0.00000000000E+00 -0.00000000000E+00 -0.45593999997E+02  0.45594000000E+02  0.51100000000E-03 0. -1.
         23    2    1    2    0    0  0.00000000000E+00  0.00000000000E+00  0.00000000000E+00  0.91188000000E+02  0.91188000000E+02 0.  0.
    9900012    2    3    3    0    0  0.25170747387E+02  0.25196092464E+02 -0.27580861104E+02  0.46142317646E+02  0.99999989533E+01 0.  0.
         12    1    3    3    0    0 -0.25170747387E+02 -0.25196092464E+02  0.27580861104E+02  0.45045682354E+02  0.00000000000E+00 0. -1.
         11    1    4    4    0    0  0.21281294884E+01 -0.39145875696E+00 -0.63170610973E+00  0.22541579244E+01  0.51100000000E-03 0. -1.
        -11    1    4    4    0    0  0.10297965192E+02  0.93322006659E+01 -0.93317553072E+01  0.16739764447E+02  0.51100000000E-03 0.  1.
        -12    1    4    4    0    0  0.12744652707E+02  0.16255350555E+02 -0.17617399687E+02  0.27148395275E+02  0.00000000000E+00 0.  1.
</event>
<event>
 8    1  0.2882335E-009  0.9118800E+02  0.7816164E-02  0.1184000E+00
        -11   -1    0    0    0    0  0.00000000000E+00  0.00000000000E+00  0.45593999997E+02  0.45594000000E+02  0.51100000000E-03 0. -1.
         11   -1    0    0    0    0 -0.00000000000E+00 -0.00000000000E+00 -0.45593999997E+02  0.45594000000E+02  0.51100000000E-03 0.  1.
         23    2    1    2    0    0  0.44408920985E-15 -0.35527136788E-14  0.00000000000E+00  0.91188000000E+02  0.91188000000E+02 0.  0.
    9900012    2    3    3    0    0 -0.39446768382E+01 -0.26951103388E+02 -0.35877444083E+02  0.46142318264E+02  0.10000004582E+02 0.  0.
         12    1    3    3    0    0  0.39446768382E+01  0.26951103388E+02  0.35877444083E+02  0.45045681736E+02  0.00000000000E+00 0. -1.
         11    1    4    4    0    0  0.47091731148E+00 -0.35698548214E+01 -0.78865783467E+01  0.86697026962E+01  0.51100000000E-03 0. -1.
        -11    1    4    4    0    0 -0.29199022629E+01 -0.23841023004E+01 -0.54964629438E+01  0.66648989608E+01  0.51100000000E-03 0.  1.
         12    1    4    4    0    0 -0.14956918868E+01 -0.20997146266E+02 -0.22494402792E+02  0.30807716607E+02  0.00000000000E+00 0. -1.
</event>
<event>
 8    1  0.2882335E-009  0.9118800E+02  0.7816164E-02  0.1184000E+00
        -11   -1    0    0    0    0  0.00000000000E+00  0.00000000000E+00  0.45593999997E+02  0.45594000000E+02  0.51100000000E-03 0. -1.
         11   -1    0    0    0    0 -0.00000000000E+00 -0.00000000000E+00 -0.45593999997E+02  0.45594000000E+02  0.51100000000E-03 0.  1.
         23    2    1    2    0    0  0.00000000000E+00  0.00000000000E+00  0.00000000000E+00  0.91188000000E+02  0.91188000000E+02 0.  0.
    9900012    2    3    3    0    0 -0.18990975805E+02 -0.10011279879E+02 -0.39600889045E+02  0.46142319852E+02  0.10000019064E+02 0.  0.
         12    1    3    3    0    0  0.18990975805E+02  0.10011279879E+02  0.39600889045E+02  0.45045680148E+02  0.00000000000E+00 0. -1.
         11    1    4    4    0    0 -0.20571700511E+01 -0.28690292010E+01 -0.29770860056E+01  0.46180427154E+01  0.51100000000E-03 0. -1.
        -11    1    4    4    0    0 -0.37267548685E+01  0.10846363625E+01 -0.55514668931E+01  0.67737672542E+01  0.51100000000E-03 0.  1.
        -12    1    4    4    0    0 -0.13207050886E+02 -0.82268870407E+01 -0.31072336146E+02  0.34750509882E+02  0.00000000000E+00 0.  1.
</event>
<event>
 8    1  0.2882335E-009  0.9118800E+02  0.7816164E-02  0.1184000E+00
        -11   -1    0    0    0    0  0.00000000000E+00  0.00000000000E+00  0.45593999997E+02  0.45594000000E+02  0.51100000000E-03 0. -1.
         11   -1    0    0    0    0 -0.00000000000E+00 -0.00000000000E+00 -0.45593999997E+02  0.45594000000E+02  0.51100000000E-03 0.  1.
         23    2    1    2    0    0  0.00000000000E+00  0.35527136788E-14  0.71054273576E-14  0.91188000000E+02  0.91188000000E+02 0.  0.
    9900012    2    3    3    0    0  0.11652271574E+02 -0.24507290573E+02  0.35954567562E+02  0.46142315938E+02  0.99999833716E+01 0.  0.
        -12    1    3    3    0    0 -0.11652271574E+02  0.24507290573E+02 -0.35954567562E+02  0.45045684062E+02  0.00000000000E+00 0.  1.
         11    1    4    4    0    0  0.31662946942E+01 -0.12936596681E+02  0.13125281024E+02  0.18699036285E+02  0.51100000000E-03 0. -1.
        -11    1    4    4    0    0  0.41281812308E+01 -0.50246031546E+01  0.14988181220E+02  0.16338117814E+02  0.51100000000E-03 0.  1.
        -12    1    4    4    0    0  0.43577956488E+01 -0.65460907377E+01  0.78411053181E+01  0.11105161839E+02  0.00000000000E+00 0.  1.
</event>
<event>
 8    1  0.2882335E-009  0.9118800E+02  0.7816164E-02  0.1184000E+00
        -11   -1    0    0    0    0  0.00000000000E+00  0.00000000000E+00  0.45593999997E+02  0.45594000000E+02  0.51100000000E-03 0.  1.
         11   -1    0    0    0    0 -0.00000000000E+00 -0.00000000000E+00 -0.45593999997E+02  0.45594000000E+02  0.51100000000E-03 0. -1.
         23    2    1    2    0    0  0.00000000000E+00  0.00000000000E+00  0.44408920985E-15  0.91188000000E+02  0.91188000000E+02 0.  0.
    9900012    2    3    3    0    0 -0.11753966059E+02 -0.43426837545E+02 -0.22510812925E+01  0.46142319805E+02  0.10000018639E+02 0.  0.
         12    1    3    3    0    0  0.11753966059E+02  0.43426837545E+02  0.22510812925E+01  0.45045680195E+02  0.00000000000E+00 0. -1.
         11    1    4    4    0    0  0.10192031111E+01 -0.11644892478E+02  0.36365489774E+00  0.11695064812E+02  0.51100000000E-03 0. -1.
        -11    1    4    4    0    0 -0.42504093111E+01 -0.11770103444E+02 -0.21071791091E+01  0.12690213491E+02  0.51100000000E-03 0.  1.
         12    1    4    4    0    0 -0.85227598588E+01 -0.20011841622E+02 -0.50755708111E+00  0.21757041502E+02  0.00000000000E+00 0. -1.
</event>
<event>
 8    1  0.2882335E-009  0.9118800E+02  0.7816164E-02  0.1184000E+00
        -11   -1    0    0    0    0  0.00000000000E+00  0.00000000000E+00  0.45593999997E+02  0.45594000000E+02  0.51100000000E-03 0.  1.
         11   -1    0    0    0    0 -0.00000000000E+00 -0.00000000000E+00 -0.45593999997E+02  0.45594000000E+02  0.51100000000E-03 0. -1.
         23    2    1    2    0    0  0.00000000000E+00  0.00000000000E+00  0.00000000000E+00  0.91188000000E+02  0.91188000000E+02 0.  0.
    9900012    2    3    3    0    0  0.30549956255E+02 -0.25636743787E+01 -0.33003659330E+02  0.46142314495E+02  0.99999702146E+01 0.  0.
         12    1    3    3    0    0 -0.30549956255E+02  0.25636743787E+01  0.33003659330E+02  0.45045685505E+02  0.00000000000E+00 0. -1.
         11    1    4    4    0    0  0.18872698301E+01  0.73788890143E+00 -0.47972734906E+01  0.52076962899E+01  0.51100000000E-03 0. -1.
        -11    1    4    4    0    0  0.15642019311E+02 -0.36494603222E+00 -0.10854018629E+02  0.19042470281E+02  0.51100000000E-03 0.  1.
         12    1    4    4    0    0  0.13020667114E+02 -0.29366172479E+01 -0.17352367210E+02  0.21892147924E+02  0.00000000000E+00 0. -1.
</event>
<event>
 8    1  0.2882335E-009  0.9118800E+02  0.7816164E-02  0.1184000E+00
        -11   -1    0    0    0    0  0.00000000000E+00  0.00000000000E+00  0.45593999997E+02  0.45594000000E+02  0.51100000000E-03 0.  1.
         11   -1    0    0    0    0 -0.00000000000E+00 -0.00000000000E+00 -0.45593999997E+02  0.45594000000E+02  0.51100000000E-03 0. -1.
         23    2    1    2    0    0 -0.71054273576E-14 -0.33306690739E-15  0.17763568394E-14  0.91188000000E+02  0.91188000000E+02 0.  0.
    9900012    2    3    3    0    0  0.44143457247E+02  0.95212824433E+00 -0.89197623411E+01  0.46142317342E+02  0.99999961813E+01 0.  0.
         12    1    3    3    0    0 -0.44143457247E+02 -0.95212824433E+00  0.89197623411E+01  0.45045682658E+02  0.00000000000E+00 0. -1.
         11    1    4    4    0    0  0.43798000341E+01 -0.12571811686E+01 -0.56530542247E+00  0.45915926769E+01  0.51100000000E-03 0. -1.
        -11    1    4    4    0    0  0.31532570261E+02 -0.16821635489E+01 -0.59379023379E+01  0.32130847264E+02  0.51100000000E-03 0.  1.
        -12    1    4    4    0    0  0.82310869517E+01  0.38914729618E+01 -0.24165545808E+01  0.94198774016E+01  0.00000000000E+00 0.  1.
</event>
<event>
 8    1  0.2882335E-009  0.9118800E+02  0.7816164E-02  0.1184000E+00
        -11   -1    0    0    0    0  0.00000000000E+00  0.00000000000E+00  0.45593999997E+02  0.45594000000E+02  0.51100000000E-03 0. -1.
         11   -1    0    0    0    0 -0.00000000000E+00 -0.00000000000E+00 -0.45593999997E+02  0.45594000000E+02  0.51100000000E-03 0.  1.
         23    2    1    2    0    0  0.00000000000E+00  0.00000000000E+00  0.00000000000E+00  0.91188000000E+02  0.91188000000E+02 0.  0.
    9900012    2    3    3    0    0 -0.10114259752E+02  0.23190167737E+02 -0.37269711764E+02  0.46142317133E+02  0.99999942681E+01 0.  0.
         12    1    3    3    0    0  0.10114259752E+02 -0.23190167737E+02  0.37269711764E+02  0.45045682867E+02  0.00000000000E+00 0. -1.
         11    1    4    4    0    0 -0.46159550120E+01  0.15313456796E+02 -0.27163708083E+02  0.31522627378E+02  0.51100000000E-03 0.  1.
        -11    1    4    4    0    0  0.11708198471E+00 -0.47458187812E+00 -0.62458860809E+00  0.79312504730E+00  0.51100000000E-03 0. -1.
         12    1    4    4    0    0 -0.56153867250E+01  0.83512928188E+01 -0.94814150730E+01  0.13826564707E+02  0.00000000000E+00 0. -1.
</event>
<event>
 8    1  0.2882335E-009  0.9118800E+02  0.7816164E-02  0.1184000E+00
        -11   -1    0    0    0    0  0.00000000000E+00  0.00000000000E+00  0.45593999997E+02  0.45594000000E+02  0.51100000000E-03 0. -1.
         11   -1    0    0    0    0 -0.00000000000E+00 -0.00000000000E+00 -0.45593999997E+02  0.45594000000E+02  0.51100000000E-03 0.  1.
         23    2    1    2    0    0  0.00000000000E+00  0.00000000000E+00  0.00000000000E+00  0.91188000000E+02  0.91188000000E+02 0.  0.
    9900012    2    3    3    0    0 -0.25536592380E+02 -0.28047179776E+02 -0.24297154850E+02  0.46142316770E+02  0.99999909663E+01 0.  0.
         12    1    3    3    0    0  0.25536592380E+02  0.28047179776E+02  0.24297154850E+02  0.45045683230E+02  0.00000000000E+00 0. -1.
         11    1    4    4    0    0 -0.24806879791E+01 -0.55613799897E+01 -0.30288071900E+01  0.68012082379E+01  0.51100000000E-03 0. -1.
        -11    1    4    4    0    0 -0.99697106367E+01 -0.10052610093E+02 -0.13910645918E+02  0.19848329148E+02  0.51100000000E-03 0.  1.
        -12    1    4    4    0    0 -0.13086193764E+02 -0.12433189694E+02 -0.73577017425E+01  0.19492779385E+02  0.00000000000E+00 0.  1.
</event>
<event>
 8    1  0.2882335E-009  0.9118800E+02  0.7816164E-02  0.1184000E+00
        -11   -1    0    0    0    0  0.00000000000E+00  0.00000000000E+00  0.45593999997E+02  0.45594000000E+02  0.51100000000E-03 0. -1.
         11   -1    0    0    0    0 -0.00000000000E+00 -0.00000000000E+00 -0.45593999997E+02  0.45594000000E+02  0.51100000000E-03 0.  1.
         23    2    1    2    0    0  0.00000000000E+00  0.00000000000E+00  0.00000000000E+00  0.91188000000E+02  0.91188000000E+02 0.  0.
    9900012    2    3    3    0    0  0.11846940013E+02  0.38138651373E+02 -0.20837627752E+02  0.46142318225E+02  0.10000004230E+02 0.  0.
         12    1    3    3    0    0 -0.11846940013E+02 -0.38138651373E+02  0.20837627752E+02  0.45045681775E+02  0.00000000000E+00 0. -1.
         11    1    4    4    0    0  0.10582954237E+01  0.64938362878E+01 -0.70284520964E+01  0.96275146361E+01  0.51100000000E-03 0. -1.
        -11    1    4    4    0    0  0.68065928075E+01  0.13219625485E+02 -0.73654110722E+01  0.16593296361E+02  0.51100000000E-03 0.  1.
         12    1    4    4    0    0  0.39820517821E+01  0.18425189601E+02 -0.64437645832E+01  0.19921507227E+02  0.00000000000E+00 0. -1.
</event>
<event>
 8    1  0.2882335E-009  0.9118800E+02  0.7816164E-02  0.1184000E+00
        -11   -1    0    0    0    0  0.00000000000E+00  0.00000000000E+00  0.45593999997E+02  0.45594000000E+02  0.51100000000E-03 0. -1.
         11   -1    0    0    0    0 -0.00000000000E+00 -0.00000000000E+00 -0.45593999997E+02  0.45594000000E+02  0.51100000000E-03 0.  1.
         23    2    1    2    0    0  0.71054273576E-14 -0.17763568394E-14  0.71054273576E-14  0.91188000000E+02  0.91188000000E+02 0.  0.
    9900012    2    3    3    0    0  0.38972008179E+02 -0.14393337584E+02  0.17410566182E+02  0.46142318707E+02  0.10000008629E+02 0.  0.
        -12    1    3    3    0    0 -0.38972008179E+02  0.14393337584E+02 -0.17410566182E+02  0.45045681293E+02  0.00000000000E+00 0.  1.
         11    1    4    4    0    0  0.27433636746E+02 -0.71767988403E+01  0.11728370330E+02  0.30686569335E+02  0.51100000000E-03 0. -1.
        -11    1    4    4    0    0  0.73224566205E+01 -0.67375438351E+01  0.50734106014E+01  0.11169259746E+02  0.51100000000E-03 0.  1.
        -12    1    4    4    0    0  0.42159148127E+01 -0.47899490826E+00  0.60878525086E+00  0.42864896257E+01  0.00000000000E+00 0.  1.
</event>
<event>
 8    1  0.2882335E-009  0.9118800E+02  0.7816164E-02  0.1184000E+00
        -11   -1    0    0    0    0  0.00000000000E+00  0.00000000000E+00  0.45593999997E+02  0.45594000000E+02  0.51100000000E-03 0. -1.
         11   -1    0    0    0    0 -0.00000000000E+00 -0.00000000000E+00 -0.45593999997E+02  0.45594000000E+02  0.51100000000E-03 0.  1.
         23    2    1    2    0    0  0.00000000000E+00 -0.35527136788E-14 -0.35527136788E-14  0.91188000000E+02  0.91188000000E+02 0.  0.
    9900012    2    3    3    0    0  0.27371394444E+02  0.20416033115E+02  0.29378667612E+02  0.46142314828E+02  0.99999732529E+01 0.  0.
        -12    1    3    3    0    0 -0.27371394444E+02 -0.20416033115E+02 -0.29378667612E+02  0.45045685172E+02  0.00000000000E+00 0.  1.
         11    1    4    4    0    0  0.20717263285E+01  0.13424174039E+01  0.32866493807E+01  0.41104986169E+01  0.51100000000E-03 0. -1.
        -11    1    4    4    0    0  0.56947279835E+01  0.16078418535E+01  0.16104336663E+01  0.61325833942E+01  0.51100000000E-03 0.  1.
        -12    1    4    4    0    0  0.19604940132E+02  0.17465773857E+02  0.24481584565E+02  0.35899232817E+02  0.00000000000E+00 0.  1.
</event>
<event>
 8    1  0.2882335E-009  0.9118800E+02  0.7816164E-02  0.1184000E+00
        -11   -1    0    0    0    0  0.00000000000E+00  0.00000000000E+00  0.45593999997E+02  0.45594000000E+02  0.51100000000E-03 0. -1.
         11   -1    0    0    0    0 -0.00000000000E+00 -0.00000000000E+00 -0.45593999997E+02  0.45594000000E+02  0.51100000000E-03 0.  1.
         23    2    1    2    0    0 -0.35527136788E-14 -0.88817841970E-15 -0.71054273576E-14  0.91188000000E+02  0.91188000000E+02 0.  0.
    9900012    2    3    3    0    0  0.18813905937E+02  0.41642437373E+01  0.40716206533E+02  0.46142318110E+02  0.10000003178E+02 0.  0.
        -12    1    3    3    0    0 -0.18813905937E+02 -0.41642437373E+01 -0.40716206533E+02  0.45045681890E+02  0.00000000000E+00 0.  1.
         11    1    4    4    0    0  0.63960420517E+01  0.86113853357E+00  0.21676874040E+02  0.22617201019E+02  0.51100000000E-03 0. -1.
        -11    1    4    4    0    0  0.29422221152E+01  0.30268297943E+01  0.45146440778E+01  0.61806456773E+01  0.51100000000E-03 0.  1.
        -12    1    4    4    0    0  0.94756417700E+01  0.27627540948E+00  0.14524688415E+02  0.17344471414E+02  0.00000000000E+00 0.  1.
</event>
<event>
 8    1  0.3944171E-009  0.9118800E+02  0.7816164E-02  0.1184000E+00
        -11   -1    0    0    0    0  0.00000000000E+00  0.00000000000E+00  0.45593999997E+02  0.45594000000E+02  0.51100000000E-03 0. -1.
         11   -1    0    0    0    0 -0.00000000000E+00 -0.00000000000E+00 -0.45593999997E+02  0.45594000000E+02  0.51100000000E-03 0.  1.
         23    2    1    2    0    0  0.00000000000E+00  0.00000000000E+00 -0.71054273576E-14  0.91188000000E+02  0.91188000000E+02 0.  0.
    9900012    2    3    3    0    0  0.17826157930E+02  0.18246303461E+02 -0.37126998186E+02  0.46142317733E+02  0.99999997470E+01 0.  0.
         12    1    3    3    0    0 -0.17826157930E+02 -0.18246303461E+02  0.37126998186E+02  0.45045682267E+02  0.00000000000E+00 0. -1.
         11    1    4    4    0    0  0.45494326313E+00  0.25522361623E+01 -0.55102683892E+01  0.60896585112E+01  0.51100000000E-03 0. -1.
        -11    1    4    4    0    0  0.15415343704E+02  0.12995927411E+02 -0.21841685971E+02  0.29725177831E+02  0.51100000000E-03 0.  1.
        -12    1    4    4    0    0  0.19558709629E+01  0.26981398881E+01 -0.97750438263E+01  0.10327481391E+02  0.00000000000E+00 0.  1.
</event>
<event>
 8    1  0.2882335E-009  0.9118800E+02  0.7816164E-02  0.1184000E+00
        -11   -1    0    0    0    0  0.00000000000E+00  0.00000000000E+00  0.45593999997E+02  0.45594000000E+02  0.51100000000E-03 0. -1.
         11   -1    0    0    0    0 -0.00000000000E+00 -0.00000000000E+00 -0.45593999997E+02  0.45594000000E+02  0.51100000000E-03 0.  1.
         23    2    1    2    0    0  0.35527136788E-14  0.00000000000E+00  0.00000000000E+00  0.91188000000E+02  0.91188000000E+02 0.  0.
    9900012    2    3    3    0    0 -0.26821443467E+02  0.33875140232E+02  0.12735716443E+02  0.46142318423E+02  0.10000006038E+02 0.  0.
        -12    1    3    3    0    0  0.26821443467E+02 -0.33875140232E+02 -0.12735716443E+02  0.45045681577E+02  0.00000000000E+00 0.  1.
         11    1    4    4    0    0 -0.50194532678E+01  0.96133860523E+01 -0.61664856234E+00  0.10862428744E+02  0.51100000000E-03 0. -1.
        -11    1    4    4    0    0 -0.11406512653E+02  0.13850529629E+02  0.72850956040E+01  0.19365389749E+02  0.51100000000E-03 0.  1.
         12    1    4    4    0    0 -0.10395477546E+02  0.10411224551E+02  0.60672694013E+01  0.15914499931E+02  0.00000000000E+00 0. -1.
</event>
<event>
 8    1  0.2882335E-009  0.9118800E+02  0.7816164E-02  0.1184000E+00
        -11   -1    0    0    0    0  0.00000000000E+00  0.00000000000E+00  0.45593999997E+02  0.45594000000E+02  0.51100000000E-03 0. -1.
         11   -1    0    0    0    0 -0.00000000000E+00 -0.00000000000E+00 -0.45593999997E+02  0.45594000000E+02  0.51100000000E-03 0.  1.
         23    2    1    2    0    0  0.00000000000E+00  0.88817841970E-15  0.00000000000E+00  0.91188000000E+02  0.91188000000E+02 0.  0.
    9900012    2    3    3    0    0  0.90572118068E+01 -0.56548845474E+01  0.43761885451E+02  0.46142318484E+02  0.10000006596E+02 0.  0.
        -12    1    3    3    0    0 -0.90572118068E+01  0.56548845474E+01 -0.43761885451E+02  0.45045681516E+02  0.00000000000E+00 0.  1.
         11    1    4    4    0    0  0.29149023903E+01 -0.22866282999E+01  0.51259665619E+01  0.63246231810E+01  0.51100000000E-03 0. -1.
        -11    1    4    4    0    0  0.60998416526E+01 -0.46726291161E+01  0.25918836599E+02  0.27033823665E+02  0.51100000000E-03 0.  1.
        -12    1    4    4    0    0  0.42467763849E-01  0.13043728686E+01  0.12717082291E+02  0.12783871639E+02  0.00000000000E+00 0.  1.
</event>
<event>
 8    1  0.2882335E-009  0.9118800E+02  0.7816164E-02  0.1184000E+00
        -11   -1    0    0    0    0  0.00000000000E+00  0.00000000000E+00  0.45593999997E+02  0.45594000000E+02  0.51100000000E-03 0.  1.
         11   -1    0    0    0    0 -0.00000000000E+00 -0.00000000000E+00 -0.45593999997E+02  0.45594000000E+02  0.51100000000E-03 0. -1.
         23    2    1    2    0    0  0.00000000000E+00  0.00000000000E+00  0.00000000000E+00  0.91188000000E+02  0.91188000000E+02 0.  0.
    9900012    2    3    3    0    0  0.20643334067E+02  0.38495650388E+02 -0.11002323623E+02  0.46142318017E+02  0.10000002331E+02 0.  0.
        -12    1    3    3    0    0 -0.20643334067E+02 -0.38495650388E+02  0.11002323623E+02  0.45045681983E+02  0.00000000000E+00 0.  1.
         11    1    4    4    0    0  0.15409878600E+02  0.27674903400E+02 -0.44205705950E+01  0.31982902953E+02  0.51100000000E-03 0. -1.
        -11    1    4    4    0    0  0.34548922989E+00 -0.17109540616E+00 -0.62835897877E+00  0.73720533998E+00  0.51100000000E-03 0.  1.
        -12    1    4    4    0    0  0.48879662379E+01  0.10991842395E+02 -0.59533940491E+01  0.13422209724E+02  0.00000000000E+00 0.  1.
</event>
<event>
 8    1  0.2882335E-009  0.9118800E+02  0.7816164E-02  0.1184000E+00
        -11   -1    0    0    0    0  0.00000000000E+00  0.00000000000E+00  0.45593999997E+02  0.45594000000E+02  0.51100000000E-03 0.  1.
         11   -1    0    0    0    0 -0.00000000000E+00 -0.00000000000E+00 -0.45593999997E+02  0.45594000000E+02  0.51100000000E-03 0. -1.
         23    2    1    2    0    0  0.00000000000E+00  0.00000000000E+00  0.00000000000E+00  0.91188000000E+02  0.91188000000E+02 0.  0.
    9900012    2    3    3    0    0  0.27574187401E+02  0.35515960928E+02 -0.27192119160E+01  0.46142318687E+02  0.10000008442E+02 0.  0.
        -12    1    3    3    0    0 -0.27574187401E+02 -0.35515960928E+02  0.27192119160E+01  0.45045681313E+02  0.00000000000E+00 0.  1.
         11    1    4    4    0    0  0.17645616372E+01  0.50260953550E+01  0.10802758146E+01  0.54352836527E+01  0.51100000000E-03 0. -1.
        -11    1    4    4    0    0  0.82175247944E+01  0.53578633047E+01 -0.12783020609E+00  0.98107468503E+01  0.51100000000E-03 0.  1.
         12    1    4    4    0    0  0.17592100970E+02  0.25132002269E+02 -0.36716575245E+01  0.30896288184E+02  0.00000000000E+00 0. -1.
</event>
<event>
 8    1  0.2882335E-009  0.9118800E+02  0.7816164E-02  0.1184000E+00
        -11   -1    0    0    0    0  0.00000000000E+00  0.00000000000E+00  0.45593999997E+02  0.45594000000E+02  0.51100000000E-03 0. -1.
         11   -1    0    0    0    0 -0.00000000000E+00 -0.00000000000E+00 -0.45593999997E+02  0.45594000000E+02  0.51100000000E-03 0.  1.
         23    2    1    2    0    0  0.00000000000E+00  0.00000000000E+00  0.00000000000E+00  0.91188000000E+02  0.91188000000E+02 0.  0.
    9900012    2    3    3    0    0 -0.44243500940E+02 -0.19563032629E+01 -0.82340185333E+01  0.46142316976E+02  0.99999928376E+01 0.  0.
         12    1    3    3    0    0  0.44243500940E+02  0.19563032629E+01  0.82340185333E+01  0.45045683024E+02  0.00000000000E+00 0. -1.
         11    1    4    4    0    0 -0.76461377417E+01  0.91443477144E+00  0.16146842683E+01  0.78680886411E+01  0.51100000000E-03 0. -1.
        -11    1    4    4    0    0 -0.20642847040E+02 -0.71342162893E+00 -0.76441503484E+01  0.22024285213E+02  0.51100000000E-03 0.  1.
        -12    1    4    4    0    0 -0.15954516159E+02 -0.21573164054E+01 -0.22045524531E+01  0.16249943122E+02  0.00000000000E+00 0.  1.
</event>
<event>
 8    1  0.3053347E-009  0.9118800E+02  0.7816164E-02  0.1184000E+00
        -11   -1    0    0    0    0  0.00000000000E+00  0.00000000000E+00  0.45593999997E+02  0.45594000000E+02  0.51100000000E-03 0. -1.
         11   -1    0    0    0    0 -0.00000000000E+00 -0.00000000000E+00 -0.45593999997E+02  0.45594000000E+02  0.51100000000E-03 0.  1.
         23    2    1    2    0    0  0.00000000000E+00  0.22204460493E-15  0.00000000000E+00  0.91188000000E+02  0.91188000000E+02 0.  0.
    9900012    2    3    3    0    0  0.91126563605E+01 -0.16585744718E+01  0.44083127249E+02  0.46142317817E+02  0.10000000512E+02 0.  0.
        -12    1    3    3    0    0 -0.91126563605E+01  0.16585744718E+01 -0.44083127249E+02  0.45045682183E+02  0.00000000000E+00 0.  1.
         11    1    4    4    0    0  0.46784008916E+01  0.24819325658E+01  0.30742655860E+02  0.31195485471E+02  0.51100000000E-03 0. -1.
        -11    1    4    4    0    0  0.36753216125E+01 -0.17750248645E+01  0.65654047044E+01  0.77306688856E+01  0.51100000000E-03 0.  1.
         12    1    4    4    0    0  0.75893385646E+00 -0.23654821731E+01  0.67750666847E+01  0.72161634607E+01  0.00000000000E+00 0. -1.
</event>
<event>
 8    1  0.2882335E-009  0.9118800E+02  0.7816164E-02  0.1184000E+00
        -11   -1    0    0    0    0  0.00000000000E+00  0.00000000000E+00  0.45593999997E+02  0.45594000000E+02  0.51100000000E-03 0. -1.
         11   -1    0    0    0    0 -0.00000000000E+00 -0.00000000000E+00 -0.45593999997E+02  0.45594000000E+02  0.51100000000E-03 0.  1.
         23    2    1    2    0    0 -0.17763568394E-14  0.00000000000E+00  0.00000000000E+00  0.91188000000E+02  0.91188000000E+02 0.  0.
    9900012    2    3    3    0    0  0.10931010180E+02 -0.27299344733E+02  0.34122899532E+02  0.46142317867E+02  0.10000000964E+02 0.  0.
        -12    1    3    3    0    0 -0.10931010180E+02  0.27299344733E+02 -0.34122899532E+02  0.45045682133E+02  0.00000000000E+00 0.  1.
         11    1    4    4    0    0  0.78494038616E+01 -0.12504622380E+02  0.22952548052E+02  0.27290990898E+02  0.51100000000E-03 0. -1.
        -11    1    4    4    0    0  0.39155441703E+00 -0.50468173422E+01  0.33888426336E+01  0.60916282555E+01  0.51100000000E-03 0.  1.
         12    1    4    4    0    0  0.26900519014E+01 -0.97479050113E+01  0.77815088458E+01  0.12759698713E+02  0.00000000000E+00 0. -1.
</event>
<event>
 8    1  0.2882335E-009  0.9118800E+02  0.7816164E-02  0.1184000E+00
        -11   -1    0    0    0    0  0.00000000000E+00  0.00000000000E+00  0.45593999997E+02  0.45594000000E+02  0.51100000000E-03 0. -1.
         11   -1    0    0    0    0 -0.00000000000E+00 -0.00000000000E+00 -0.45593999997E+02  0.45594000000E+02  0.51100000000E-03 0.  1.
         23    2    1    2    0    0 -0.35527136788E-14  0.66613381478E-15  0.00000000000E+00  0.91188000000E+02  0.91188000000E+02 0.  0.
    9900012    2    3    3    0    0 -0.18228667688E+02  0.10780470754E+01 -0.41178476096E+02  0.46142318689E+02  0.10000008460E+02 0.  0.
         12    1    3    3    0    0  0.18228667688E+02 -0.10780470754E+01  0.41178476096E+02  0.45045681311E+02  0.00000000000E+00 0. -1.
         11    1    4    4    0    0 -0.14422166855E+02  0.35282611334E+01 -0.29590346761E+02  0.33106436612E+02  0.51100000000E-03 0. -1.
        -11    1    4    4    0    0  0.34478865553E+00 -0.13211676121E+01 -0.48745136687E+01  0.50621385642E+01  0.51100000000E-03 0.  1.
        -12    1    4    4    0    0 -0.41512894878E+01 -0.11290464459E+01 -0.67136156670E+01  0.79737435131E+01  0.00000000000E+00 0.  1.
</event>
<event>
 8    1  0.2882335E-009  0.9118800E+02  0.7816164E-02  0.1184000E+00
        -11   -1    0    0    0    0  0.00000000000E+00  0.00000000000E+00  0.45593999997E+02  0.45594000000E+02  0.51100000000E-03 0. -1.
         11   -1    0    0    0    0 -0.00000000000E+00 -0.00000000000E+00 -0.45593999997E+02  0.45594000000E+02  0.51100000000E-03 0.  1.
         23    2    1    2    0    0  0.17763568394E-14  0.00000000000E+00 -0.71054273576E-14  0.91188000000E+02  0.91188000000E+02 0.  0.
    9900012    2    3    3    0    0  0.12358080451E+02 -0.91962311523E+01 -0.42329901943E+02  0.46142318539E+02  0.10000007091E+02 0.  0.
         12    1    3    3    0    0 -0.12358080451E+02  0.91962311523E+01  0.42329901943E+02  0.45045681461E+02  0.00000000000E+00 0. -1.
         11    1    4    4    0    0  0.55562622669E+01 -0.22406600250E+00 -0.15107886571E+02  0.16098773024E+02  0.51100000000E-03 0. -1.
        -11    1    4    4    0    0  0.55848940446E+01 -0.80793456023E+01 -0.26695591921E+02  0.28445060997E+02  0.51100000000E-03 0.  1.
         12    1    4    4    0    0  0.12169241397E+01 -0.89281954754E+00 -0.52642345050E+00  0.15984845184E+01  0.00000000000E+00 0. -1.
</event>
<event>
 8    1  0.2882335E-009  0.9118800E+02  0.7816164E-02  0.1184000E+00
        -11   -1    0    0    0    0  0.00000000000E+00  0.00000000000E+00  0.45593999997E+02  0.45594000000E+02  0.51100000000E-03 0.  1.
         11   -1    0    0    0    0 -0.00000000000E+00 -0.00000000000E+00 -0.45593999997E+02  0.45594000000E+02  0.51100000000E-03 0. -1.
         23    2    1    2    0    0  0.00000000000E+00 -0.88817841970E-15  0.35527136788E-14  0.91188000000E+02  0.91188000000E+02 0.  0.
    9900012    2    3    3    0    0  0.41686417705E+02  0.52949137680E+01  0.16227172244E+02  0.46142304846E+02  0.99998822262E+01 0.  0.
        -12    1    3    3    0    0 -0.41686417705E+02 -0.52949137680E+01 -0.16227172244E+02  0.45045695154E+02  0.00000000000E+00 0.  1.
         11    1    4    4    0    0  0.11373468931E+02  0.14183452016E+01  0.65614923607E+01  0.13206842200E+02  0.51100000000E-03 0. -1.
        -11    1    4    4    0    0  0.22404029264E+02  0.41925782427E+00  0.44347938589E+01  0.22842585257E+02  0.51100000000E-03 0.  1.
        -12    1    4    4    0    0  0.79089195103E+01  0.34573107421E+01  0.52308860243E+01  0.10092877389E+02  0.00000000000E+00 0.  1.
</event>
<event>
 8    1  0.2882335E-009  0.9118800E+02  0.7816164E-02  0.1184000E+00
        -11   -1    0    0    0    0  0.00000000000E+00  0.00000000000E+00  0.45593999997E+02  0.45594000000E+02  0.51100000000E-03 0. -1.
         11   -1    0    0    0    0 -0.00000000000E+00 -0.00000000000E+00 -0.45593999997E+02  0.45594000000E+02  0.51100000000E-03 0.  1.
         23    2    1    2    0    0 -0.88817841970E-15  0.35527136788E-14 -0.71054273576E-14  0.91188000000E+02  0.91188000000E+02 0.  0.
    9900012    2    3    3    0    0  0.67337741972E+01 -0.22146683941E+02  0.38643164053E+02  0.46142318159E+02  0.10000003625E+02 0.  0.
        -12    1    3    3    0    0 -0.67337741972E+01  0.22146683941E+02 -0.38643164053E+02  0.45045681841E+02  0.00000000000E+00 0.  1.
         11    1    4    4    0    0  0.27221844830E+01 -0.99687519063E+01  0.12528695787E+02  0.16240520968E+02  0.51100000000E-03 0. -1.
        -11    1    4    4    0    0 -0.18211600419E+01 -0.20934820500E+01  0.68231990726E+01  0.73658222105E+01  0.51100000000E-03 0.  1.
        -12    1    4    4    0    0  0.58327497561E+01 -0.10084449985E+02  0.19291269193E+02  0.22535974980E+02  0.00000000000E+00 0.  1.
</event>
<event>
 8    1  0.2882335E-009  0.9118800E+02  0.7816164E-02  0.1184000E+00
        -11   -1    0    0    0    0  0.00000000000E+00  0.00000000000E+00  0.45593999997E+02  0.45594000000E+02  0.51100000000E-03 0. -1.
         11   -1    0    0    0    0 -0.00000000000E+00 -0.00000000000E+00 -0.45593999997E+02  0.45594000000E+02  0.51100000000E-03 0.  1.
         23    2    1    2    0    0  0.00000000000E+00  0.17763568394E-14  0.00000000000E+00  0.91188000000E+02  0.91188000000E+02 0.  0.
    9900012    2    3    3    0    0 -0.34739203286E+02 -0.15326859874E+02  0.24236100399E+02  0.46142318286E+02  0.10000004788E+02 0.  0.
        -12    1    3    3    0    0  0.34739203286E+02  0.15326859874E+02 -0.24236100399E+02  0.45045681714E+02  0.00000000000E+00 0.  1.
         11    1    4    4    0    0 -0.82954533455E+01 -0.68005139247E+01  0.55524913835E+01  0.12078563519E+02  0.51100000000E-03 0. -1.
        -11    1    4    4    0    0 -0.22851389790E+02 -0.67019006851E+01  0.18267189661E+02  0.30013192208E+02  0.51100000000E-03 0.  1.
        -12    1    4    4    0    0 -0.35923601503E+01 -0.18244452637E+01  0.41641935390E+00  0.40505625594E+01  0.00000000000E+00 0.  1.
</event>
<event>
 8    1  0.2882335E-009  0.9118800E+02  0.7816164E-02  0.1184000E+00
        -11   -1    0    0    0    0  0.00000000000E+00  0.00000000000E+00  0.45593999997E+02  0.45594000000E+02  0.51100000000E-03 0. -1.
         11   -1    0    0    0    0 -0.00000000000E+00 -0.00000000000E+00 -0.45593999997E+02  0.45594000000E+02  0.51100000000E-03 0.  1.
         23    2    1    2    0    0 -0.88817841970E-15 -0.35527136788E-14  0.00000000000E+00  0.91188000000E+02  0.91188000000E+02 0.  0.
    9900012    2    3    3    0    0  0.44089648282E+01  0.30714230497E+02 -0.32654411360E+02  0.46142317552E+02  0.99999980955E+01 0.  0.
         12    1    3    3    0    0 -0.44089648282E+01 -0.30714230497E+02  0.32654411360E+02  0.45045682448E+02  0.00000000000E+00 0. -1.
         11    1    4    4    0    0  0.69295754183E+00  0.36736869237E+00 -0.43440229831E+01  0.44142593772E+01  0.51100000000E-03 0. -1.
        -11    1    4    4    0    0  0.35723297152E+01  0.20599011372E+02 -0.19307982918E+02  0.28458373350E+02  0.51100000000E-03 0.  1.
         12    1    4    4    0    0  0.14367757119E+00  0.97478504325E+01 -0.90024054591E+01  0.13269684825E+02  0.00000000000E+00 0. -1.
</event>
<event>
 8    1  0.3625540E-009  0.9118800E+02  0.7816164E-02  0.1184000E+00
        -11   -1    0    0    0    0  0.00000000000E+00  0.00000000000E+00  0.45593999997E+02  0.45594000000E+02  0.51100000000E-03 0. -1.
         11   -1    0    0    0    0 -0.00000000000E+00 -0.00000000000E+00 -0.45593999997E+02  0.45594000000E+02  0.51100000000E-03 0.  1.
         23    2    1    2    0    0  0.71054273576E-14  0.00000000000E+00  0.71054273576E-14  0.91188000000E+02  0.91188000000E+02 0.  0.
    9900012    2    3    3    0    0  0.25987618225E+02  0.43259924565E+01  0.36538251525E+02  0.46142308350E+02  0.99999141827E+01 0.  0.
        -12    1    3    3    0    0 -0.25987618225E+02 -0.43259924565E+01 -0.36538251525E+02  0.45045691650E+02  0.00000000000E+00 0.  1.
         11    1    4    4    0    0  0.23746868894E+02  0.49492558981E+01  0.35939734306E+02  0.43359813404E+02  0.51100000000E-03 0. -1.
        -11    1    4    4    0    0  0.27850155710E+00 -0.46000356049E+00 -0.30263314342E+00  0.61705224543E+00  0.51100000000E-03 0.  1.
         12    1    4    4    0    0  0.19622477735E+01 -0.16325988111E+00  0.90115036249E+00  0.21654427005E+01  0.00000000000E+00 0. -1.
</event>
<event>
 8    1  0.2882335E-009  0.9118800E+02  0.7816164E-02  0.1184000E+00
        -11   -1    0    0    0    0  0.00000000000E+00  0.00000000000E+00  0.45593999997E+02  0.45594000000E+02  0.51100000000E-03 0. -1.
         11   -1    0    0    0    0 -0.00000000000E+00 -0.00000000000E+00 -0.45593999997E+02  0.45594000000E+02  0.51100000000E-03 0.  1.
         23    2    1    2    0    0  0.00000000000E+00  0.00000000000E+00  0.00000000000E+00  0.91188000000E+02  0.91188000000E+02 0.  0.
    9900012    2    3    3    0    0 -0.27669230712E+01 -0.10252615170E+02  0.43776040213E+02  0.46142315658E+02  0.99999808176E+01 0.  0.
        -12    1    3    3    0    0  0.27669230712E+01  0.10252615170E+02 -0.43776040213E+02  0.45045684342E+02  0.00000000000E+00 0.  1.
         11    1    4    4    0    0  0.10861116855E+01 -0.40466666215E+01  0.18621814763E+02  0.19087355361E+02  0.51100000000E-03 0. -1.
        -11    1    4    4    0    0  0.94712353600E+00 -0.16181780592E+01  0.13600467931E+02  0.13729103081E+02  0.51100000000E-03 0.  1.
         12    1    4    4    0    0 -0.48001582926E+01 -0.45877704896E+01  0.11553757520E+02  0.13325857215E+02  0.00000000000E+00 0. -1.
</event>
<event>
 8    1  0.2882335E-009  0.9118800E+02  0.7816164E-02  0.1184000E+00
        -11   -1    0    0    0    0  0.00000000000E+00  0.00000000000E+00  0.45593999997E+02  0.45594000000E+02  0.51100000000E-03 0. -1.
         11   -1    0    0    0    0 -0.00000000000E+00 -0.00000000000E+00 -0.45593999997E+02  0.45594000000E+02  0.51100000000E-03 0.  1.
         23    2    1    2    0    0  0.00000000000E+00  0.00000000000E+00 -0.71054273576E-14  0.91188000000E+02  0.91188000000E+02 0.  0.
    9900012    2    3    3    0    0  0.26072139035E+02  0.79133313444E+01  0.35871105137E+02  0.46142318402E+02  0.10000005845E+02 0.  0.
        -12    1    3    3    0    0 -0.26072139035E+02 -0.79133313444E+01 -0.35871105137E+02  0.45045681598E+02  0.00000000000E+00 0.  1.
         11    1    4    4    0    0  0.38910555590E+01  0.21163956687E+01  0.19860322499E+01  0.48542526045E+01  0.51100000000E-03 0.  1.
        -11    1    4    4    0    0  0.16418605447E+02  0.63352184962E+01  0.27698742399E+02  0.32816549620E+02  0.51100000000E-03 0. -1.
         12    1    4    4    0    0  0.57624780295E+01 -0.53828282047E+00  0.61863304885E+01  0.84715161777E+01  0.00000000000E+00 0. -1.
</event>
<event>
 8    1  0.2882335E-009  0.9118800E+02  0.7816164E-02  0.1184000E+00
        -11   -1    0    0    0    0  0.00000000000E+00  0.00000000000E+00  0.45593999997E+02  0.45594000000E+02  0.51100000000E-03 0. -1.
         11   -1    0    0    0    0 -0.00000000000E+00 -0.00000000000E+00 -0.45593999997E+02  0.45594000000E+02  0.51100000000E-03 0.  1.
         23    2    1    2    0    0  0.00000000000E+00  0.35527136788E-14  0.35527136788E-14  0.91188000000E+02  0.91188000000E+02 0.  0.
    9900012    2    3    3    0    0 -0.33263723109E+02  0.27154316707E+02  0.13611805096E+02  0.46142318422E+02  0.10000006025E+02 0.  0.
        -12    1    3    3    0    0  0.33263723109E+02 -0.27154316707E+02 -0.13611805096E+02  0.45045681578E+02  0.00000000000E+00 0.  1.
         11    1    4    4    0    0 -0.15919404226E+02  0.16380335713E+02  0.81938016948E+01  0.24266874860E+02  0.51100000000E-03 0. -1.
        -11    1    4    4    0    0 -0.14008387035E+02  0.10718212070E+02  0.33607460293E+01  0.17955767637E+02  0.51100000000E-03 0.  1.
         12    1    4    4    0    0 -0.33359318473E+01  0.55768923791E-01  0.20572573714E+01  0.39196759247E+01  0.00000000000E+00 0. -1.
</event>
<event>
 8    1  0.2882335E-009  0.9118800E+02  0.7816164E-02  0.1184000E+00
        -11   -1    0    0    0    0  0.00000000000E+00  0.00000000000E+00  0.45593999997E+02  0.45594000000E+02  0.51100000000E-03 0. -1.
         11   -1    0    0    0    0 -0.00000000000E+00 -0.00000000000E+00 -0.45593999997E+02  0.45594000000E+02  0.51100000000E-03 0.  1.
         23    2    1    2    0    0 -0.35527136788E-14  0.35527136788E-14  0.00000000000E+00  0.91188000000E+02  0.91188000000E+02 0.  0.
    9900012    2    3    3    0    0  0.24929436070E+02  0.21289787516E+02  0.30893068759E+02  0.46142317271E+02  0.99999955283E+01 0.  0.
        -12    1    3    3    0    0 -0.24929436070E+02 -0.21289787516E+02 -0.30893068759E+02  0.45045682729E+02  0.00000000000E+00 0.  1.
         11    1    4    4    0    0  0.13505364083E+02  0.77194656493E+01  0.12221775030E+02  0.19782739802E+02  0.51100000000E-03 0. -1.
        -11    1    4    4    0    0  0.78054847682E+01  0.12592162913E+02  0.14154349904E+02  0.20489845796E+02  0.51100000000E-03 0.  1.
        -12    1    4    4    0    0  0.36185872185E+01  0.97815895428E+00  0.45169438240E+01  0.58697316725E+01  0.00000000000E+00 0.  1.
</event>
<event>
 8    1  0.2882335E-009  0.9118800E+02  0.7816164E-02  0.1184000E+00
        -11   -1    0    0    0    0  0.00000000000E+00  0.00000000000E+00  0.45593999997E+02  0.45594000000E+02  0.51100000000E-03 0. -1.
         11   -1    0    0    0    0 -0.00000000000E+00 -0.00000000000E+00 -0.45593999997E+02  0.45594000000E+02  0.51100000000E-03 0.  1.
         23    2    1    2    0    0  0.35527136788E-14 -0.17763568394E-14  0.71054273576E-14  0.91188000000E+02  0.91188000000E+02 0.  0.
    9900012    2    3    3    0    0  0.27099038890E+02  0.10745072893E+02 -0.34340924411E+02  0.46142316638E+02  0.99999897546E+01 0.  0.
         12    1    3    3    0    0 -0.27099038890E+02 -0.10745072893E+02  0.34340924411E+02  0.45045683362E+02  0.00000000000E+00 0. -1.
         11    1    4    4    0    0  0.92478480093E+01  0.77451675905E+01 -0.13873829109E+02  0.18384598125E+02  0.51100000000E-03 0. -1.
        -11    1    4    4    0    0  0.16713799999E+02  0.32539140307E+01 -0.20424763795E+02  0.26591540822E+02  0.51100000000E-03 0.  1.
         12    1    4    4    0    0  0.11373908810E+01 -0.25400872802E+00 -0.42331506474E-01  0.11661776908E+01  0.00000000000E+00 0. -1.
</event>
<event>
 8    1  0.2882335E-009  0.9118800E+02  0.7816164E-02  0.1184000E+00
        -11   -1    0    0    0    0  0.00000000000E+00  0.00000000000E+00  0.45593999997E+02  0.45594000000E+02  0.51100000000E-03 0.  1.
         11   -1    0    0    0    0 -0.00000000000E+00 -0.00000000000E+00 -0.45593999997E+02  0.45594000000E+02  0.51100000000E-03 0. -1.
         23    2    1    2    0    0  0.00000000000E+00  0.71054273576E-14  0.00000000000E+00  0.91188000000E+02  0.91188000000E+02 0.  0.
    9900012    2    3    3    0    0 -0.20828411998E+02  0.39595324280E+02  0.52441774143E+01  0.46142313769E+02  0.99999635997E+01 0.  0.
        -12    1    3    3    0    0  0.20828411998E+02 -0.39595324280E+02 -0.52441774143E+01  0.45045686231E+02  0.00000000000E+00 0.  1.
         11    1    4    4    0    0 -0.31349302569E+01  0.55593131350E+01  0.17370858785E+01  0.66144703386E+01  0.51100000000E-03 0. -1.
        -11    1    4    4    0    0 -0.17074169826E+02  0.28745762089E+02  0.54153956005E+01  0.33869936863E+02  0.51100000000E-03 0.  1.
        -12    1    4    4    0    0 -0.61931191520E+00  0.52902490568E+01 -0.19083040647E+01  0.56579065682E+01  0.00000000000E+00 0.  1.
</event>
<event>
 8    1  0.2882335E-009  0.9118800E+02  0.7816164E-02  0.1184000E+00
        -11   -1    0    0    0    0  0.00000000000E+00  0.00000000000E+00  0.45593999997E+02  0.45594000000E+02  0.51100000000E-03 0. -1.
         11   -1    0    0    0    0 -0.00000000000E+00 -0.00000000000E+00 -0.45593999997E+02  0.45594000000E+02  0.51100000000E-03 0.  1.
         23    2    1    2    0    0  0.00000000000E+00 -0.17763568394E-14  0.00000000000E+00  0.91188000000E+02  0.91188000000E+02 0.  0.
    9900012    2    3    3    0    0  0.37838191899E+02  0.15697699032E+02  0.18734112841E+02  0.46142317576E+02  0.99999983160E+01 0.  0.
        -12    1    3    3    0    0 -0.37838191899E+02 -0.15697699032E+02 -0.18734112841E+02  0.45045682424E+02  0.00000000000E+00 0.  1.
         11    1    4    4    0    0  0.22417011399E+02  0.11209035745E+02  0.10502607757E+02  0.27174798111E+02  0.51100000000E-03 0. -1.
        -11    1    4    4    0    0  0.50761552106E+01  0.21070861462E+00  0.13987646976E-01  0.50805458130E+01  0.51100000000E-03 0.  1.
        -12    1    4    4    0    0  0.10345025290E+02  0.42779546724E+01  0.82175174362E+01  0.13886973653E+02  0.00000000000E+00 0.  1.
</event>
<event>
 8    1  0.2882335E-009  0.9118800E+02  0.7816164E-02  0.1184000E+00
        -11   -1    0    0    0    0  0.00000000000E+00  0.00000000000E+00  0.45593999997E+02  0.45594000000E+02  0.51100000000E-03 0. -1.
         11   -1    0    0    0    0 -0.00000000000E+00 -0.00000000000E+00 -0.45593999997E+02  0.45594000000E+02  0.51100000000E-03 0.  1.
         23    2    1    2    0    0  0.44408920985E-15 -0.88817841970E-15  0.00000000000E+00  0.91188000000E+02  0.91188000000E+02 0.  0.
    9900012    2    3    3    0    0 -0.17026553189E+01 -0.78645248084E+01 -0.44321143104E+02  0.46142317502E+02  0.99999976403E+01 0.  0.
         12    1    3    3    0    0  0.17026553189E+01  0.78645248084E+01  0.44321143104E+02  0.45045682498E+02  0.00000000000E+00 0. -1.
         11    1    4    4    0    0 -0.44862630823E+01 -0.26895794382E+01 -0.12957687380E+02  0.13973620021E+02  0.51100000000E-03 0. -1.
        -11    1    4    4    0    0 -0.45592074532E-01 -0.41319207344E+01 -0.17533380483E+02  0.18013724740E+02  0.51100000000E-03 0.  1.
         12    1    4    4    0    0  0.28291998379E+01 -0.10430246359E+01 -0.13830075241E+02  0.14154972741E+02  0.00000000000E+00 0. -1.
</event>
<event>
 8    1  0.2882335E-009  0.9118800E+02  0.7816164E-02  0.1184000E+00
        -11   -1    0    0    0    0  0.00000000000E+00  0.00000000000E+00  0.45593999997E+02  0.45594000000E+02  0.51100000000E-03 0. -1.
         11   -1    0    0    0    0 -0.00000000000E+00 -0.00000000000E+00 -0.45593999997E+02  0.45594000000E+02  0.51100000000E-03 0.  1.
         23    2    1    2    0    0  0.17763568394E-14  0.00000000000E+00  0.00000000000E+00  0.91188000000E+02  0.91188000000E+02 0.  0.
    9900012    2    3    3    0    0  0.14398388613E+02 -0.24012797963E+01  0.42614948861E+02  0.46142316459E+02  0.99999881218E+01 0.  0.
        -12    1    3    3    0    0 -0.14398388613E+02  0.24012797963E+01 -0.42614948861E+02  0.45045683541E+02  0.00000000000E+00 0.  1.
         11    1    4    4    0    0  0.22110816094E+01 -0.14335114375E+01  0.16648739519E+02  0.16855988988E+02  0.51100000000E-03 0.  1.
        -11    1    4    4    0    0  0.11874362646E+01  0.38606785764E+00  0.23599720597E+00  0.12707274356E+01  0.51100000000E-03 0. -1.
        -12    1    4    4    0    0  0.10999870739E+02 -0.13538362164E+01  0.25730212136E+02  0.28015600035E+02  0.00000000000E+00 0.  1.
</event>
<event>
 8    1  0.2882335E-009  0.9118800E+02  0.7816164E-02  0.1184000E+00
        -11   -1    0    0    0    0  0.00000000000E+00  0.00000000000E+00  0.45593999997E+02  0.45594000000E+02  0.51100000000E-03 0. -1.
         11   -1    0    0    0    0 -0.00000000000E+00 -0.00000000000E+00 -0.45593999997E+02  0.45594000000E+02  0.51100000000E-03 0.  1.
         23    2    1    2    0    0  0.88817841970E-15  0.00000000000E+00 -0.71054273576E-14  0.91188000000E+02  0.91188000000E+02 0.  0.
    9900012    2    3    3    0    0  0.46802601383E+01  0.17478020028E+02 -0.41251999095E+02  0.46142318205E+02  0.10000004048E+02 0.  0.
         12    1    3    3    0    0 -0.46802601383E+01 -0.17478020028E+02  0.41251999095E+02  0.45045681795E+02  0.00000000000E+00 0. -1.
         11    1    4    4    0    0  0.23652259604E+00  0.35428092827E+01 -0.58374630232E+01  0.68325262795E+01  0.51100000000E-03 0. -1.
        -11    1    4    4    0    0  0.66105993144E+01  0.83525197803E+01 -0.26599168507E+02  0.28652755112E+02  0.51100000000E-03 0.  1.
        -12    1    4    4    0    0 -0.21668617721E+01  0.55826909645E+01 -0.88153675648E+01  0.10657036814E+02  0.00000000000E+00 0.  1.
</event>
<event>
 8    1  0.2882335E-009  0.9118800E+02  0.7816164E-02  0.1184000E+00
        -11   -1    0    0    0    0  0.00000000000E+00  0.00000000000E+00  0.45593999997E+02  0.45594000000E+02  0.51100000000E-03 0. -1.
         11   -1    0    0    0    0 -0.00000000000E+00 -0.00000000000E+00 -0.45593999997E+02  0.45594000000E+02  0.51100000000E-03 0.  1.
         23    2    1    2    0    0 -0.35527136788E-14  0.00000000000E+00  0.00000000000E+00  0.91188000000E+02  0.91188000000E+02 0.  0.
    9900012    2    3    3    0    0  0.21545036105E+02 -0.39217334896E+02  0.51889804519E+01  0.46142318129E+02  0.10000003354E+02 0.  0.
        -12    1    3    3    0    0 -0.21545036105E+02  0.39217334896E+02 -0.51889804519E+01  0.45045681871E+02  0.00000000000E+00 0.  1.
         11    1    4    4    0    0  0.57859645454E+01 -0.13884078399E+02  0.35100147819E+01  0.15445556731E+02  0.51100000000E-03 0. -1.
        -11    1    4    4    0    0  0.72649073045E+01 -0.67792903124E+01 -0.14850079807E+01  0.10047034600E+02  0.51100000000E-03 0.  1.
        -12    1    4    4    0    0  0.84941642546E+01 -0.18553966185E+02  0.31639736507E+01  0.20649726798E+02  0.00000000000E+00 0.  1.
</event>
<event>
 8    1  0.2882335E-009  0.9118800E+02  0.7816164E-02  0.1184000E+00
        -11   -1    0    0    0    0  0.00000000000E+00  0.00000000000E+00  0.45593999997E+02  0.45594000000E+02  0.51100000000E-03 0. -1.
         11   -1    0    0    0    0 -0.00000000000E+00 -0.00000000000E+00 -0.45593999997E+02  0.45594000000E+02  0.51100000000E-03 0.  1.
         23    2    1    2    0    0 -0.71054273576E-14  0.35527136788E-14 -0.71054273576E-14  0.91188000000E+02  0.91188000000E+02 0.  0.
    9900012    2    3    3    0    0  0.29017124536E+02 -0.22653034425E+02  0.25960739532E+02  0.46142317831E+02  0.10000000640E+02 0.  0.
        -12    1    3    3    0    0 -0.29017124536E+02  0.22653034425E+02 -0.25960739532E+02  0.45045682169E+02  0.00000000000E+00 0.  1.
         11    1    4    4    0    0  0.18068510682E+02 -0.10971199015E+02  0.17444375181E+02  0.27407015740E+02  0.51100000000E-03 0. -1.
        -11    1    4    4    0    0  0.10691950444E+02 -0.91069174436E+01  0.77266010875E+01  0.16029788341E+02  0.51100000000E-03 0.  1.
         12    1    4    4    0    0  0.25666340973E+00 -0.25749179661E+01  0.78976326404E+00  0.27055137500E+01  0.00000000000E+00 0. -1.
</event>
<event>
 8    1  0.2882335E-009  0.9118800E+02  0.7816164E-02  0.1184000E+00
        -11   -1    0    0    0    0  0.00000000000E+00  0.00000000000E+00  0.45593999997E+02  0.45594000000E+02  0.51100000000E-03 0.  1.
         11   -1    0    0    0    0 -0.00000000000E+00 -0.00000000000E+00 -0.45593999997E+02  0.45594000000E+02  0.51100000000E-03 0. -1.
         23    2    1    2    0    0  0.00000000000E+00  0.00000000000E+00  0.00000000000E+00  0.91188000000E+02  0.91188000000E+02 0.  0.
    9900012    2    3    3    0    0 -0.36678073860E+02  0.86315650415E+01  0.24684579798E+02  0.46142317666E+02  0.99999991300E+01 0.  0.
        -12    1    3    3    0    0  0.36678073860E+02 -0.86315650415E+01 -0.24684579798E+02  0.45045682334E+02  0.00000000000E+00 0.  1.
         11    1    4    4    0    0 -0.15697105708E+02  0.58193121228E+01  0.86792771260E+01  0.18857183588E+02  0.51100000000E-03 0. -1.
        -11    1    4    4    0    0 -0.13385346337E+02 -0.51630351197E+00  0.72727147047E+01  0.15242258537E+02  0.51100000000E-03 0.  1.
         12    1    4    4    0    0 -0.75956218150E+01  0.33285564306E+01  0.87325879669E+01  0.12042875540E+02  0.00000000000E+00 0. -1.
</event>
<event>
 8    1  0.2882335E-009  0.9118800E+02  0.7816164E-02  0.1184000E+00
        -11   -1    0    0    0    0  0.00000000000E+00  0.00000000000E+00  0.45593999997E+02  0.45594000000E+02  0.51100000000E-03 0. -1.
         11   -1    0    0    0    0 -0.00000000000E+00 -0.00000000000E+00 -0.45593999997E+02  0.45594000000E+02  0.51100000000E-03 0.  1.
         23    2    1    2    0    0  0.14210854715E-13  0.17763568394E-14  0.71054273576E-14  0.91188000000E+02  0.91188000000E+02 0.  0.
    9900012    2    3    3    0    0 -0.34356857342E+02 -0.10068647572E+02 -0.27337558124E+02  0.46142318803E+02  0.10000009497E+02 0.  0.
         12    1    3    3    0    0  0.34356857342E+02  0.10068647572E+02  0.27337558124E+02  0.45045681197E+02  0.00000000000E+00 0. -1.
         11    1    4    4    0    0 -0.71447767229E+01 -0.26895977714E+01 -0.14182449490E+01  0.77648689357E+01  0.51100000000E-03 0. -1.
        -11    1    4    4    0    0 -0.27155937854E+02 -0.72476338500E+01 -0.25559426397E+02  0.37990228154E+02  0.51100000000E-03 0.  1.
        -12    1    4    4    0    0 -0.56142764773E-01 -0.13141595087E+00 -0.35988677795E+00  0.38722171313E+00  0.00000000000E+00 0.  1.
</event>
<event>
 8    1  0.2882335E-009  0.9118800E+02  0.7816164E-02  0.1184000E+00
        -11   -1    0    0    0    0  0.00000000000E+00  0.00000000000E+00  0.45593999997E+02  0.45594000000E+02  0.51100000000E-03 0. -1.
         11   -1    0    0    0    0 -0.00000000000E+00 -0.00000000000E+00 -0.45593999997E+02  0.45594000000E+02  0.51100000000E-03 0.  1.
         23    2    1    2    0    0  0.17763568394E-14  0.00000000000E+00  0.00000000000E+00  0.91188000000E+02  0.91188000000E+02 0.  0.
    9900012    2    3    3    0    0  0.13935128245E+02 -0.23656469728E+02  0.35711302051E+02  0.46142318149E+02  0.10000003536E+02 0.  0.
        -12    1    3    3    0    0 -0.13935128245E+02  0.23656469728E+02 -0.35711302051E+02  0.45045681851E+02  0.00000000000E+00 0.  1.
         11    1    4    4    0    0  0.10105571041E+02 -0.14986416790E+02  0.25849520509E+02  0.31542240964E+02  0.51100000000E-03 0. -1.
        -11    1    4    4    0    0  0.13563836977E+01 -0.63394128574E+00 -0.17436316439E+00  0.15073357500E+01  0.51100000000E-03 0.  1.
         12    1    4    4    0    0  0.24731735064E+01 -0.80361116527E+01  0.10036144707E+02  0.13092741435E+02  0.00000000000E+00 0. -1.
</event>
<event>
 8    1  0.2882335E-009  0.9118800E+02  0.7816164E-02  0.1184000E+00
        -11   -1    0    0    0    0  0.00000000000E+00  0.00000000000E+00  0.45593999997E+02  0.45594000000E+02  0.51100000000E-03 0. -1.
         11   -1    0    0    0    0 -0.00000000000E+00 -0.00000000000E+00 -0.45593999997E+02  0.45594000000E+02  0.51100000000E-03 0.  1.
         23    2    1    2    0    0  0.00000000000E+00  0.00000000000E+00  0.00000000000E+00  0.91188000000E+02  0.91188000000E+02 0.  0.
    9900012    2    3    3    0    0 -0.21683025094E+02  0.33230453853E+02 -0.21323630095E+02  0.46142313848E+02  0.99999643186E+01 0.  0.
         12    1    3    3    0    0  0.21683025094E+02 -0.33230453853E+02  0.21323630095E+02  0.45045686152E+02  0.00000000000E+00 0. -1.
         11    1    4    4    0    0 -0.14201799903E+02  0.16182310590E+02 -0.12816387126E+02  0.25056298126E+02  0.51100000000E-03 0. -1.
        -11    1    4    4    0    0 -0.68755555347E+01  0.15856228550E+02 -0.92014252278E+01  0.19579567774E+02  0.51100000000E-03 0.  1.
         12    1    4    4    0    0 -0.60566965602E+00  0.11919147124E+01  0.69418225872E+00  0.15064479487E+01  0.00000000000E+00 0. -1.
</event>
<event>
 8    1  0.2882335E-009  0.9118800E+02  0.7816164E-02  0.1184000E+00
        -11   -1    0    0    0    0  0.00000000000E+00  0.00000000000E+00  0.45593999997E+02  0.45594000000E+02  0.51100000000E-03 0. -1.
         11   -1    0    0    0    0 -0.00000000000E+00 -0.00000000000E+00 -0.45593999997E+02  0.45594000000E+02  0.51100000000E-03 0.  1.
         23    2    1    2    0    0  0.00000000000E+00  0.00000000000E+00  0.00000000000E+00  0.91188000000E+02  0.91188000000E+02 0.  0.
    9900012    2    3    3    0    0 -0.10802440860E+01 -0.25949142562E+02 -0.36804736379E+02  0.46142317111E+02  0.99999940738E+01 0.  0.
         12    1    3    3    0    0  0.10802440860E+01  0.25949142562E+02  0.36804736379E+02  0.45045682889E+02  0.00000000000E+00 0. -1.
         11    1    4    4    0    0  0.49353044462E+00 -0.36619677401E+01 -0.12847498683E+02  0.13368313383E+02  0.51100000000E-03 0. -1.
        -11    1    4    4    0    0 -0.10308567994E+01 -0.10393293600E+02 -0.11780395922E+02  0.15743600158E+02  0.51100000000E-03 0.  1.
         12    1    4    4    0    0 -0.54291773120E+00 -0.11893881222E+02 -0.12176841774E+02  0.17030403571E+02  0.00000000000E+00 0. -1.
</event>
<event>
 8    1  0.2882335E-009  0.9118800E+02  0.7816164E-02  0.1184000E+00
        -11   -1    0    0    0    0  0.00000000000E+00  0.00000000000E+00  0.45593999997E+02  0.45594000000E+02  0.51100000000E-03 0. -1.
         11   -1    0    0    0    0 -0.00000000000E+00 -0.00000000000E+00 -0.45593999997E+02  0.45594000000E+02  0.51100000000E-03 0.  1.
         23    2    1    2    0    0  0.00000000000E+00  0.00000000000E+00 -0.71054273576E-14  0.91188000000E+02  0.91188000000E+02 0.  0.
    9900012    2    3    3    0    0 -0.35412209214E+01 -0.40328539294E+02  0.19753027232E+02  0.46142318609E+02  0.10000007728E+02 0.  0.
        -12    1    3    3    0    0  0.35412209214E+01  0.40328539294E+02 -0.19753027232E+02  0.45045681391E+02  0.00000000000E+00 0.  1.
         11    1    4    4    0    0 -0.21325618744E+01 -0.33625282252E+02  0.15838572577E+02  0.37229931617E+02  0.51100000000E-03 0. -1.
        -11    1    4    4    0    0  0.28335978009E-01 -0.28908905251E+01  0.38792453988E+01  0.48380363869E+01  0.51100000000E-03 0.  1.
        -12    1    4    4    0    0 -0.14369950250E+01 -0.38123665164E+01  0.35209257083E-01  0.40743506045E+01  0.00000000000E+00 0.  1.
</event>
<event>
 8    1  0.2882335E-009  0.9118800E+02  0.7816164E-02  0.1184000E+00
        -11   -1    0    0    0    0  0.00000000000E+00  0.00000000000E+00  0.45593999997E+02  0.45594000000E+02  0.51100000000E-03 0.  1.
         11   -1    0    0    0    0 -0.00000000000E+00 -0.00000000000E+00 -0.45593999997E+02  0.45594000000E+02  0.51100000000E-03 0. -1.
         23    2    1    2    0    0  0.00000000000E+00  0.00000000000E+00  0.17763568394E-14  0.91188000000E+02  0.91188000000E+02 0.  0.
    9900012    2    3    3    0    0 -0.19924893131E+02 -0.39000837451E+02 -0.10537876402E+02  0.46142317330E+02  0.99999960727E+01 0.  0.
         12    1    3    3    0    0  0.19924893131E+02  0.39000837451E+02  0.10537876402E+02  0.45045682670E+02  0.00000000000E+00 0. -1.
         11    1    4    4    0    0 -0.24348681478E+01 -0.43986379482E+01 -0.45854302230E+01  0.68046138235E+01  0.51100000000E-03 0. -1.
        -11    1    4    4    0    0 -0.15969749152E+02 -0.33055115292E+02 -0.54743040631E+01  0.37116593865E+02  0.51100000000E-03 0.  1.
        -12    1    4    4    0    0 -0.15202758313E+01 -0.15470842107E+01 -0.47814211554E+00  0.22211096417E+01  0.00000000000E+00 0.  1.
</event>
<event>
 8    1  0.2882335E-009  0.9118800E+02  0.7816164E-02  0.1184000E+00
        -11   -1    0    0    0    0  0.00000000000E+00  0.00000000000E+00  0.45593999997E+02  0.45594000000E+02  0.51100000000E-03 0. -1.
         11   -1    0    0    0    0 -0.00000000000E+00 -0.00000000000E+00 -0.45593999997E+02  0.45594000000E+02  0.51100000000E-03 0.  1.
         23    2    1    2    0    0 -0.44408920985E-15  0.49960036108E-15  0.71054273576E-14  0.91188000000E+02  0.91188000000E+02 0.  0.
    9900012    2    3    3    0    0 -0.28036429123E+01  0.38232808713E+00  0.44956720651E+02  0.46142319630E+02  0.10000017039E+02 0.  0.
        -12    1    3    3    0    0  0.28036429123E+01 -0.38232808713E+00 -0.44956720651E+02  0.45045680370E+02  0.00000000000E+00 0.  1.
         11    1    4    4    0    0  0.16950319812E+01 -0.13019894533E+00  0.71261776312E+01  0.73261513140E+01  0.51100000000E-03 0. -1.
        -11    1    4    4    0    0 -0.11465053775E+01 -0.22915159534E+01  0.43268059273E+01  0.50285952053E+01  0.51100000000E-03 0.  1.
         12    1    4    4    0    0 -0.33521695160E+01  0.28040429859E+01  0.33503737092E+02  0.33787573110E+02  0.00000000000E+00 0. -1.
</event>
<event>
 8    1  0.2882335E-009  0.9118800E+02  0.7816164E-02  0.1184000E+00
        -11   -1    0    0    0    0  0.00000000000E+00  0.00000000000E+00  0.45593999997E+02  0.45594000000E+02  0.51100000000E-03 0. -1.
         11   -1    0    0    0    0 -0.00000000000E+00 -0.00000000000E+00 -0.45593999997E+02  0.45594000000E+02  0.51100000000E-03 0.  1.
         23    2    1    2    0    0  0.00000000000E+00  0.17763568394E-14  0.00000000000E+00  0.91188000000E+02  0.91188000000E+02 0.  0.
    9900012    2    3    3    0    0 -0.10924416068E+02 -0.12958731268E+02  0.41735378114E+02  0.46142319088E+02  0.10000012102E+02 0.  0.
        -12    1    3    3    0    0  0.10924416068E+02  0.12958731268E+02 -0.41735378114E+02  0.45045680912E+02  0.00000000000E+00 0.  1.
         11    1    4    4    0    0 -0.83663048575E+01 -0.92215503872E+01  0.27396309176E+02  0.30093019211E+02  0.51100000000E-03 0. -1.
        -11    1    4    4    0    0  0.87597914799E-01  0.71804354633E+00 -0.79711037218E-01  0.72774586201E+00  0.51100000000E-03 0.  1.
        -12    1    4    4    0    0 -0.26457091252E+01 -0.44552244270E+01  0.14418779975E+02  0.15321554015E+02  0.00000000000E+00 0.  1.
</event>
<event>
 8    1  0.2882335E-009  0.9118800E+02  0.7816164E-02  0.1184000E+00
        -11   -1    0    0    0    0  0.00000000000E+00  0.00000000000E+00  0.45593999997E+02  0.45594000000E+02  0.51100000000E-03 0. -1.
         11   -1    0    0    0    0 -0.00000000000E+00 -0.00000000000E+00 -0.45593999997E+02  0.45594000000E+02  0.51100000000E-03 0.  1.
         23    2    1    2    0    0  0.00000000000E+00  0.00000000000E+00  0.00000000000E+00  0.91188000000E+02  0.91188000000E+02 0.  0.
    9900012    2    3    3    0    0  0.77299986470E+01 -0.13736490930E+02  0.42197979829E+02  0.46142316923E+02  0.99999923605E+01 0.  0.
        -12    1    3    3    0    0 -0.77299986470E+01  0.13736490930E+02 -0.42197979829E+02  0.45045683077E+02  0.00000000000E+00 0.  1.
         11    1    4    4    0    0 -0.13990055541E+01 -0.22224529410E+01  0.50378473557E+01  0.56812340082E+01  0.51100000000E-03 0. -1.
        -11    1    4    4    0    0  0.13871446351E+01 -0.16803313388E+01  0.14398216573E+01  0.26116604513E+01  0.51100000000E-03 0.  1.
         12    1    4    4    0    0  0.77418595659E+01 -0.98337066505E+01  0.35720310816E+02  0.37849422464E+02  0.00000000000E+00 0. -1.
</event>
<event>
 8    1  0.2882335E-009  0.9118800E+02  0.7816164E-02  0.1184000E+00
        -11   -1    0    0    0    0  0.00000000000E+00  0.00000000000E+00  0.45593999997E+02  0.45594000000E+02  0.51100000000E-03 0. -1.
         11   -1    0    0    0    0 -0.00000000000E+00 -0.00000000000E+00 -0.45593999997E+02  0.45594000000E+02  0.51100000000E-03 0.  1.
         23    2    1    2    0    0 -0.44408920985E-15 -0.55511151231E-16  0.71054273576E-14  0.91188000000E+02  0.91188000000E+02 0.  0.
    9900012    2    3    3    0    0  0.35790835024E+01 -0.31759974654E+00 -0.44902137782E+02  0.46142326671E+02  0.10000081243E+02 0.  0.
         12    1    3    3    0    0 -0.35790835024E+01  0.31759974654E+00  0.44902137782E+02  0.45045673329E+02  0.00000000000E+00 0. -1.
         11    1    4    4    0    0 -0.49328508841E+00 -0.27940302490E+01 -0.55325710802E+01  0.62176585810E+01  0.51100000000E-03 0. -1.
        -11    1    4    4    0    0  0.17064163191E+01  0.57805443959E+00 -0.30452896239E+02  0.30506145171E+02  0.51100000000E-03 0.  1.
         12    1    4    4    0    0  0.23659522717E+01  0.18983760629E+01 -0.89166704631E+01  0.94185229190E+01  0.00000000000E+00 0. -1.
</event>
<event>
 8    1  0.2882335E-009  0.9118800E+02  0.7816164E-02  0.1184000E+00
        -11   -1    0    0    0    0  0.00000000000E+00  0.00000000000E+00  0.45593999997E+02  0.45594000000E+02  0.51100000000E-03 0. -1.
         11   -1    0    0    0    0 -0.00000000000E+00 -0.00000000000E+00 -0.45593999997E+02  0.45594000000E+02  0.51100000000E-03 0.  1.
         23    2    1    2    0    0 -0.71054273576E-14 -0.35527136788E-14  0.00000000000E+00  0.91188000000E+02  0.91188000000E+02 0.  0.
    9900012    2    3    3    0    0  0.36503947562E+02  0.22645081339E+02 -0.13556384515E+02  0.46142318103E+02  0.10000003114E+02 0.  0.
         12    1    3    3    0    0 -0.36503947562E+02 -0.22645081339E+02  0.13556384515E+02  0.45045681897E+02  0.00000000000E+00 0. -1.
         11    1    4    4    0    0  0.25194857399E+02  0.19314934292E+02 -0.70704092424E+01  0.32524424871E+02  0.51100000000E-03 0. -1.
        -11    1    4    4    0    0  0.69130848641E+01  0.29454105189E+01 -0.46611868352E+01  0.88426720191E+01  0.51100000000E-03 0.  1.
         12    1    4    4    0    0  0.43960052995E+01  0.38473652756E+00 -0.18247884377E+01  0.47752212129E+01  0.00000000000E+00 0. -1.
</event>
<event>
 8    1  0.2882335E-009  0.9118800E+02  0.7816164E-02  0.1184000E+00
        -11   -1    0    0    0    0  0.00000000000E+00  0.00000000000E+00  0.45593999997E+02  0.45594000000E+02  0.51100000000E-03 0. -1.
         11   -1    0    0    0    0 -0.00000000000E+00 -0.00000000000E+00 -0.45593999997E+02  0.45594000000E+02  0.51100000000E-03 0.  1.
         23    2    1    2    0    0  0.35527136788E-14  0.00000000000E+00  0.71054273576E-14  0.91188000000E+02  0.91188000000E+02 0.  0.
    9900012    2    3    3    0    0  0.22937488567E+02  0.96050419927E+01  0.37559663445E+02  0.46142317282E+02  0.99999956307E+01 0.  0.
        -12    1    3    3    0    0 -0.22937488567E+02 -0.96050419927E+01 -0.37559663445E+02  0.45045682718E+02  0.00000000000E+00 0.  1.
         11    1    4    4    0    0  0.14576165450E+02  0.71454263326E+01  0.23696472800E+02  0.28723588566E+02  0.51100000000E-03 0. -1.
        -11    1    4    4    0    0  0.47012375817E+01 -0.12943706291E+01  0.42481905473E+01  0.64671596016E+01  0.51100000000E-03 0.  1.
        -12    1    4    4    0    0  0.36600855353E+01  0.37539862892E+01  0.96150000973E+01  0.10951569114E+02  0.00000000000E+00 0.  1.
</event>
<event>
 8    1  0.2882335E-009  0.9118800E+02  0.7816164E-02  0.1184000E+00
        -11   -1    0    0    0    0  0.00000000000E+00  0.00000000000E+00  0.45593999997E+02  0.45594000000E+02  0.51100000000E-03 0. -1.
         11   -1    0    0    0    0 -0.00000000000E+00 -0.00000000000E+00 -0.45593999997E+02  0.45594000000E+02  0.51100000000E-03 0.  1.
         23    2    1    2    0    0  0.00000000000E+00  0.35527136788E-14  0.00000000000E+00  0.91188000000E+02  0.91188000000E+02 0.  0.
    9900012    2    3    3    0    0 -0.13171827048E+02  0.23872903278E+02 -0.35856673408E+02  0.46142316893E+02  0.99999920825E+01 0.  0.
         12    1    3    3    0    0  0.13171827048E+02 -0.23872903278E+02  0.35856673408E+02  0.45045683107E+02  0.00000000000E+00 0. -1.
         11    1    4    4    0    0 -0.32999391437E+01  0.50003792907E+01 -0.13193522875E+02  0.14490080660E+02  0.51100000000E-03 0. -1.
        -11    1    4    4    0    0 -0.10371076678E+02  0.18857787161E+02 -0.22477762812E+02  0.31119530674E+02  0.51100000000E-03 0.  1.
        -12    1    4    4    0    0  0.49918877366E+00  0.14736826624E-01 -0.18538772013E+00  0.53270555900E+00  0.00000000000E+00 0.  1.
</event>
<event>
 8    1  0.2882335E-009  0.9118800E+02  0.7816164E-02  0.1184000E+00
        -11   -1    0    0    0    0  0.00000000000E+00  0.00000000000E+00  0.45593999997E+02  0.45594000000E+02  0.51100000000E-03 0. -1.
         11   -1    0    0    0    0 -0.00000000000E+00 -0.00000000000E+00 -0.45593999997E+02  0.45594000000E+02  0.51100000000E-03 0.  1.
         23    2    1    2    0    0  0.17763568394E-14  0.22204460493E-15  0.00000000000E+00  0.91188000000E+02  0.91188000000E+02 0.  0.
    9900012    2    3    3    0    0  0.14324099827E+02  0.12654806579E+01 -0.42688782992E+02  0.46142317960E+02  0.10000001811E+02 0.  0.
         12    1    3    3    0    0 -0.14324099827E+02 -0.12654806579E+01  0.42688782992E+02  0.45045682040E+02  0.00000000000E+00 0. -1.
         11    1    4    4    0    0  0.22524335213E+01 -0.24930753033E+01 -0.36187588986E+01  0.49380459154E+01  0.51100000000E-03 0. -1.
        -11    1    4    4    0    0  0.15170460811E+01  0.10509161402E+01 -0.97906131942E+01  0.99630296861E+01  0.51100000000E-03 0.  1.
        -12    1    4    4    0    0  0.10554620224E+02  0.27076398211E+01 -0.29279410899E+02  0.31241242358E+02  0.00000000000E+00 0.  1.
</event>
<event>
 8    1  0.2882335E-009  0.9118800E+02  0.7816164E-02  0.1184000E+00
        -11   -1    0    0    0    0  0.00000000000E+00  0.00000000000E+00  0.45593999997E+02  0.45594000000E+02  0.51100000000E-03 0.  1.
         11   -1    0    0    0    0 -0.00000000000E+00 -0.00000000000E+00 -0.45593999997E+02  0.45594000000E+02  0.51100000000E-03 0. -1.
         23    2    1    2    0    0  0.00000000000E+00  0.00000000000E+00 -0.17763568394E-14  0.91188000000E+02  0.91188000000E+02 0.  0.
    9900012    2    3    3    0    0  0.20247747498E+02  0.38948532754E+02  0.10107125996E+02  0.46142317872E+02  0.10000001014E+02 0.  0.
        -12    1    3    3    0    0 -0.20247747498E+02 -0.38948532754E+02 -0.10107125996E+02  0.45045682128E+02  0.00000000000E+00 0.  1.
         11    1    4    4    0    0 -0.47254381968E+00  0.31755568287E+01  0.10452561870E+00  0.32122242605E+01  0.51100000000E-03 0. -1.
        -11    1    4    4    0    0  0.15373016428E+02  0.23968585872E+02  0.92876102592E+01  0.29951334651E+02  0.51100000000E-03 0.  1.
        -12    1    4    4    0    0  0.53472748894E+01  0.11804390054E+02  0.71499011757E+00  0.12978758960E+02  0.00000000000E+00 0.  1.
</event>
<event>
 8    1  0.2882335E-009  0.9118800E+02  0.7816164E-02  0.1184000E+00
        -11   -1    0    0    0    0  0.00000000000E+00  0.00000000000E+00  0.45593999997E+02  0.45594000000E+02  0.51100000000E-03 0. -1.
         11   -1    0    0    0    0 -0.00000000000E+00 -0.00000000000E+00 -0.45593999997E+02  0.45594000000E+02  0.51100000000E-03 0.  1.
         23    2    1    2    0    0  0.00000000000E+00  0.00000000000E+00 -0.71054273576E-14  0.91188000000E+02  0.91188000000E+02 0.  0.
    9900012    2    3    3    0    0  0.21088367579E+02 -0.21924979993E+02  0.33221822422E+02  0.46142317855E+02  0.10000000858E+02 0.  0.
        -12    1    3    3    0    0 -0.21088367579E+02  0.21924979993E+02 -0.33221822422E+02  0.45045682145E+02  0.00000000000E+00 0.  1.
         11    1    4    4    0    0  0.34856191358E+01 -0.51452586176E+01  0.91954132485E+01  0.11098596852E+02  0.51100000000E-03 0. -1.
        -11    1    4    4    0    0  0.49214369130E+01 -0.73221529415E+01  0.44707956004E+01  0.98905246852E+01  0.51100000000E-03 0.  1.
         12    1    4    4    0    0  0.12681311530E+02 -0.94575684336E+01  0.19555613573E+02  0.25153196318E+02  0.00000000000E+00 0. -1.
</event>
<event>
 8    1  0.2882335E-009  0.9118800E+02  0.7816164E-02  0.1184000E+00
        -11   -1    0    0    0    0  0.00000000000E+00  0.00000000000E+00  0.45593999997E+02  0.45594000000E+02  0.51100000000E-03 0. -1.
         11   -1    0    0    0    0 -0.00000000000E+00 -0.00000000000E+00 -0.45593999997E+02  0.45594000000E+02  0.51100000000E-03 0.  1.
         23    2    1    2    0    0  0.00000000000E+00  0.00000000000E+00  0.00000000000E+00  0.91188000000E+02  0.91188000000E+02 0.  0.
    9900012    2    3    3    0    0  0.84634187054E+01  0.44100520686E+02 -0.35536251063E+01  0.46142316163E+02  0.99999854231E+01 0.  0.
         12    1    3    3    0    0 -0.84634187054E+01 -0.44100520686E+02  0.35536251063E+01  0.45045683837E+02  0.00000000000E+00 0. -1.
         11    1    4    4    0    0  0.14525386951E+01  0.40418708739E+01 -0.15151701690E+01  0.45543747896E+01  0.51100000000E-03 0. -1.
        -11    1    4    4    0    0  0.11888686581E+01  0.43398310251E+01 -0.29600119841E+01  0.53860201652E+01  0.51100000000E-03 0.  1.
        -12    1    4    4    0    0  0.58220113523E+01  0.35718818787E+02  0.92155704676E+00  0.36201921208E+02  0.00000000000E+00 0.  1.
</event>
<event>
 8    1  0.2882335E-009  0.9118800E+02  0.7816164E-02  0.1184000E+00
        -11   -1    0    0    0    0  0.00000000000E+00  0.00000000000E+00  0.45593999997E+02  0.45594000000E+02  0.51100000000E-03 0. -1.
         11   -1    0    0    0    0 -0.00000000000E+00 -0.00000000000E+00 -0.45593999997E+02  0.45594000000E+02  0.51100000000E-03 0.  1.
         23    2    1    2    0    0  0.00000000000E+00  0.00000000000E+00  0.00000000000E+00  0.91188000000E+02  0.91188000000E+02 0.  0.
    9900012    2    3    3    0    0  0.27151237704E+02  0.14453940604E+02  0.32909077365E+02  0.46142317845E+02  0.10000000764E+02 0.  0.
        -12    1    3    3    0    0 -0.27151237704E+02 -0.14453940604E+02 -0.32909077365E+02  0.45045682155E+02  0.00000000000E+00 0.  1.
         11    1    4    4    0    0  0.34907911285E+01 -0.21921587652E+00  0.20696826864E+01  0.40641438196E+01  0.51100000000E-03 0. -1.
        -11    1    4    4    0    0  0.39260784598E+01  0.56905120423E+01  0.66349742941E+01  0.95822180898E+01  0.51100000000E-03 0.  1.
         12    1    4    4    0    0  0.19734368115E+02  0.89826444381E+01  0.24204420384E+02  0.32495955935E+02  0.00000000000E+00 0. -1.
</event>
<event>
 8    1  0.2882335E-009  0.9118800E+02  0.7816164E-02  0.1184000E+00
        -11   -1    0    0    0    0  0.00000000000E+00  0.00000000000E+00  0.45593999997E+02  0.45594000000E+02  0.51100000000E-03 0. -1.
         11   -1    0    0    0    0 -0.00000000000E+00 -0.00000000000E+00 -0.45593999997E+02  0.45594000000E+02  0.51100000000E-03 0.  1.
         23    2    1    2    0    0  0.00000000000E+00  0.00000000000E+00  0.00000000000E+00  0.91188000000E+02  0.91188000000E+02 0.  0.
    9900012    2    3    3    0    0  0.36017488709E+02  0.10077387720E+02  0.25105779654E+02  0.46142318651E+02  0.10000008112E+02 0.  0.
        -12    1    3    3    0    0 -0.36017488709E+02 -0.10077387720E+02 -0.25105779654E+02  0.45045681349E+02  0.00000000000E+00 0.  1.
         11    1    4    4    0    0  0.13089605277E+02  0.53296095913E+00  0.12238981732E+02  0.17928036362E+02  0.51100000000E-03 0. -1.
        -11    1    4    4    0    0  0.81147589214E+01  0.32192065881E+01  0.25824034254E+01  0.91039228425E+01  0.51100000000E-03 0.  1.
         12    1    4    4    0    0  0.14813124511E+02  0.63252201731E+01  0.10284394496E+02  0.19110359446E+02  0.00000000000E+00 0. -1.
</event>
<event>
 8    1  0.2882335E-009  0.9118800E+02  0.7816164E-02  0.1184000E+00
        -11   -1    0    0    0    0  0.00000000000E+00  0.00000000000E+00  0.45593999997E+02  0.45594000000E+02  0.51100000000E-03 0.  1.
         11   -1    0    0    0    0 -0.00000000000E+00 -0.00000000000E+00 -0.45593999997E+02  0.45594000000E+02  0.51100000000E-03 0. -1.
         23    2    1    2    0    0 -0.71054273576E-14  0.22204460493E-15 -0.35527136788E-14  0.91188000000E+02  0.91188000000E+02 0.  0.
    9900012    2    3    3    0    0  0.40422774391E+02 -0.95611296568E+00  0.19854437746E+02  0.46142317192E+02  0.99999948084E+01 0.  0.
        -12    1    3    3    0    0 -0.40422774391E+02  0.95611296568E+00 -0.19854437746E+02  0.45045682808E+02  0.00000000000E+00 0.  1.
         11    1    4    4    0    0  0.23866165831E+02  0.38258585525E+01  0.11754925301E+02  0.26877673527E+02  0.51100000000E-03 0. -1.
        -11    1    4    4    0    0  0.30343310270E+01 -0.12881462984E+01  0.41124593716E+00  0.33219887341E+01  0.51100000000E-03 0.  1.
        -12    1    4    4    0    0  0.13522277533E+02 -0.34938252198E+01  0.76882665079E+01  0.15942654931E+02  0.00000000000E+00 0.  1.
</event>
<event>
 8    1  0.2882335E-009  0.9118800E+02  0.7816164E-02  0.1184000E+00
        -11   -1    0    0    0    0  0.00000000000E+00  0.00000000000E+00  0.45593999997E+02  0.45594000000E+02  0.51100000000E-03 0. -1.
         11   -1    0    0    0    0 -0.00000000000E+00 -0.00000000000E+00 -0.45593999997E+02  0.45594000000E+02  0.51100000000E-03 0.  1.
         23    2    1    2    0    0  0.00000000000E+00  0.00000000000E+00  0.35527136788E-14  0.91188000000E+02  0.91188000000E+02 0.  0.
    9900012    2    3    3    0    0  0.19743776653E+02  0.31897733834E+02  0.24936546643E+02  0.46142317646E+02  0.99999989490E+01 0.  0.
        -12    1    3    3    0    0 -0.19743776653E+02 -0.31897733834E+02 -0.24936546643E+02  0.45045682354E+02  0.00000000000E+00 0.  1.
         11    1    4    4    0    0  0.14880243386E+02  0.17103895066E+02  0.10973965188E+02  0.25187155097E+02  0.51100000000E-03 0. -1.
        -11    1    4    4    0    0  0.32547269545E+01  0.11156154065E+02  0.98535443097E+01  0.15236317035E+02  0.51100000000E-03 0.  1.
         12    1    4    4    0    0  0.16088063126E+01  0.36376847028E+01  0.41090371461E+01  0.57188455142E+01  0.00000000000E+00 0. -1.
</event>
<event>
 8    1  0.2882335E-009  0.9118800E+02  0.7816164E-02  0.1184000E+00
        -11   -1    0    0    0    0  0.00000000000E+00  0.00000000000E+00  0.45593999997E+02  0.45594000000E+02  0.51100000000E-03 0. -1.
         11   -1    0    0    0    0 -0.00000000000E+00 -0.00000000000E+00 -0.45593999997E+02  0.45594000000E+02  0.51100000000E-03 0.  1.
         23    2    1    2    0    0  0.00000000000E+00  0.00000000000E+00  0.00000000000E+00  0.91188000000E+02  0.91188000000E+02 0.  0.
    9900012    2    3    3    0    0  0.36141438044E+02  0.21445641399E+02  0.16217105275E+02  0.46142316717E+02  0.99999904809E+01 0.  0.
        -12    1    3    3    0    0 -0.36141438044E+02 -0.21445641399E+02 -0.16217105275E+02  0.45045683283E+02  0.00000000000E+00 0.  1.
         11    1    4    4    0    0  0.20492646478E+02  0.11441951902E+02  0.99074614992E+01  0.25475961544E+02  0.51100000000E-03 0. -1.
        -11    1    4    4    0    0  0.87795476225E+00  0.34157109169E+00 -0.11652787083E+01  0.14984492331E+01  0.51100000000E-03 0.  1.
        -12    1    4    4    0    0  0.14770836805E+02  0.96621184047E+01  0.74749224840E+01  0.19167905940E+02  0.00000000000E+00 0.  1.
</event>
<event>
 8    1  0.2882335E-009  0.9118800E+02  0.7816164E-02  0.1184000E+00
        -11   -1    0    0    0    0  0.00000000000E+00  0.00000000000E+00  0.45593999997E+02  0.45594000000E+02  0.51100000000E-03 0. -1.
         11   -1    0    0    0    0 -0.00000000000E+00 -0.00000000000E+00 -0.45593999997E+02  0.45594000000E+02  0.51100000000E-03 0.  1.
         23    2    1    2    0    0  0.00000000000E+00  0.00000000000E+00  0.00000000000E+00  0.91188000000E+02  0.91188000000E+02 0.  0.
    9900012    2    3    3    0    0 -0.36413940113E+02  0.26434460699E+02 -0.20874831377E+01  0.46142319487E+02  0.10000015740E+02 0.  0.
         12    1    3    3    0    0  0.36413940113E+02 -0.26434460699E+02  0.20874831377E+01  0.45045680513E+02  0.00000000000E+00 0. -1.
         11    1    4    4    0    0 -0.39628672516E+01  0.48386151153E+00  0.90080209675E+00  0.40926621525E+01  0.51100000000E-03 0. -1.
        -11    1    4    4    0    0 -0.15825425597E+02  0.91543227666E+01 -0.54488361508E+00  0.18290506255E+02  0.51100000000E-03 0.  1.
        -12    1    4    4    0    0 -0.16625647265E+02  0.16796276421E+02 -0.24434016193E+01  0.23759151080E+02  0.00000000000E+00 0.  1.
</event>
<event>
 8    1  0.2882335E-009  0.9118800E+02  0.7816164E-02  0.1184000E+00
        -11   -1    0    0    0    0  0.00000000000E+00  0.00000000000E+00  0.45593999997E+02  0.45594000000E+02  0.51100000000E-03 0. -1.
         11   -1    0    0    0    0 -0.00000000000E+00 -0.00000000000E+00 -0.45593999997E+02  0.45594000000E+02  0.51100000000E-03 0.  1.
         23    2    1    2    0    0  0.44408920985E-15  0.71054273576E-14  0.17763568394E-14  0.91188000000E+02  0.91188000000E+02 0.  0.
    9900012    2    3    3    0    0  0.22742823777E+01  0.42162660685E+02  0.15692408349E+02  0.46142312125E+02  0.99999486049E+01 0.  0.
        -12    1    3    3    0    0 -0.22742823777E+01 -0.42162660685E+02 -0.15692408349E+02  0.45045687875E+02  0.00000000000E+00 0.  1.
         11    1    4    4    0    0  0.12001953253E+01  0.12957000780E+02  0.21736553267E+01  0.13192767556E+02  0.51100000000E-03 0. -1.
        -11    1    4    4    0    0  0.33362303971E+01  0.73353005437E+01  0.38383038357E+01  0.89257853394E+01  0.51100000000E-03 0.  1.
         12    1    4    4    0    0 -0.22621433447E+01  0.21870359361E+02  0.96804491863E+01  0.24023759230E+02  0.00000000000E+00 0. -1.
</event>
<event>
 8    1  0.2882335E-009  0.9118800E+02  0.7816164E-02  0.1184000E+00
        -11   -1    0    0    0    0  0.00000000000E+00  0.00000000000E+00  0.45593999997E+02  0.45594000000E+02  0.51100000000E-03 0. -1.
         11   -1    0    0    0    0 -0.00000000000E+00 -0.00000000000E+00 -0.45593999997E+02  0.45594000000E+02  0.51100000000E-03 0.  1.
         23    2    1    2    0    0  0.00000000000E+00  0.00000000000E+00 -0.35527136788E-14  0.91188000000E+02  0.91188000000E+02 0.  0.
    9900012    2    3    3    0    0  0.35312725792E+02 -0.25713516029E+01 -0.27848033821E+02  0.46142318302E+02  0.10000004933E+02 0.  0.
         12    1    3    3    0    0 -0.35312725792E+02  0.25713516029E+01  0.27848033821E+02  0.45045681698E+02  0.00000000000E+00 0. -1.
         11    1    4    4    0    0  0.15105205527E+02  0.15940421602E+01 -0.14923311821E+02  0.21293507001E+02  0.51100000000E-03 0. -1.
        -11    1    4    4    0    0  0.11289202853E+01  0.91833259669E+00 -0.11955706801E+01  0.18833972711E+01  0.51100000000E-03 0.  1.
        -12    1    4    4    0    0  0.19078599980E+02 -0.50837263598E+01 -0.11729151319E+02  0.22965414030E+02  0.00000000000E+00 0.  1.
</event>
<event>
 8    1  0.2882335E-009  0.9118800E+02  0.7816164E-02  0.1184000E+00
        -11   -1    0    0    0    0  0.00000000000E+00  0.00000000000E+00  0.45593999997E+02  0.45594000000E+02  0.51100000000E-03 0. -1.
         11   -1    0    0    0    0 -0.00000000000E+00 -0.00000000000E+00 -0.45593999997E+02  0.45594000000E+02  0.51100000000E-03 0.  1.
         23    2    1    2    0    0 -0.71054273576E-14  0.00000000000E+00  0.00000000000E+00  0.91188000000E+02  0.91188000000E+02 0.  0.
    9900012    2    3    3    0    0  0.31050783444E+02  0.18491982385E+02  0.26888827747E+02  0.46142316271E+02  0.99999864115E+01 0.  0.
        -12    1    3    3    0    0 -0.31050783444E+02 -0.18491982385E+02 -0.26888827747E+02  0.45045683729E+02  0.00000000000E+00 0.  1.
         11    1    4    4    0    0  0.27909531125E+02  0.14003006423E+02  0.22184487549E+02  0.38303754445E+02  0.51100000000E-03 0. -1.
        -11    1    4    4    0    0  0.15536213719E+01  0.23764613664E+01  0.43180752499E+01  0.51678895226E+01  0.51100000000E-03 0.  1.
         12    1    4    4    0    0  0.15876309477E+01  0.21125145960E+01  0.38626494761E+00  0.26706723038E+01  0.00000000000E+00 0. -1.
</event>
<event>
 8    1  0.2882335E-009  0.9118800E+02  0.7816164E-02  0.1184000E+00
        -11   -1    0    0    0    0  0.00000000000E+00  0.00000000000E+00  0.45593999997E+02  0.45594000000E+02  0.51100000000E-03 0. -1.
         11   -1    0    0    0    0 -0.00000000000E+00 -0.00000000000E+00 -0.45593999997E+02  0.45594000000E+02  0.51100000000E-03 0.  1.
         23    2    1    2    0    0  0.00000000000E+00  0.00000000000E+00  0.00000000000E+00  0.91188000000E+02  0.91188000000E+02 0.  0.
    9900012    2    3    3    0    0 -0.30900577999E+02 -0.14836905030E+02  0.29225570731E+02  0.46142318119E+02  0.10000003268E+02 0.  0.
        -12    1    3    3    0    0  0.30900577999E+02  0.14836905030E+02 -0.29225570731E+02  0.45045681881E+02  0.00000000000E+00 0.  1.
         11    1    4    4    0    0 -0.59975116295E+01 -0.26799351934E+01  0.47563706904E+01  0.81101948677E+01  0.51100000000E-03 0. -1.
        -11    1    4    4    0    0 -0.52162381123E+01 -0.34196742056E+01  0.10951172953E+02  0.12602837023E+02  0.51100000000E-03 0.  1.
        -12    1    4    4    0    0 -0.19686828257E+02 -0.87372956314E+01  0.13518027087E+02  0.25429286229E+02  0.00000000000E+00 0.  1.
</event>
<event>
 8    1  0.2882335E-009  0.9118800E+02  0.7816164E-02  0.1184000E+00
        -11   -1    0    0    0    0  0.00000000000E+00  0.00000000000E+00  0.45593999997E+02  0.45594000000E+02  0.51100000000E-03 0. -1.
         11   -1    0    0    0    0 -0.00000000000E+00 -0.00000000000E+00 -0.45593999997E+02  0.45594000000E+02  0.51100000000E-03 0.  1.
         23    2    1    2    0    0  0.00000000000E+00  0.00000000000E+00  0.71054273576E-14  0.91188000000E+02  0.91188000000E+02 0.  0.
    9900012    2    3    3    0    0 -0.36885610682E+02  0.29173438735E+01 -0.25691522083E+02  0.46142317881E+02  0.10000001090E+02 0.  0.
         12    1    3    3    0    0  0.36885610682E+02 -0.29173438735E+01  0.25691522083E+02  0.45045682119E+02  0.00000000000E+00 0. -1.
         11    1    4    4    0    0 -0.63821720654E-01  0.56822874829E+00  0.31430759484E+00  0.65249264188E+00  0.51100000000E-03 0. -1.
        -11    1    4    4    0    0 -0.33683575696E+02  0.28514754608E+01 -0.21821868580E+02  0.40235657477E+02  0.51100000000E-03 0.  1.
         12    1    4    4    0    0 -0.31382132648E+01 -0.50236033559E+00 -0.41839610982E+01  0.52541677622E+01  0.00000000000E+00 0. -1.
</event>
<event>
 8    1  0.2882335E-009  0.9118800E+02  0.7816164E-02  0.1184000E+00
        -11   -1    0    0    0    0  0.00000000000E+00  0.00000000000E+00  0.45593999997E+02  0.45594000000E+02  0.51100000000E-03 0. -1.
         11   -1    0    0    0    0 -0.00000000000E+00 -0.00000000000E+00 -0.45593999997E+02  0.45594000000E+02  0.51100000000E-03 0.  1.
         23    2    1    2    0    0  0.00000000000E+00  0.17763568394E-14  0.00000000000E+00  0.91188000000E+02  0.91188000000E+02 0.  0.
    9900012    2    3    3    0    0  0.27714189696E+02 -0.74299647107E+01 -0.34725102538E+02  0.46142318383E+02  0.10000005669E+02 0.  0.
         12    1    3    3    0    0 -0.27714189696E+02  0.74299647107E+01  0.34725102538E+02  0.45045681617E+02  0.00000000000E+00 0. -1.
         11    1    4    4    0    0  0.13882658290E+02 -0.10073657422E+01 -0.12949781043E+02  0.19011570589E+02  0.51100000000E-03 0. -1.
        -11    1    4    4    0    0  0.63779496295E+01 -0.59083077172E+01 -0.12353772233E+02  0.15106357278E+02  0.51100000000E-03 0.  1.
        -12    1    4    4    0    0  0.74535817761E+01 -0.51429125127E+00 -0.94215492622E+01  0.12024390516E+02  0.00000000000E+00 0.  1.
</event>
<event>
 8    1  0.2882335E-009  0.9118800E+02  0.7816164E-02  0.1184000E+00
        -11   -1    0    0    0    0  0.00000000000E+00  0.00000000000E+00  0.45593999997E+02  0.45594000000E+02  0.51100000000E-03 0.  1.
         11   -1    0    0    0    0 -0.00000000000E+00 -0.00000000000E+00 -0.45593999997E+02  0.45594000000E+02  0.51100000000E-03 0. -1.
         23    2    1    2    0    0  0.00000000000E+00 -0.17763568394E-14  0.88817841970E-15  0.91188000000E+02  0.91188000000E+02 0.  0.
    9900012    2    3    3    0    0 -0.43704411572E+02 -0.92867784928E+01 -0.57265866991E+01  0.46142316069E+02  0.99999845697E+01 0.  0.
         12    1    3    3    0    0  0.43704411572E+02  0.92867784928E+01  0.57265866991E+01  0.45045683931E+02  0.00000000000E+00 0. -1.
         11    1    4    4    0    0 -0.91506093942E+00  0.98917502586E+00 -0.22839801479E+00  0.13667368689E+01  0.51100000000E-03 0. -1.
        -11    1    4    4    0    0 -0.13265448748E+02 -0.81846278562E+00 -0.32523996293E-02  0.13290674274E+02  0.51100000000E-03 0.  1.
         12    1    4    4    0    0 -0.29523901884E+02 -0.94574907330E+01 -0.54949362846E+01  0.31484904926E+02  0.00000000000E+00 0. -1.
</event>
<event>
 8    1  0.2882335E-009  0.9118800E+02  0.7816164E-02  0.1184000E+00
        -11   -1    0    0    0    0  0.00000000000E+00  0.00000000000E+00  0.45593999997E+02  0.45594000000E+02  0.51100000000E-03 0. -1.
         11   -1    0    0    0    0 -0.00000000000E+00 -0.00000000000E+00 -0.45593999997E+02  0.45594000000E+02  0.51100000000E-03 0.  1.
         23    2    1    2    0    0  0.00000000000E+00 -0.35527136788E-14  0.00000000000E+00  0.91188000000E+02  0.91188000000E+02 0.  0.
    9900012    2    3    3    0    0  0.85894420928E+01 -0.20286945817E+02  0.39290899315E+02  0.46142318131E+02  0.10000003376E+02 0.  0.
        -12    1    3    3    0    0 -0.85894420928E+01  0.20286945817E+02 -0.39290899315E+02  0.45045681869E+02  0.00000000000E+00 0.  1.
         11    1    4    4    0    0  0.37791106605E+00 -0.89699874158E+01  0.12181018272E+02  0.15132108162E+02  0.51100000000E-03 0. -1.
        -11    1    4    4    0    0  0.39747408600E+01 -0.96874349052E+01  0.17770308483E+02  0.20625926010E+02  0.51100000000E-03 0.  1.
        -12    1    4    4    0    0  0.42367901668E+01 -0.16295234955E+01  0.93395725601E+01  0.10384283959E+02  0.00000000000E+00 0.  1.
</event>
<event>
 8    1  0.2882335E-009  0.9118800E+02  0.7816164E-02  0.1184000E+00
        -11   -1    0    0    0    0  0.00000000000E+00  0.00000000000E+00  0.45593999997E+02  0.45594000000E+02  0.51100000000E-03 0. -1.
         11   -1    0    0    0    0 -0.00000000000E+00 -0.00000000000E+00 -0.45593999997E+02  0.45594000000E+02  0.51100000000E-03 0.  1.
         23    2    1    2    0    0 -0.44408920985E-15  0.00000000000E+00 -0.35527136788E-14  0.91188000000E+02  0.91188000000E+02 0.  0.
    9900012    2    3    3    0    0 -0.32600618425E+01  0.37770408983E+02  0.24328620964E+02  0.46142316567E+02  0.99999891105E+01 0.  0.
        -12    1    3    3    0    0  0.32600618425E+01 -0.37770408983E+02 -0.24328620964E+02  0.45045683433E+02  0.00000000000E+00 0.  1.
         11    1    4    4    0    0 -0.56987734721E+01  0.12747611338E+02  0.10202115795E+02  0.17293373901E+02  0.51100000000E-03 0. -1.
        -11    1    4    4    0    0  0.22327969427E+01  0.21382259213E+02  0.12341995359E+02  0.24789337243E+02  0.51100000000E-03 0.  1.
         12    1    4    4    0    0  0.20591468687E+00  0.36405384315E+01  0.17845098100E+01  0.40596054231E+01  0.00000000000E+00 0. -1.
</event>
<event>
 8    1  0.2882335E-009  0.9118800E+02  0.7816164E-02  0.1184000E+00
        -11   -1    0    0    0    0  0.00000000000E+00  0.00000000000E+00  0.45593999997E+02  0.45594000000E+02  0.51100000000E-03 0.  1.
         11   -1    0    0    0    0 -0.00000000000E+00 -0.00000000000E+00 -0.45593999997E+02  0.45594000000E+02  0.51100000000E-03 0. -1.
         23    2    1    2    0    0 -0.35527136788E-14  0.00000000000E+00  0.00000000000E+00  0.91188000000E+02  0.91188000000E+02 0.  0.
    9900012    2    3    3    0    0  0.16977165925E+02 -0.40545655458E+02  0.98457675743E+01  0.46142317871E+02  0.10000001003E+02 0.  0.
        -12    1    3    3    0    0 -0.16977165925E+02  0.40545655458E+02 -0.98457675743E+01  0.45045682129E+02  0.00000000000E+00 0.  1.
         11    1    4    4    0    0  0.87157227137E+01 -0.19583744469E+02  0.23153862591E+01  0.21560331251E+02  0.51100000000E-03 0. -1.
        -11    1    4    4    0    0  0.25455659008E+00 -0.36977516395E+01  0.35650040630E+01  0.51427055598E+01  0.51100000000E-03 0.  1.
        -12    1    4    4    0    0  0.80068866213E+01 -0.17264159349E+02  0.39653772522E+01  0.19439281061E+02  0.00000000000E+00 0.  1.
</event>
<event>
 8    1  0.2882335E-009  0.9118800E+02  0.7816164E-02  0.1184000E+00
        -11   -1    0    0    0    0  0.00000000000E+00  0.00000000000E+00  0.45593999997E+02  0.45594000000E+02  0.51100000000E-03 0. -1.
         11   -1    0    0    0    0 -0.00000000000E+00 -0.00000000000E+00 -0.45593999997E+02  0.45594000000E+02  0.51100000000E-03 0.  1.
         23    2    1    2    0    0  0.00000000000E+00  0.00000000000E+00 -0.35527136788E-14  0.91188000000E+02  0.91188000000E+02 0.  0.
    9900012    2    3    3    0    0 -0.39941081337E+02 -0.10656027447E+02 -0.17896161012E+02  0.46142317873E+02  0.10000001020E+02 0.  0.
         12    1    3    3    0    0  0.39941081337E+02  0.10656027447E+02  0.17896161012E+02  0.45045682127E+02  0.00000000000E+00 0. -1.
         11    1    4    4    0    0 -0.22056275190E+02 -0.68651994612E+01 -0.61687810640E+01  0.23909498091E+02  0.51100000000E-03 0.  1.
        -11    1    4    4    0    0 -0.75900758727E+01 -0.38816564420E+01 -0.43772717039E+01  0.95831631687E+01  0.51100000000E-03 0. -1.
         12    1    4    4    0    0 -0.10294730274E+02  0.90828456014E-01 -0.73501082439E+01  0.12649656613E+02  0.00000000000E+00 0. -1.
</event>
<event>
 8    1  0.2882335E-009  0.9118800E+02  0.7816164E-02  0.1184000E+00
        -11   -1    0    0    0    0  0.00000000000E+00  0.00000000000E+00  0.45593999997E+02  0.45594000000E+02  0.51100000000E-03 0. -1.
         11   -1    0    0    0    0 -0.00000000000E+00 -0.00000000000E+00 -0.45593999997E+02  0.45594000000E+02  0.51100000000E-03 0.  1.
         23    2    1    2    0    0  0.00000000000E+00  0.00000000000E+00  0.00000000000E+00  0.91188000000E+02  0.91188000000E+02 0.  0.
    9900012    2    3    3    0    0  0.20280189359E+02  0.83448797373E+01 -0.39347046929E+02  0.46142320959E+02  0.10000029157E+02 0.  0.
         12    1    3    3    0    0 -0.20280189359E+02 -0.83448797373E+01  0.39347046929E+02  0.45045679041E+02  0.00000000000E+00 0. -1.
         11    1    4    4    0    0  0.11972311017E+01 -0.17185336666E+01 -0.15641887672E+01  0.26140786205E+01  0.51100000000E-03 0. -1.
        -11    1    4    4    0    0  0.68304972579E+01  0.42784679928E+01 -0.14530867537E+02  0.16616470528E+02  0.51100000000E-03 0.  1.
         12    1    4    4    0    0  0.12252461000E+02  0.57849454110E+01 -0.23251990625E+02  0.26911771810E+02  0.00000000000E+00 0. -1.
</event>
<event>
 8    1  0.2882335E-009  0.9118800E+02  0.7816164E-02  0.1184000E+00
        -11   -1    0    0    0    0  0.00000000000E+00  0.00000000000E+00  0.45593999997E+02  0.45594000000E+02  0.51100000000E-03 0. -1.
         11   -1    0    0    0    0 -0.00000000000E+00 -0.00000000000E+00 -0.45593999997E+02  0.45594000000E+02  0.51100000000E-03 0.  1.
         23    2    1    2    0    0 -0.17763568394E-14  0.44408920985E-15  0.00000000000E+00  0.91188000000E+02  0.91188000000E+02 0.  0.
    9900012    2    3    3    0    0 -0.13357410826E+02  0.24184874043E+01  0.42951646211E+02  0.46142318547E+02  0.10000007169E+02 0.  0.
        -12    1    3    3    0    0  0.13357410826E+02 -0.24184874043E+01 -0.42951646211E+02  0.45045681453E+02  0.00000000000E+00 0.  1.
         11    1    4    4    0    0 -0.13615910306E+02  0.36411125000E+01  0.32092461400E+02  0.35051059794E+02  0.51100000000E-03 0. -1.
        -11    1    4    4    0    0  0.24497947329E-01  0.50862502193E+00  0.23288201427E+01  0.23838420838E+01  0.51100000000E-03 0.  1.
         12    1    4    4    0    0  0.23400153245E+00 -0.17312501176E+01  0.85303646678E+01  0.87074166693E+01  0.00000000000E+00 0. -1.
</event>
<event>
 8    1  0.2882335E-009  0.9118800E+02  0.7816164E-02  0.1184000E+00
        -11   -1    0    0    0    0  0.00000000000E+00  0.00000000000E+00  0.45593999997E+02  0.45594000000E+02  0.51100000000E-03 0. -1.
         11   -1    0    0    0    0 -0.00000000000E+00 -0.00000000000E+00 -0.45593999997E+02  0.45594000000E+02  0.51100000000E-03 0.  1.
         23    2    1    2    0    0  0.88817841970E-15 -0.71054273576E-14  0.00000000000E+00  0.91188000000E+02  0.91188000000E+02 0.  0.
    9900012    2    3    3    0    0 -0.76617007975E+01 -0.33657104811E+02 -0.28941510014E+02  0.46142319128E+02  0.10000012462E+02 0.  0.
         12    1    3    3    0    0  0.76617007975E+01  0.33657104811E+02  0.28941510014E+02  0.45045680872E+02  0.00000000000E+00 0. -1.
         11    1    4    4    0    0 -0.18641233324E+01 -0.90238465705E+01 -0.11930838609E+02  0.15074802583E+02  0.51100000000E-03 0. -1.
        -11    1    4    4    0    0 -0.16392647787E+01 -0.33882689109E+01 -0.40837695217E+00  0.37860701557E+01  0.51100000000E-03 0.  1.
         12    1    4    4    0    0 -0.41583126864E+01 -0.21244989329E+02 -0.16602294452E+02  0.27281446389E+02  0.00000000000E+00 0. -1.
</event>
<event>
 8    1  0.3129896E-009  0.9118800E+02  0.7816164E-02  0.1184000E+00
        -11   -1    0    0    0    0  0.00000000000E+00  0.00000000000E+00  0.45593999997E+02  0.45594000000E+02  0.51100000000E-03 0. -1.
         11   -1    0    0    0    0 -0.00000000000E+00 -0.00000000000E+00 -0.45593999997E+02  0.45594000000E+02  0.51100000000E-03 0.  1.
         23    2    1    2    0    0  0.00000000000E+00  0.00000000000E+00 -0.35527136788E-14  0.91188000000E+02  0.91188000000E+02 0.  0.
    9900012    2    3    3    0    0 -0.27605392172E+02  0.23306815062E+02 -0.26904426213E+02  0.46142318130E+02  0.10000003363E+02 0.  0.
         12    1    3    3    0    0  0.27605392172E+02 -0.23306815062E+02  0.26904426213E+02  0.45045681870E+02  0.00000000000E+00 0. -1.
         11    1    4    4    0    0 -0.37248366188E+01  0.68469477342E+00 -0.36290935014E+01  0.52453345625E+01  0.51100000000E-03 0. -1.
        -11    1    4    4    0    0 -0.21430213764E+02  0.17866626613E+02 -0.17089792868E+02  0.32718976589E+02  0.51100000000E-03 0.  1.
        -12    1    4    4    0    0 -0.24503417887E+01  0.47554936749E+01 -0.61855398436E+01  0.81780069779E+01  0.00000000000E+00 0.  1.
</event>
<event>
 8    1  0.2882335E-009  0.9118800E+02  0.7816164E-02  0.1184000E+00
        -11   -1    0    0    0    0  0.00000000000E+00  0.00000000000E+00  0.45593999997E+02  0.45594000000E+02  0.51100000000E-03 0. -1.
         11   -1    0    0    0    0 -0.00000000000E+00 -0.00000000000E+00 -0.45593999997E+02  0.45594000000E+02  0.51100000000E-03 0.  1.
         23    2    1    2    0    0  0.00000000000E+00  0.00000000000E+00  0.00000000000E+00  0.91188000000E+02  0.91188000000E+02 0.  0.
    9900012    2    3    3    0    0 -0.16032078640E+02  0.32674091379E+02 -0.26542226749E+02  0.46142316591E+02  0.99999893310E+01 0.  0.
         12    1    3    3    0    0  0.16032078640E+02 -0.32674091379E+02  0.26542226749E+02  0.45045683409E+02  0.00000000000E+00 0. -1.
         11    1    4    4    0    0 -0.85235125937E+01  0.14145467440E+02 -0.15060367222E+02  0.22350820503E+02  0.51100000000E-03 0. -1.
        -11    1    4    4    0    0 -0.44826672820E+01  0.11038760170E+02 -0.10051460695E+02  0.15587828406E+02  0.51100000000E-03 0.  1.
         12    1    4    4    0    0 -0.30258987644E+01  0.74898637695E+01 -0.14303988312E+01  0.82036676819E+01  0.00000000000E+00 0. -1.
</event>
<event>
 8    1  0.3685940E-009  0.9118800E+02  0.7816164E-02  0.1184000E+00
        -11   -1    0    0    0    0  0.00000000000E+00  0.00000000000E+00  0.45593999997E+02  0.45594000000E+02  0.51100000000E-03 0. -1.
         11   -1    0    0    0    0 -0.00000000000E+00 -0.00000000000E+00 -0.45593999997E+02  0.45594000000E+02  0.51100000000E-03 0.  1.
         23    2    1    2    0    0 -0.35527136788E-14  0.00000000000E+00  0.00000000000E+00  0.91188000000E+02  0.91188000000E+02 0.  0.
    9900012    2    3    3    0    0  0.20011814098E+02 -0.38737627078E+01 -0.40170072551E+02  0.46142317968E+02  0.10000001883E+02 0.  0.
         12    1    3    3    0    0 -0.20011814098E+02  0.38737627078E+01  0.40170072551E+02  0.45045682032E+02  0.00000000000E+00 0. -1.
         11    1    4    4    0    0  0.11353112909E+01 -0.13186351270E+01 -0.10901890007E+01  0.20533491286E+01  0.51100000000E-03 0. -1.
        -11    1    4    4    0    0  0.18291538186E+02 -0.41031170584E+01 -0.35519585917E+02  0.40162879911E+02  0.51100000000E-03 0.  1.
        -12    1    4    4    0    0  0.58496462139E+00  0.15479894776E+01 -0.35602976336E+01  0.39260889280E+01  0.00000000000E+00 0.  1.
</event>
<event>
 8    1  0.2882335E-009  0.9118800E+02  0.7816164E-02  0.1184000E+00
        -11   -1    0    0    0    0  0.00000000000E+00  0.00000000000E+00  0.45593999997E+02  0.45594000000E+02  0.51100000000E-03 0.  1.
         11   -1    0    0    0    0 -0.00000000000E+00 -0.00000000000E+00 -0.45593999997E+02  0.45594000000E+02  0.51100000000E-03 0. -1.
         23    2    1    2    0    0  0.00000000000E+00  0.00000000000E+00 -0.17763568394E-14  0.91188000000E+02  0.91188000000E+02 0.  0.
    9900012    2    3    3    0    0 -0.37257551073E+02  0.23251153491E+02 -0.10018594451E+02  0.46142317794E+02  0.10000000301E+02 0.  0.
         12    1    3    3    0    0  0.37257551073E+02 -0.23251153491E+02  0.10018594451E+02  0.45045682206E+02  0.00000000000E+00 0. -1.
         11    1    4    4    0    0 -0.35386931452E+01  0.15923460538E+01  0.10019021221E+01  0.40077079802E+01  0.51100000000E-03 0. -1.
        -11    1    4    4    0    0 -0.19228965003E+02  0.11777512947E+02 -0.26602897282E+01  0.22705506997E+02  0.51100000000E-03 0.  1.
        -12    1    4    4    0    0 -0.14489892925E+02  0.98812944904E+01 -0.83602068446E+01  0.19429102817E+02  0.00000000000E+00 0.  1.
</event>
<event>
 8    1  0.2882335E-009  0.9118800E+02  0.7816164E-02  0.1184000E+00
        -11   -1    0    0    0    0  0.00000000000E+00  0.00000000000E+00  0.45593999997E+02  0.45594000000E+02  0.51100000000E-03 0. -1.
         11   -1    0    0    0    0 -0.00000000000E+00 -0.00000000000E+00 -0.45593999997E+02  0.45594000000E+02  0.51100000000E-03 0.  1.
         23    2    1    2    0    0  0.00000000000E+00 -0.35527136788E-14  0.35527136788E-14  0.91188000000E+02  0.91188000000E+02 0.  0.
    9900012    2    3    3    0    0 -0.21042779400E+02 -0.31578162939E+02  0.24272092920E+02  0.46142318362E+02  0.10000005482E+02 0.  0.
        -12    1    3    3    0    0  0.21042779400E+02  0.31578162939E+02 -0.24272092920E+02  0.45045681638E+02  0.00000000000E+00 0.  1.
         11    1    4    4    0    0 -0.13076014179E+02 -0.23194153302E+02  0.17636606843E+02  0.31937451298E+02  0.51100000000E-03 0. -1.
        -11    1    4    4    0    0 -0.15348250606E+01 -0.12661659513E+01 -0.72022114400E+00  0.21160299951E+01  0.51100000000E-03 0.  1.
        -12    1    4    4    0    0 -0.64319401607E+01 -0.71178436853E+01  0.73557072209E+01  0.12088837069E+02  0.00000000000E+00 0.  1.
</event>
<event>
 8    1  0.3489240E-009  0.9118800E+02  0.7816164E-02  0.1184000E+00
        -11   -1    0    0    0    0  0.00000000000E+00  0.00000000000E+00  0.45593999997E+02  0.45594000000E+02  0.51100000000E-03 0. -1.
         11   -1    0    0    0    0 -0.00000000000E+00 -0.00000000000E+00 -0.45593999997E+02  0.45594000000E+02  0.51100000000E-03 0.  1.
         23    2    1    2    0    0  0.88817841970E-15 -0.35527136788E-14  0.00000000000E+00  0.91188000000E+02  0.91188000000E+02 0.  0.
    9900012    2    3    3    0    0 -0.32618236348E+01  0.20094347924E+02  0.40183221045E+02  0.46142316905E+02  0.99999921951E+01 0.  0.
        -12    1    3    3    0    0  0.32618236348E+01 -0.20094347924E+02 -0.40183221045E+02  0.45045683095E+02  0.00000000000E+00 0.  1.
         11    1    4    4    0    0 -0.67307516138E+01  0.13894028662E+02  0.26483126988E+02  0.30654576576E+02  0.51100000000E-03 0. -1.
        -11    1    4    4    0    0  0.17240685840E+01  0.20480869466E+01  0.59375426129E+01  0.65131778084E+01  0.51100000000E-03 0.  1.
         12    1    4    4    0    0  0.17448593950E+01  0.41522323160E+01  0.77625514440E+01  0.89745625205E+01  0.00000000000E+00 0. -1.
</event>
<event>
 8    1  0.2882335E-009  0.9118800E+02  0.7816164E-02  0.1184000E+00
        -11   -1    0    0    0    0  0.00000000000E+00  0.00000000000E+00  0.45593999997E+02  0.45594000000E+02  0.51100000000E-03 0. -1.
         11   -1    0    0    0    0 -0.00000000000E+00 -0.00000000000E+00 -0.45593999997E+02  0.45594000000E+02  0.51100000000E-03 0.  1.
         23    2    1    2    0    0  0.71054273576E-14  0.00000000000E+00  0.35527136788E-14  0.91188000000E+02  0.91188000000E+02 0.  0.
    9900012    2    3    3    0    0 -0.38635395933E+02  0.11017690541E+02 -0.20372289688E+02  0.46142317511E+02  0.99999977228E+01 0.  0.
         12    1    3    3    0    0  0.38635395933E+02 -0.11017690541E+02  0.20372289688E+02  0.45045682489E+02  0.00000000000E+00 0. -1.
         11    1    4    4    0    0 -0.98300671803E+01  0.47097604752E+01 -0.20136799915E+01  0.11084537513E+02  0.51100000000E-03 0. -1.
        -11    1    4    4    0    0 -0.17357581871E+02  0.16794228663E+01 -0.94774907448E+01  0.19847643201E+02  0.51100000000E-03 0.  1.
        -12    1    4    4    0    0 -0.11447746882E+02  0.46285071995E+01 -0.88811189517E+01  0.15210136798E+02  0.00000000000E+00 0.  1.
</event>
<event>
 8    1  0.2882335E-009  0.9118800E+02  0.7816164E-02  0.1184000E+00
        -11   -1    0    0    0    0  0.00000000000E+00  0.00000000000E+00  0.45593999997E+02  0.45594000000E+02  0.51100000000E-03 0. -1.
         11   -1    0    0    0    0 -0.00000000000E+00 -0.00000000000E+00 -0.45593999997E+02  0.45594000000E+02  0.51100000000E-03 0.  1.
         23    2    1    2    0    0  0.00000000000E+00  0.00000000000E+00  0.00000000000E+00  0.91188000000E+02  0.91188000000E+02 0.  0.
    9900012    2    3    3    0    0  0.21819586395E+02  0.38076457862E+02 -0.10158851098E+02  0.46142320414E+02  0.10000024188E+02 0.  0.
         12    1    3    3    0    0 -0.21819586395E+02 -0.38076457862E+02  0.10158851098E+02  0.45045679586E+02  0.00000000000E+00 0. -1.
         11    1    4    4    0    0  0.40651920927E+01  0.14986046627E+02 -0.58501200775E+01  0.16593109577E+02  0.51100000000E-03 0. -1.
        -11    1    4    4    0    0  0.20104577651E+01  0.23308918837E+01 -0.12252208595E+01  0.33130294014E+01  0.51100000000E-03 0.  1.
         12    1    4    4    0    0  0.15743936538E+02  0.20759519351E+02 -0.30835101608E+01  0.26236181435E+02  0.00000000000E+00 0. -1.
</event>
<event>
 8    1  0.3029300E-009  0.9118800E+02  0.7816164E-02  0.1184000E+00
        -11   -1    0    0    0    0  0.00000000000E+00  0.00000000000E+00  0.45593999997E+02  0.45594000000E+02  0.51100000000E-03 0. -1.
         11   -1    0    0    0    0 -0.00000000000E+00 -0.00000000000E+00 -0.45593999997E+02  0.45594000000E+02  0.51100000000E-03 0.  1.
         23    2    1    2    0    0  0.00000000000E+00  0.00000000000E+00  0.00000000000E+00  0.91188000000E+02  0.91188000000E+02 0.  0.
    9900012    2    3    3    0    0 -0.45861492102E+01 -0.40780434286E+02 -0.18575181415E+02  0.46142312640E+02  0.99999532996E+01 0.  0.
         12    1    3    3    0    0  0.45861492102E+01  0.40780434286E+02  0.18575181415E+02  0.45045687360E+02  0.00000000000E+00 0. -1.
         11    1    4    4    0    0 -0.42915465244E+01 -0.10521000810E+02 -0.62201897587E+01  0.12953748126E+02  0.51100000000E-03 0. -1.
        -11    1    4    4    0    0  0.23963481196E+01 -0.21668505228E+02 -0.87195346178E+01  0.23479712250E+02  0.51100000000E-03 0.  1.
        -12    1    4    4    0    0 -0.26909508053E+01 -0.85909282486E+01 -0.36354570386E+01  0.97088522643E+01  0.00000000000E+00 0.  1.
</event>
<event>
 8    1  0.2882335E-009  0.9118800E+02  0.7816164E-02  0.1184000E+00
        -11   -1    0    0    0    0  0.00000000000E+00  0.00000000000E+00  0.45593999997E+02  0.45594000000E+02  0.51100000000E-03 0.  1.
         11   -1    0    0    0    0 -0.00000000000E+00 -0.00000000000E+00 -0.45593999997E+02  0.45594000000E+02  0.51100000000E-03 0. -1.
         23    2    1    2    0    0 -0.17763568394E-14  0.00000000000E+00  0.17763568394E-14  0.91188000000E+02  0.91188000000E+02 0.  0.
    9900012    2    3    3    0    0 -0.87572940714E+01  0.43114870556E+02  0.96711558631E+01  0.46142317430E+02  0.99999969800E+01 0.  0.
        -12    1    3    3    0    0  0.87572940714E+01 -0.43114870556E+02 -0.96711558631E+01  0.45045682570E+02  0.00000000000E+00 0.  1.
         11    1    4    4    0    0  0.15537006813E+01  0.36018276556E+01  0.19194360208E+01  0.43670794780E+01  0.51100000000E-03 0. -1.
        -11    1    4    4    0    0 -0.13116360690E+01  0.34110608898E+01 -0.42934361299E+00  0.36796822921E+01  0.51100000000E-03 0.  1.
         12    1    4    4    0    0 -0.89993586837E+01  0.36101982010E+02  0.81810634553E+01  0.38095555660E+02  0.00000000000E+00 0. -1.
</event>
<event>
 8    1  0.3388599E-009  0.9118800E+02  0.7816164E-02  0.1184000E+00
        -11   -1    0    0    0    0  0.00000000000E+00  0.00000000000E+00  0.45593999997E+02  0.45594000000E+02  0.51100000000E-03 0. -1.
         11   -1    0    0    0    0 -0.00000000000E+00 -0.00000000000E+00 -0.45593999997E+02  0.45594000000E+02  0.51100000000E-03 0.  1.
         23    2    1    2    0    0  0.00000000000E+00 -0.17763568394E-14  0.71054273576E-14  0.91188000000E+02  0.91188000000E+02 0.  0.
    9900012    2    3    3    0    0  0.15731170221E+02  0.83141117159E+01 -0.41382596584E+02  0.46142317963E+02  0.10000001840E+02 0.  0.
         12    1    3    3    0    0 -0.15731170221E+02 -0.83141117159E+01  0.41382596584E+02  0.45045682037E+02  0.00000000000E+00 0. -1.
         11    1    4    4    0    0  0.12698598470E+01 -0.12586049181E+01 -0.35318175155E+01  0.39585812603E+01  0.51100000000E-03 0. -1.
        -11    1    4    4    0    0  0.79434826833E+01  0.45037738144E+01 -0.27296739606E+02  0.28783587148E+02  0.51100000000E-03 0.  1.
        -12    1    4    4    0    0  0.65178276904E+01  0.50689428196E+01 -0.10554039463E+02  0.13400149555E+02  0.00000000000E+00 0.  1.
</event>
<event>
 8    1  0.2882335E-009  0.9118800E+02  0.7816164E-02  0.1184000E+00
        -11   -1    0    0    0    0  0.00000000000E+00  0.00000000000E+00  0.45593999997E+02  0.45594000000E+02  0.51100000000E-03 0. -1.
         11   -1    0    0    0    0 -0.00000000000E+00 -0.00000000000E+00 -0.45593999997E+02  0.45594000000E+02  0.51100000000E-03 0.  1.
         23    2    1    2    0    0  0.71054273576E-14  0.35527136788E-14  0.88817841970E-15  0.91188000000E+02  0.91188000000E+02 0.  0.
    9900012    2    3    3    0    0  0.42690138642E+02  0.12591399009E+02  0.69370222134E+01  0.46142317150E+02  0.99999944244E+01 0.  0.
         12    1    3    3    0    0 -0.42690138642E+02 -0.12591399009E+02 -0.69370222134E+01  0.45045682850E+02  0.00000000000E+00 0. -1.
         11    1    4    4    0    0  0.40094503353E+01 -0.10332425099E+01  0.10057277074E+00  0.41416659956E+01  0.51100000000E-03 0. -1.
        -11    1    4    4    0    0  0.23370953596E+02  0.10984451598E+02  0.29924093516E+01  0.25996425964E+02  0.51100000000E-03 0.  1.
        -12    1    4    4    0    0  0.15309734710E+02  0.26401899208E+01  0.38440400911E+01  0.16004225190E+02  0.00000000000E+00 0.  1.
</event>
<event>
 8    1  0.2882335E-009  0.9118800E+02  0.7816164E-02  0.1184000E+00
        -11   -1    0    0    0    0  0.00000000000E+00  0.00000000000E+00  0.45593999997E+02  0.45594000000E+02  0.51100000000E-03 0. -1.
         11   -1    0    0    0    0 -0.00000000000E+00 -0.00000000000E+00 -0.45593999997E+02  0.45594000000E+02  0.51100000000E-03 0.  1.
         23    2    1    2    0    0  0.00000000000E+00  0.00000000000E+00  0.00000000000E+00  0.91188000000E+02  0.91188000000E+02 0.  0.
    9900012    2    3    3    0    0 -0.21901395885E+02  0.29452599412E+01  0.39252617167E+02  0.46142315941E+02  0.99999834042E+01 0.  0.
        -12    1    3    3    0    0  0.21901395885E+02 -0.29452599412E+01 -0.39252617167E+02  0.45045684059E+02  0.00000000000E+00 0.  1.
         11    1    4    4    0    0 -0.67734769574E+01  0.41956160482E+01  0.11493931528E+02  0.13985479839E+02  0.51100000000E-03 0. -1.
        -11    1    4    4    0    0 -0.11646148280E+02  0.12156645358E+01  0.22675511541E+02  0.25520372919E+02  0.51100000000E-03 0.  1.
        -12    1    4    4    0    0 -0.34817706483E+01 -0.24660206428E+01  0.50831740983E+01  0.66364631824E+01  0.00000000000E+00 0.  1.
</event>
<event>
 8    1  0.2882335E-009  0.9118800E+02  0.7816164E-02  0.1184000E+00
        -11   -1    0    0    0    0  0.00000000000E+00  0.00000000000E+00  0.45593999997E+02  0.45594000000E+02  0.51100000000E-03 0. -1.
         11   -1    0    0    0    0 -0.00000000000E+00 -0.00000000000E+00 -0.45593999997E+02  0.45594000000E+02  0.51100000000E-03 0.  1.
         23    2    1    2    0    0 -0.22204460493E-15  0.00000000000E+00  0.00000000000E+00  0.91188000000E+02  0.91188000000E+02 0.  0.
    9900012    2    3    3    0    0  0.13711489627E+01 -0.44842233148E+02 -0.40506272364E+01  0.46142317585E+02  0.99999983955E+01 0.  0.
         12    1    3    3    0    0 -0.13711489627E+01  0.44842233148E+02  0.40506272364E+01  0.45045682415E+02  0.00000000000E+00 0. -1.
         11    1    4    4    0    0 -0.36390907194E+01 -0.13487793885E+02 -0.86736236430E-01  0.13970364655E+02  0.51100000000E-03 0. -1.
        -11    1    4    4    0    0  0.43221958847E+01 -0.21682238939E+02 -0.14586360713E+01  0.22156905969E+02  0.51100000000E-03 0.  1.
         12    1    4    4    0    0  0.68804379742E+00 -0.96722003246E+01 -0.25052549287E+01  0.10015046962E+02  0.00000000000E+00 0. -1.
</event>
<event>
 8    1  0.2882335E-009  0.9118800E+02  0.7816164E-02  0.1184000E+00
        -11   -1    0    0    0    0  0.00000000000E+00  0.00000000000E+00  0.45593999997E+02  0.45594000000E+02  0.51100000000E-03 0. -1.
         11   -1    0    0    0    0 -0.00000000000E+00 -0.00000000000E+00 -0.45593999997E+02  0.45594000000E+02  0.51100000000E-03 0.  1.
         23    2    1    2    0    0 -0.35527136788E-14  0.35527136788E-14  0.71054273576E-14  0.91188000000E+02  0.91188000000E+02 0.  0.
    9900012    2    3    3    0    0  0.19006262994E+02 -0.23629351821E+02 -0.33309590474E+02  0.46142321872E+02  0.10000037487E+02 0.  0.
         12    1    3    3    0    0 -0.19006262994E+02  0.23629351821E+02  0.33309590474E+02  0.45045678128E+02  0.00000000000E+00 0. -1.
         11    1    4    4    0    0  0.11520427527E+02 -0.13105191792E+02 -0.16561951029E+02  0.24057525319E+02  0.51100000000E-03 0. -1.
        -11    1    4    4    0    0  0.44011641654E+01 -0.58309359705E+01 -0.14090514966E+02  0.15871757072E+02  0.51100000000E-03 0.  1.
         12    1    4    4    0    0  0.30846713015E+01 -0.46932240577E+01 -0.26571244796E+01  0.62130394812E+01  0.00000000000E+00 0. -1.
</event>
<event>
 8    1  0.2882335E-009  0.9118800E+02  0.7816164E-02  0.1184000E+00
        -11   -1    0    0    0    0  0.00000000000E+00  0.00000000000E+00  0.45593999997E+02  0.45594000000E+02  0.51100000000E-03 0.  1.
         11   -1    0    0    0    0 -0.00000000000E+00 -0.00000000000E+00 -0.45593999997E+02  0.45594000000E+02  0.51100000000E-03 0. -1.
         23    2    1    2    0    0  0.00000000000E+00 -0.71054273576E-14 -0.35527136788E-14  0.91188000000E+02  0.91188000000E+02 0.  0.
    9900012    2    3    3    0    0  0.23258998145E+01  0.42572177229E+02  0.14536618227E+02  0.46142319258E+02  0.10000013654E+02 0.  0.
        -12    1    3    3    0    0 -0.23258998145E+01 -0.42572177229E+02 -0.14536618227E+02  0.45045680742E+02  0.00000000000E+00 0.  1.
         11    1    4    4    0    0 -0.70038168623E+00  0.51513720668E+01  0.24913085693E+01  0.57648753087E+01  0.51100000000E-03 0. -1.
        -11    1    4    4    0    0 -0.33552501450E+00  0.32628732939E+02  0.94273904363E+01  0.33965018489E+02  0.51100000000E-03 0.  1.
        -12    1    4    4    0    0  0.33618065152E+01  0.47920722232E+01  0.26179192218E+01  0.64124254608E+01  0.00000000000E+00 0.  1.
</event>
<event>
 8    1  0.5432980E-009  0.9118800E+02  0.7816164E-02  0.1184000E+00
        -11   -1    0    0    0    0  0.00000000000E+00  0.00000000000E+00  0.45593999997E+02  0.45594000000E+02  0.51100000000E-03 0. -1.
         11   -1    0    0    0    0 -0.00000000000E+00 -0.00000000000E+00 -0.45593999997E+02  0.45594000000E+02  0.51100000000E-03 0.  1.
         23    2    1    2    0    0  0.00000000000E+00 -0.35527136788E-14  0.00000000000E+00  0.91188000000E+02  0.91188000000E+02 0.  0.
    9900012    2    3    3    0    0 -0.38473386613E+02 -0.16277568539E+02  0.16850898696E+02  0.46142317611E+02  0.99999986302E+01 0.  0.
        -12    1    3    3    0    0  0.38473386613E+02  0.16277568539E+02 -0.16850898696E+02  0.45045682389E+02  0.00000000000E+00 0.  1.
         11    1    4    4    0    0 -0.10098566673E+02 -0.17463090344E+01  0.14584415880E+01  0.10351700160E+02  0.51100000000E-03 0. -1.
        -11    1    4    4    0    0 -0.19187681547E+01 -0.21726729500E+01  0.26633891013E+01  0.39364731353E+01  0.51100000000E-03 0.  1.
         12    1    4    4    0    0 -0.26456051786E+02 -0.12358586555E+02  0.12729068007E+02  0.31854144315E+02  0.00000000000E+00 0. -1.
</event>
<event>
 8    1  0.2882335E-009  0.9118800E+02  0.7816164E-02  0.1184000E+00
        -11   -1    0    0    0    0  0.00000000000E+00  0.00000000000E+00  0.45593999997E+02  0.45594000000E+02  0.51100000000E-03 0.  1.
         11   -1    0    0    0    0 -0.00000000000E+00 -0.00000000000E+00 -0.45593999997E+02  0.45594000000E+02  0.51100000000E-03 0. -1.
         23    2    1    2    0    0 -0.88817841970E-15  0.00000000000E+00  0.00000000000E+00  0.91188000000E+02  0.91188000000E+02 0.  0.
    9900012    2    3    3    0    0 -0.40269535633E+01  0.40427480515E+02  0.19455487547E+02  0.46142317282E+02  0.99999956336E+01 0.  0.
        -12    1    3    3    0    0  0.40269535633E+01 -0.40427480515E+02 -0.19455487547E+02  0.45045682718E+02  0.00000000000E+00 0.  1.
         11    1    4    4    0    0 -0.28909374257E+01  0.10645569178E+02  0.21906742577E+01  0.11246542415E+02  0.51100000000E-03 0. -1.
        -11    1    4    4    0    0  0.22296181203E+01  0.93461609825E+01  0.57986158190E+01  0.11222560659E+02  0.51100000000E-03 0.  1.
         12    1    4    4    0    0 -0.33656342579E+01  0.20435750355E+02  0.11466197470E+02  0.23673214208E+02  0.00000000000E+00 0. -1.
</event>
<event>
 8    1  0.2882335E-009  0.9118800E+02  0.7816164E-02  0.1184000E+00
        -11   -1    0    0    0    0  0.00000000000E+00  0.00000000000E+00  0.45593999997E+02  0.45594000000E+02  0.51100000000E-03 0. -1.
         11   -1    0    0    0    0 -0.00000000000E+00 -0.00000000000E+00 -0.45593999997E+02  0.45594000000E+02  0.51100000000E-03 0.  1.
         23    2    1    2    0    0  0.83266726847E-16 -0.71054273576E-14  0.71054273576E-14  0.91188000000E+02  0.91188000000E+02 0.  0.
    9900012    2    3    3    0    0 -0.24302744057E+00  0.35922958667E+02 -0.27177112465E+02  0.46142318036E+02  0.10000002504E+02 0.  0.
         12    1    3    3    0    0  0.24302744057E+00 -0.35922958667E+02  0.27177112465E+02  0.45045681964E+02  0.00000000000E+00 0. -1.
         11    1    4    4    0    0  0.61959034428E+00  0.67008863285E+01 -0.98122071503E+00  0.68006296866E+01  0.51100000000E-03 0. -1.
        -11    1    4    4    0    0 -0.84403490110E+00  0.19106798635E+02 -0.18732431871E+02  0.26770994622E+02  0.51100000000E-03 0.  1.
         12    1    4    4    0    0 -0.18582883747E-01  0.10115273703E+02 -0.74634598783E+01  0.12570693727E+02  0.00000000000E+00 0. -1.
</event>
<event>
 8    1  0.2882335E-009  0.9118800E+02  0.7816164E-02  0.1184000E+00
        -11   -1    0    0    0    0  0.00000000000E+00  0.00000000000E+00  0.45593999997E+02  0.45594000000E+02  0.51100000000E-03 0. -1.
         11   -1    0    0    0    0 -0.00000000000E+00 -0.00000000000E+00 -0.45593999997E+02  0.45594000000E+02  0.51100000000E-03 0.  1.
         23    2    1    2    0    0  0.00000000000E+00  0.00000000000E+00  0.00000000000E+00  0.91188000000E+02  0.91188000000E+02 0.  0.
    9900012    2    3    3    0    0  0.17114613194E+02 -0.13428498349E+02 -0.39444631086E+02  0.46142317918E+02  0.10000001428E+02 0.  0.
         12    1    3    3    0    0 -0.17114613194E+02  0.13428498349E+02  0.39444631086E+02  0.45045682082E+02  0.00000000000E+00 0. -1.
         11    1    4    4    0    0  0.50113075084E+01 -0.41999727752E+01 -0.46043328001E+01  0.79970528979E+01  0.51100000000E-03 0. -1.
        -11    1    4    4    0    0  0.21696889077E+01 -0.33371952125E+01 -0.91525247980E+01  0.99806378695E+01  0.51100000000E-03 0.  1.
         12    1    4    4    0    0  0.99336167783E+01 -0.58913303617E+01 -0.25687773488E+02  0.28164627150E+02  0.00000000000E+00 0. -1.
</event>
<event>
 8    1  0.2882335E-009  0.9118800E+02  0.7816164E-02  0.1184000E+00
        -11   -1    0    0    0    0  0.00000000000E+00  0.00000000000E+00  0.45593999997E+02  0.45594000000E+02  0.51100000000E-03 0. -1.
         11   -1    0    0    0    0 -0.00000000000E+00 -0.00000000000E+00 -0.45593999997E+02  0.45594000000E+02  0.51100000000E-03 0.  1.
         23    2    1    2    0    0  0.35527136788E-14 -0.71054273576E-14  0.71054273576E-14  0.91188000000E+02  0.91188000000E+02 0.  0.
    9900012    2    3    3    0    0 -0.22798989838E+02  0.23224207970E+02 -0.31144114091E+02  0.46142316345E+02  0.99999870845E+01 0.  0.
         12    1    3    3    0    0  0.22798989838E+02 -0.23224207970E+02  0.31144114091E+02  0.45045683655E+02  0.00000000000E+00 0. -1.
         11    1    4    4    0    0 -0.15477256126E+02  0.17297598047E+02 -0.20495508786E+02  0.30964790263E+02  0.51100000000E-03 0. -1.
        -11    1    4    4    0    0 -0.72851720557E+01  0.52817821014E+01 -0.11172724575E+02  0.14345756471E+02  0.51100000000E-03 0.  1.
         12    1    4    4    0    0 -0.36561656000E-01  0.64482782164E+00  0.52411927039E+00  0.83176960983E+00  0.00000000000E+00 0. -1.
</event>
<event>
 8    1  0.2882335E-009  0.9118800E+02  0.7816164E-02  0.1184000E+00
        -11   -1    0    0    0    0  0.00000000000E+00  0.00000000000E+00  0.45593999997E+02  0.45594000000E+02  0.51100000000E-03 0. -1.
         11   -1    0    0    0    0 -0.00000000000E+00 -0.00000000000E+00 -0.45593999997E+02  0.45594000000E+02  0.51100000000E-03 0.  1.
         23    2    1    2    0    0  0.35527136788E-14  0.00000000000E+00  0.71054273576E-14  0.91188000000E+02  0.91188000000E+02 0.  0.
    9900012    2    3    3    0    0 -0.21930645551E+02  0.84837863649E+01  0.38421161408E+02  0.46142317750E+02  0.99999999021E+01 0.  0.
        -12    1    3    3    0    0  0.21930645551E+02 -0.84837863649E+01 -0.38421161408E+02  0.45045682250E+02  0.00000000000E+00 0.  1.
         11    1    4    4    0    0 -0.45424392976E+01  0.47754049094E+01  0.11024317666E+02  0.12844213759E+02  0.51100000000E-03 0. -1.
        -11    1    4    4    0    0 -0.17602907140E+02  0.29990693874E+01  0.27188983441E+02  0.32528411855E+02  0.51100000000E-03 0.  1.
        -12    1    4    4    0    0  0.21470088645E+00  0.70931206800E+00  0.20786030101E+00  0.76969213663E+00  0.00000000000E+00 0.  1.
</event>
<event>
 8    1  0.2882335E-009  0.9118800E+02  0.7816164E-02  0.1184000E+00
        -11   -1    0    0    0    0  0.00000000000E+00  0.00000000000E+00  0.45593999997E+02  0.45594000000E+02  0.51100000000E-03 0. -1.
         11   -1    0    0    0    0 -0.00000000000E+00 -0.00000000000E+00 -0.45593999997E+02  0.45594000000E+02  0.51100000000E-03 0.  1.
         23    2    1    2    0    0 -0.88817841970E-15 -0.17763568394E-14  0.00000000000E+00  0.91188000000E+02  0.91188000000E+02 0.  0.
    9900012    2    3    3    0    0  0.78431246401E+01  0.89094086511E+01  0.43453660725E+02  0.46142325435E+02  0.10000069975E+02 0.  0.
        -12    1    3    3    0    0 -0.78431246401E+01 -0.89094086511E+01 -0.43453660725E+02  0.45045674565E+02  0.00000000000E+00 0.  1.
         11    1    4    4    0    0 -0.15936966430E+00 -0.58104651632E+00  0.15451774343E+02  0.15463516558E+02  0.51100000000E-03 0. -1.
        -11    1    4    4    0    0  0.35863463168E+01  0.43989178324E+01  0.10732432084E+02  0.12140735426E+02  0.51100000000E-03 0.  1.
         12    1    4    4    0    0  0.44161479876E+01  0.50915373350E+01  0.17269454299E+02  0.18538073450E+02  0.00000000000E+00 0. -1.
</event>
<event>
 8    1  0.2882335E-009  0.9118800E+02  0.7816164E-02  0.1184000E+00
        -11   -1    0    0    0    0  0.00000000000E+00  0.00000000000E+00  0.45593999997E+02  0.45594000000E+02  0.51100000000E-03 0. -1.
         11   -1    0    0    0    0 -0.00000000000E+00 -0.00000000000E+00 -0.45593999997E+02  0.45594000000E+02  0.51100000000E-03 0.  1.
         23    2    1    2    0    0  0.00000000000E+00 -0.71054273576E-14 -0.17763568394E-14  0.91188000000E+02  0.91188000000E+02 0.  0.
    9900012    2    3    3    0    0  0.53984441310E+01  0.43497462198E+02  0.10389465646E+02  0.46142318596E+02  0.10000007617E+02 0.  0.
        -12    1    3    3    0    0 -0.53984441310E+01 -0.43497462198E+02 -0.10389465646E+02  0.45045681404E+02  0.00000000000E+00 0.  1.
         11    1    4    4    0    0  0.36235472896E+01  0.27521880020E+02  0.10121103293E+02  0.29546923815E+02  0.51100000000E-03 0. -1.
        -11    1    4    4    0    0  0.13102392973E+01  0.11014943876E+01  0.49269972449E-01  0.17124382305E+01  0.51100000000E-03 0.  1.
         12    1    4    4    0    0  0.46465754413E+00  0.14874087790E+02  0.21909238050E+00  0.14882956551E+02  0.00000000000E+00 0. -1.
</event>
<event>
 8    1  0.2882335E-009  0.9118800E+02  0.7816164E-02  0.1184000E+00
        -11   -1    0    0    0    0  0.00000000000E+00  0.00000000000E+00  0.45593999997E+02  0.45594000000E+02  0.51100000000E-03 0. -1.
         11   -1    0    0    0    0 -0.00000000000E+00 -0.00000000000E+00 -0.45593999997E+02  0.45594000000E+02  0.51100000000E-03 0.  1.
         23    2    1    2    0    0  0.00000000000E+00  0.00000000000E+00  0.00000000000E+00  0.91188000000E+02  0.91188000000E+02 0.  0.
    9900012    2    3    3    0    0 -0.91281073880E+01 -0.36082424197E+02  0.25374194671E+02  0.46142318347E+02  0.10000005344E+02 0.  0.
        -12    1    3    3    0    0  0.91281073880E+01  0.36082424197E+02 -0.25374194671E+02  0.45045681653E+02  0.00000000000E+00 0.  1.
         11    1    4    4    0    0 -0.23171372567E+01 -0.21556523382E+02  0.18233009501E+02  0.28328350836E+02  0.51100000000E-03 0. -1.
        -11    1    4    4    0    0 -0.38323266812E+01 -0.49823711216E+01  0.21794947047E+01  0.66528901399E+01  0.51100000000E-03 0.  1.
         12    1    4    4    0    0 -0.29786434501E+01 -0.95435296935E+01  0.49616904646E+01  0.11161077371E+02  0.00000000000E+00 0. -1.
</event>
<event>
 8    1  0.2882335E-009  0.9118800E+02  0.7816164E-02  0.1184000E+00
        -11   -1    0    0    0    0  0.00000000000E+00  0.00000000000E+00  0.45593999997E+02  0.45594000000E+02  0.51100000000E-03 0. -1.
         11   -1    0    0    0    0 -0.00000000000E+00 -0.00000000000E+00 -0.45593999997E+02  0.45594000000E+02  0.51100000000E-03 0.  1.
         23    2    1    2    0    0  0.17763568394E-14  0.00000000000E+00  0.00000000000E+00  0.91188000000E+02  0.91188000000E+02 0.  0.
    9900012    2    3    3    0    0 -0.12549270165E+02 -0.71721248855E+01  0.42663684452E+02  0.46142317320E+02  0.99999959807E+01 0.  0.
        -12    1    3    3    0    0  0.12549270165E+02  0.71721248855E+01 -0.42663684452E+02  0.45045682680E+02  0.00000000000E+00 0.  1.
         11    1    4    4    0    0 -0.46973078983E+01 -0.30997584269E+01  0.22877212483E+02  0.23559288084E+02  0.51100000000E-03 0. -1.
        -11    1    4    4    0    0 -0.45001911852E+01 -0.54608543977E+01  0.11029760012E+02  0.13104512873E+02  0.51100000000E-03 0.  1.
        -12    1    4    4    0    0 -0.33517710812E+01  0.13884879391E+01  0.87567119575E+01  0.94785163630E+01  0.00000000000E+00 0.  1.
</event>
<event>
 8    1  0.2882335E-009  0.9118800E+02  0.7816164E-02  0.1184000E+00
        -11   -1    0    0    0    0  0.00000000000E+00  0.00000000000E+00  0.45593999997E+02  0.45594000000E+02  0.51100000000E-03 0. -1.
         11   -1    0    0    0    0 -0.00000000000E+00 -0.00000000000E+00 -0.45593999997E+02  0.45594000000E+02  0.51100000000E-03 0.  1.
         23    2    1    2    0    0 -0.11102230246E-15  0.00000000000E+00  0.71054273576E-14  0.91188000000E+02  0.91188000000E+02 0.  0.
    9900012    2    3    3    0    0 -0.50957303958E+00 -0.30825176589E+02  0.32842995810E+02  0.46142317075E+02  0.99999937421E+01 0.  0.
        -12    1    3    3    0    0  0.50957303958E+00  0.30825176589E+02 -0.32842995810E+02  0.45045682925E+02  0.00000000000E+00 0.  1.
         11    1    4    4    0    0  0.17932730215E+01 -0.83375377209E+01  0.14751566843E+02  0.17039339423E+02  0.51100000000E-03 0. -1.
        -11    1    4    4    0    0 -0.13436954869E+01 -0.54164601083E+01  0.32240825904E+01  0.64450187336E+01  0.51100000000E-03 0.  1.
         12    1    4    4    0    0 -0.95915057425E+00 -0.17071178760E+02  0.14867346376E+02  0.22657958918E+02  0.00000000000E+00 0. -1.
</event>
<event>
 8    1  0.2882335E-009  0.9118800E+02  0.7816164E-02  0.1184000E+00
        -11   -1    0    0    0    0  0.00000000000E+00  0.00000000000E+00  0.45593999997E+02  0.45594000000E+02  0.51100000000E-03 0.  1.
         11   -1    0    0    0    0 -0.00000000000E+00 -0.00000000000E+00 -0.45593999997E+02  0.45594000000E+02  0.51100000000E-03 0. -1.
         23    2    1    2    0    0  0.00000000000E+00  0.00000000000E+00  0.00000000000E+00  0.91188000000E+02  0.91188000000E+02 0.  0.
    9900012    2    3    3    0    0 -0.39276060315E+02  0.19534999479E+02 -0.10241501528E+02  0.46142317942E+02  0.10000001649E+02 0.  0.
        -12    1    3    3    0    0  0.39276060315E+02 -0.19534999479E+02  0.10241501528E+02  0.45045682058E+02  0.00000000000E+00 0.  1.
         11    1    4    4    0    0 -0.15186087622E+01  0.33526874938E+01  0.29495185864E+00  0.36923817332E+01  0.51100000000E-03 0.  1.
        -11    1    4    4    0    0 -0.28442522620E+02  0.12802562259E+02 -0.85784060870E+01  0.32349215518E+02  0.51100000000E-03 0. -1.
        -12    1    4    4    0    0 -0.93149289335E+01  0.33797497258E+01 -0.19580473000E+01  0.10100720691E+02  0.00000000000E+00 0.  1.
</event>
<event>
 8    1  0.2882335E-009  0.9118800E+02  0.7816164E-02  0.1184000E+00
        -11   -1    0    0    0    0  0.00000000000E+00  0.00000000000E+00  0.45593999997E+02  0.45594000000E+02  0.51100000000E-03 0. -1.
         11   -1    0    0    0    0 -0.00000000000E+00 -0.00000000000E+00 -0.45593999997E+02  0.45594000000E+02  0.51100000000E-03 0.  1.
         23    2    1    2    0    0  0.00000000000E+00  0.00000000000E+00 -0.35527136788E-14  0.91188000000E+02  0.91188000000E+02 0.  0.
    9900012    2    3    3    0    0 -0.13271601896E+02  0.35607483745E+02  0.24188522812E+02  0.46142323722E+02  0.10000054352E+02 0.  0.
        -12    1    3    3    0    0  0.13271601896E+02 -0.35607483745E+02 -0.24188522812E+02  0.45045676278E+02  0.00000000000E+00 0.  1.
         11    1    4    4    0    0 -0.43667239730E+01  0.14498624324E+02  0.14589324360E+02  0.21026810768E+02  0.51100000000E-03 0. -1.
        -11    1    4    4    0    0 -0.33606443144E+01  0.11181510354E+02  0.33790119491E+01  0.12154745000E+02  0.51100000000E-03 0.  1.
         12    1    4    4    0    0 -0.55442336086E+01  0.99273490669E+01  0.62201865038E+01  0.12960767954E+02  0.00000000000E+00 0. -1.
</event>
<event>
 8    1  0.2882335E-009  0.9118800E+02  0.7816164E-02  0.1184000E+00
        -11   -1    0    0    0    0  0.00000000000E+00  0.00000000000E+00  0.45593999997E+02  0.45594000000E+02  0.51100000000E-03 0. -1.
         11   -1    0    0    0    0 -0.00000000000E+00 -0.00000000000E+00 -0.45593999997E+02  0.45594000000E+02  0.51100000000E-03 0.  1.
         23    2    1    2    0    0  0.17763568394E-14  0.00000000000E+00  0.00000000000E+00  0.91188000000E+02  0.91188000000E+02 0.  0.
    9900012    2    3    3    0    0 -0.10069682876E+02 -0.19164305699E+02  0.39502456386E+02  0.46142321110E+02  0.10000030538E+02 0.  0.
        -12    1    3    3    0    0  0.10069682876E+02  0.19164305699E+02 -0.39502456386E+02  0.45045678890E+02  0.00000000000E+00 0.  1.
         11    1    4    4    0    0 -0.87784158705E+01 -0.72929005234E+01  0.16543799090E+02  0.20098364904E+02  0.51100000000E-03 0. -1.
        -11    1    4    4    0    0  0.30729283581E+00 -0.39874444856E+01  0.10258032654E+02  0.11010057974E+02  0.51100000000E-03 0.  1.
         12    1    4    4    0    0 -0.15985598418E+01 -0.78839606903E+01  0.12700624642E+02  0.15033898232E+02  0.00000000000E+00 0. -1.
</event>
<event>
 8    1  0.2882335E-009  0.9118800E+02  0.7816164E-02  0.1184000E+00
        -11   -1    0    0    0    0  0.00000000000E+00  0.00000000000E+00  0.45593999997E+02  0.45594000000E+02  0.51100000000E-03 0.  1.
         11   -1    0    0    0    0 -0.00000000000E+00 -0.00000000000E+00 -0.45593999997E+02  0.45594000000E+02  0.51100000000E-03 0. -1.
         23    2    1    2    0    0  0.00000000000E+00  0.00000000000E+00  0.00000000000E+00  0.91188000000E+02  0.91188000000E+02 0.  0.
    9900012    2    3    3    0    0  0.26217853777E+02  0.35136173981E+02 -0.10353108505E+02  0.46142318360E+02  0.10000005463E+02 0.  0.
         12    1    3    3    0    0 -0.26217853777E+02 -0.35136173981E+02  0.10353108505E+02  0.45045681640E+02  0.00000000000E+00 0. -1.
         11    1    4    4    0    0  0.33745864187E+01  0.17727960026E+01 -0.24386170737E+00  0.38196999827E+01  0.51100000000E-03 0. -1.
        -11    1    4    4    0    0  0.20789579077E+02  0.25711426064E+02 -0.93621543318E+01  0.34364719735E+02  0.51100000000E-03 0.  1.
        -12    1    4    4    0    0  0.20536882807E+01  0.76519519145E+01 -0.74709246551E+00  0.79578986427E+01  0.00000000000E+00 0.  1.
</event>
<event>
 8    1  0.2882335E-009  0.9118800E+02  0.7816164E-02  0.1184000E+00
        -11   -1    0    0    0    0  0.00000000000E+00  0.00000000000E+00  0.45593999997E+02  0.45594000000E+02  0.51100000000E-03 0. -1.
         11   -1    0    0    0    0 -0.00000000000E+00 -0.00000000000E+00 -0.45593999997E+02  0.45594000000E+02  0.51100000000E-03 0.  1.
         23    2    1    2    0    0 -0.88817841970E-15  0.00000000000E+00 -0.71054273576E-14  0.91188000000E+02  0.91188000000E+02 0.  0.
    9900012    2    3    3    0    0 -0.77285477467E+01  0.28739123141E+02 -0.33814875258E+02  0.46142318321E+02  0.10000005106E+02 0.  0.
         12    1    3    3    0    0  0.77285477467E+01 -0.28739123141E+02  0.33814875258E+02  0.45045681679E+02  0.00000000000E+00 0. -1.
         11    1    4    4    0    0 -0.14801902178E+01  0.41579284607E+01 -0.11644332534E+02  0.12452703024E+02  0.51100000000E-03 0. -1.
        -11    1    4    4    0    0 -0.31624515775E+01  0.11584377719E+02 -0.10470642407E+02  0.15932145486E+02  0.51100000000E-03 0.  1.
         12    1    4    4    0    0 -0.30859059513E+01  0.12996816961E+02 -0.11699900317E+02  0.17757469811E+02  0.00000000000E+00 0. -1.
</event>
<event>
 8    1  0.2882335E-009  0.9118800E+02  0.7816164E-02  0.1184000E+00
        -11   -1    0    0    0    0  0.00000000000E+00  0.00000000000E+00  0.45593999997E+02  0.45594000000E+02  0.51100000000E-03 0.  1.
         11   -1    0    0    0    0 -0.00000000000E+00 -0.00000000000E+00 -0.45593999997E+02  0.45594000000E+02  0.51100000000E-03 0. -1.
         23    2    1    2    0    0  0.00000000000E+00 -0.38857805862E-15  0.35527136788E-14  0.91188000000E+02  0.91188000000E+02 0.  0.
    9900012    2    3    3    0    0  0.39578609667E+02 -0.31214425992E+00 -0.21506968976E+02  0.46142317723E+02  0.99999996537E+01 0.  0.
         12    1    3    3    0    0 -0.39578609667E+02  0.31214425992E+00  0.21506968976E+02  0.45045682277E+02  0.00000000000E+00 0. -1.
         11    1    4    4    0    0  0.15486058498E+02  0.27710259148E+01 -0.97381197797E+01  0.18502096355E+02  0.51100000000E-03 0. -1.
        -11    1    4    4    0    0  0.18419578983E+02 -0.28541855020E+01 -0.60876266298E+01  0.19608326370E+02  0.51100000000E-03 0.  1.
         12    1    4    4    0    0  0.56729721867E+01 -0.22898467273E+00 -0.56812225668E+01  0.80318949984E+01  0.00000000000E+00 0. -1.
</event>
<event>
 8    1  0.2882335E-009  0.9118800E+02  0.7816164E-02  0.1184000E+00
        -11   -1    0    0    0    0  0.00000000000E+00  0.00000000000E+00  0.45593999997E+02  0.45594000000E+02  0.51100000000E-03 0. -1.
         11   -1    0    0    0    0 -0.00000000000E+00 -0.00000000000E+00 -0.45593999997E+02  0.45594000000E+02  0.51100000000E-03 0.  1.
         23    2    1    2    0    0  0.00000000000E+00  0.35527136788E-14 -0.71054273576E-14  0.91188000000E+02  0.91188000000E+02 0.  0.
    9900012    2    3    3    0    0 -0.26467552592E+02 -0.12554195954E+02  0.34219502908E+02  0.46142317015E+02  0.99999932000E+01 0.  0.
        -12    1    3    3    0    0  0.26467552592E+02  0.12554195954E+02 -0.34219502908E+02  0.45045682985E+02  0.00000000000E+00 0.  1.
         11    1    4    4    0    0 -0.11141914592E+02 -0.83596124374E+01  0.20147119159E+02  0.24493505089E+02  0.51100000000E-03 0. -1.
        -11    1    4    4    0    0 -0.12898861392E+02 -0.44165359085E+01  0.10019510998E+02  0.16919722679E+02  0.51100000000E-03 0.  1.
        -12    1    4    4    0    0 -0.24267766082E+01  0.22195239213E+00  0.40528727511E+01  0.47290892471E+01  0.00000000000E+00 0.  1.
</event>
<event>
 8    1  0.2882335E-009  0.9118800E+02  0.7816164E-02  0.1184000E+00
        -11   -1    0    0    0    0  0.00000000000E+00  0.00000000000E+00  0.45593999997E+02  0.45594000000E+02  0.51100000000E-03 0. -1.
         11   -1    0    0    0    0 -0.00000000000E+00 -0.00000000000E+00 -0.45593999997E+02  0.45594000000E+02  0.51100000000E-03 0.  1.
         23    2    1    2    0    0  0.00000000000E+00  0.00000000000E+00  0.00000000000E+00  0.91188000000E+02  0.91188000000E+02 0.  0.
    9900012    2    3    3    0    0  0.69877468924E+01 -0.26121541360E+02 -0.36027072086E+02  0.46142318157E+02  0.10000003609E+02 0.  0.
         12    1    3    3    0    0 -0.69877468924E+01  0.26121541360E+02  0.36027072086E+02  0.45045681843E+02  0.00000000000E+00 0. -1.
         11    1    4    4    0    0  0.13601500652E+01 -0.16665764367E+00 -0.54844906577E+00  0.14760012225E+01  0.51100000000E-03 0. -1.
        -11    1    4    4    0    0  0.35013218161E+01 -0.15564107770E+02 -0.16671063677E+02  0.23074337900E+02  0.51100000000E-03 0.  1.
         12    1    4    4    0    0  0.21262750111E+01 -0.10390775946E+02 -0.18807559343E+02  0.21591979035E+02  0.00000000000E+00 0. -1.
</event>
<event>
 8    1  0.2882335E-009  0.9118800E+02  0.7816164E-02  0.1184000E+00
        -11   -1    0    0    0    0  0.00000000000E+00  0.00000000000E+00  0.45593999997E+02  0.45594000000E+02  0.51100000000E-03 0. -1.
         11   -1    0    0    0    0 -0.00000000000E+00 -0.00000000000E+00 -0.45593999997E+02  0.45594000000E+02  0.51100000000E-03 0.  1.
         23    2    1    2    0    0  0.23592239273E-15  0.11102230246E-15  0.00000000000E+00  0.91188000000E+02  0.91188000000E+02 0.  0.
    9900012    2    3    3    0    0 -0.10260408644E+00 -0.43639233258E+00 -0.45043450799E+02  0.46142318456E+02  0.10000006341E+02 0.  0.
         12    1    3    3    0    0  0.10260408644E+00  0.43639233258E+00  0.45043450799E+02  0.45045681544E+02  0.00000000000E+00 0. -1.
         11    1    4    4    0    0 -0.19838647078E+01 -0.27424146132E+01 -0.13914015946E+02  0.14319790400E+02  0.51100000000E-03 0. -1.
        -11    1    4    4    0    0 -0.12974276481E+01  0.30727601436E+01 -0.15816807531E+02  0.16164670554E+02  0.51100000000E-03 0.  1.
        -12    1    4    4    0    0  0.31786882694E+01 -0.76673786294E+00 -0.15312627322E+02  0.15657857503E+02  0.00000000000E+00 0.  1.
</event>
<event>
 8    1  0.2882335E-009  0.9118800E+02  0.7816164E-02  0.1184000E+00
        -11   -1    0    0    0    0  0.00000000000E+00  0.00000000000E+00  0.45593999997E+02  0.45594000000E+02  0.51100000000E-03 0. -1.
         11   -1    0    0    0    0 -0.00000000000E+00 -0.00000000000E+00 -0.45593999997E+02  0.45594000000E+02  0.51100000000E-03 0.  1.
         23    2    1    2    0    0  0.00000000000E+00  0.00000000000E+00 -0.35527136788E-14  0.91188000000E+02  0.91188000000E+02 0.  0.
    9900012    2    3    3    0    0  0.35989072792E+02 -0.16937613164E+02  0.21142780031E+02  0.46142320434E+02  0.10000024373E+02 0.  0.
        -12    1    3    3    0    0 -0.35989072792E+02  0.16937613164E+02 -0.21142780031E+02  0.45045679566E+02  0.00000000000E+00 0.  1.
         11    1    4    4    0    0  0.26434999221E+02 -0.15733012130E+02  0.19139207121E+02  0.36230458236E+02  0.51100000000E-03 0. -1.
        -11    1    4    4    0    0  0.71721635706E+01 -0.71759220900E+00  0.20014019436E+01  0.74806736904E+01  0.51100000000E-03 0.  1.
         12    1    4    4    0    0  0.23819100007E+01 -0.48700882521E+00  0.21709658829E-02  0.24311885078E+01  0.00000000000E+00 0. -1.
</event>
<event>
 8    1  0.2882335E-009  0.9118800E+02  0.7816164E-02  0.1184000E+00
        -11   -1    0    0    0    0  0.00000000000E+00  0.00000000000E+00  0.45593999997E+02  0.45594000000E+02  0.51100000000E-03 0. -1.
         11   -1    0    0    0    0 -0.00000000000E+00 -0.00000000000E+00 -0.45593999997E+02  0.45594000000E+02  0.51100000000E-03 0.  1.
         23    2    1    2    0    0  0.71054273576E-14 -0.35527136788E-14 -0.35527136788E-14  0.91188000000E+02  0.91188000000E+02 0.  0.
    9900012    2    3    3    0    0 -0.35256948147E+02  0.22728486134E+02  0.16415750882E+02  0.46142319280E+02  0.10000013846E+02 0.  0.
        -12    1    3    3    0    0  0.35256948147E+02 -0.22728486134E+02 -0.16415750882E+02  0.45045680720E+02  0.00000000000E+00 0.  1.
         11    1    4    4    0    0 -0.71161910160E+01  0.67710231993E+01  0.31441073024E+01  0.10313696754E+02  0.51100000000E-03 0. -1.
        -11    1    4    4    0    0 -0.22777922852E+02  0.91568078478E+01  0.10814817866E+02  0.26826128777E+02  0.51100000000E-03 0.  1.
        -12    1    4    4    0    0 -0.53628342788E+01  0.68006550870E+01  0.24568257132E+01  0.90024937489E+01  0.00000000000E+00 0.  1.
</event>
<event>
 8    1  0.2882335E-009  0.9118800E+02  0.7816164E-02  0.1184000E+00
        -11   -1    0    0    0    0  0.00000000000E+00  0.00000000000E+00  0.45593999997E+02  0.45594000000E+02  0.51100000000E-03 0. -1.
         11   -1    0    0    0    0 -0.00000000000E+00 -0.00000000000E+00 -0.45593999997E+02  0.45594000000E+02  0.51100000000E-03 0.  1.
         23    2    1    2    0    0  0.17763568394E-14  0.00000000000E+00  0.00000000000E+00  0.91188000000E+02  0.91188000000E+02 0.  0.
    9900012    2    3    3    0    0  0.82030259612E+01 -0.21548512867E+02 -0.38697356015E+02  0.46142318695E+02  0.10000008514E+02 0.  0.
         12    1    3    3    0    0 -0.82030259612E+01  0.21548512867E+02  0.38697356015E+02  0.45045681305E+02  0.00000000000E+00 0. -1.
         11    1    4    4    0    0 -0.14258183488E+01 -0.83244555021E+01 -0.12490003076E+02  0.15077456499E+02  0.51100000000E-03 0.  1.
        -11    1    4    4    0    0  0.59420536166E+01 -0.59087398385E+01 -0.11488363831E+02  0.14219835141E+02  0.51100000000E-03 0. -1.
        -12    1    4    4    0    0  0.36867906933E+01 -0.73153175263E+01 -0.14718989108E+02  0.16845027055E+02  0.00000000000E+00 0.  1.
</event>
<event>
 8    1  0.2882335E-009  0.9118800E+02  0.7816164E-02  0.1184000E+00
        -11   -1    0    0    0    0  0.00000000000E+00  0.00000000000E+00  0.45593999997E+02  0.45594000000E+02  0.51100000000E-03 0. -1.
         11   -1    0    0    0    0 -0.00000000000E+00 -0.00000000000E+00 -0.45593999997E+02  0.45594000000E+02  0.51100000000E-03 0.  1.
         23    2    1    2    0    0  0.35527136788E-14  0.00000000000E+00  0.00000000000E+00  0.91188000000E+02  0.91188000000E+02 0.  0.
    9900012    2    3    3    0    0 -0.23221633628E+02 -0.17144509378E+02  0.34582293428E+02  0.46142317755E+02  0.99999999420E+01 0.  0.
        -12    1    3    3    0    0  0.23221633628E+02  0.17144509378E+02 -0.34582293428E+02  0.45045682245E+02  0.00000000000E+00 0.  1.
         11    1    4    4    0    0 -0.20503632318E+00 -0.23514796982E+01  0.25429854113E+01  0.34696212658E+01  0.51100000000E-03 0. -1.
        -11    1    4    4    0    0 -0.80447368309E+00 -0.24662024771E+01  0.16955894340E+01  0.30990896009E+01  0.51100000000E-03 0.  1.
         12    1    4    4    0    0 -0.22212123622E+02 -0.12326827203E+02  0.30343718583E+02  0.39573606888E+02  0.00000000000E+00 0. -1.
</event>
<event>
 8    1  0.2882335E-009  0.9118800E+02  0.7816164E-02  0.1184000E+00
        -11   -1    0    0    0    0  0.00000000000E+00  0.00000000000E+00  0.45593999997E+02  0.45594000000E+02  0.51100000000E-03 0. -1.
         11   -1    0    0    0    0 -0.00000000000E+00 -0.00000000000E+00 -0.45593999997E+02  0.45594000000E+02  0.51100000000E-03 0.  1.
         23    2    1    2    0    0 -0.71054273576E-14 -0.88817841970E-15  0.00000000000E+00  0.91188000000E+02  0.91188000000E+02 0.  0.
    9900012    2    3    3    0    0  0.34515650464E+02  0.51439202258E+01  0.28483739592E+02  0.46142318039E+02  0.10000002530E+02 0.  0.
        -12    1    3    3    0    0 -0.34515650464E+02 -0.51439202258E+01 -0.28483739592E+02  0.45045681961E+02  0.00000000000E+00 0.  1.
         11    1    4    4    0    0  0.72868583373E+01  0.38662224158E+01  0.37209238365E+01  0.90493786889E+01  0.51100000000E-03 0. -1.
        -11    1    4    4    0    0  0.10483956422E+02  0.66379089679E+00  0.12505386090E+02  0.16332135259E+02  0.51100000000E-03 0.  1.
        -12    1    4    4    0    0  0.16744835705E+02  0.61390691325E+00  0.12257429665E+02  0.20760804090E+02  0.00000000000E+00 0.  1.
</event>
<event>
 8    1  0.2882335E-009  0.9118800E+02  0.7816164E-02  0.1184000E+00
        -11   -1    0    0    0    0  0.00000000000E+00  0.00000000000E+00  0.45593999997E+02  0.45594000000E+02  0.51100000000E-03 0.  1.
         11   -1    0    0    0    0 -0.00000000000E+00 -0.00000000000E+00 -0.45593999997E+02  0.45594000000E+02  0.51100000000E-03 0. -1.
         23    2    1    2    0    0  0.00000000000E+00  0.00000000000E+00  0.00000000000E+00  0.91188000000E+02  0.91188000000E+02 0.  0.
    9900012    2    3    3    0    0  0.35458435095E+02  0.26971215394E+02 -0.66607955131E+01  0.46142320117E+02  0.10000021485E+02 0.  0.
        -12    1    3    3    0    0 -0.35458435095E+02 -0.26971215394E+02  0.66607955131E+01  0.45045679883E+02  0.00000000000E+00 0.  1.
         11    1    4    4    0    0  0.16599111896E+02  0.88373952747E+01 -0.20698824842E+01  0.18918627982E+02  0.51100000000E-03 0. -1.
        -11    1    4    4    0    0  0.58936588141E+00 -0.46046978114E+00 -0.29560197444E+00  0.80421722807E+00  0.51100000000E-03 0.  1.
         12    1    4    4    0    0  0.18269957318E+02  0.18594289901E+02 -0.42953110545E+01  0.26419474907E+02  0.00000000000E+00 0. -1.
</event>
<event>
 8    1  0.2882335E-009  0.9118800E+02  0.7816164E-02  0.1184000E+00
        -11   -1    0    0    0    0  0.00000000000E+00  0.00000000000E+00  0.45593999997E+02  0.45594000000E+02  0.51100000000E-03 0. -1.
         11   -1    0    0    0    0 -0.00000000000E+00 -0.00000000000E+00 -0.45593999997E+02  0.45594000000E+02  0.51100000000E-03 0.  1.
         23    2    1    2    0    0  0.00000000000E+00  0.00000000000E+00 -0.71054273576E-14  0.91188000000E+02  0.91188000000E+02 0.  0.
    9900012    2    3    3    0    0  0.24143221101E+02 -0.46414816688E+01 -0.37744866988E+02  0.46142318063E+02  0.10000002750E+02 0.  0.
         12    1    3    3    0    0 -0.24143221101E+02  0.46414816688E+01  0.37744866988E+02  0.45045681937E+02  0.00000000000E+00 0. -1.
         11    1    4    4    0    0  0.10287725561E+01  0.14597697230E+01 -0.33438315247E+01  0.37908455710E+01  0.51100000000E-03 0. -1.
        -11    1    4    4    0    0  0.11368409210E+02 -0.90347953527E+00 -0.20248458674E+02  0.23239128258E+02  0.51100000000E-03 0.  1.
        -12    1    4    4    0    0  0.11746039335E+02 -0.51977718565E+01 -0.14152576790E+02  0.19112344234E+02  0.00000000000E+00 0.  1.
</event>
<event>
 8    1  0.2882335E-009  0.9118800E+02  0.7816164E-02  0.1184000E+00
        -11   -1    0    0    0    0  0.00000000000E+00  0.00000000000E+00  0.45593999997E+02  0.45594000000E+02  0.51100000000E-03 0.  1.
         11   -1    0    0    0    0 -0.00000000000E+00 -0.00000000000E+00 -0.45593999997E+02  0.45594000000E+02  0.51100000000E-03 0. -1.
         23    2    1    2    0    0 -0.17763568394E-14  0.00000000000E+00  0.00000000000E+00  0.91188000000E+02  0.91188000000E+02 0.  0.
    9900012    2    3    3    0    0 -0.13728681159E+02 -0.34701398736E+02  0.25227958040E+02  0.46142316217E+02  0.99999859172E+01 0.  0.
        -12    1    3    3    0    0  0.13728681159E+02  0.34701398736E+02 -0.25227958040E+02  0.45045683783E+02  0.00000000000E+00 0.  1.
         11    1    4    4    0    0 -0.49800689527E+01 -0.21687374808E+02  0.16499568496E+02  0.27701607781E+02  0.51100000000E-03 0.  1.
        -11    1    4    4    0    0 -0.69807472977E+01 -0.12226214914E+02  0.65534491779E+01  0.15529290401E+02  0.51100000000E-03 0. -1.
        -12    1    4    4    0    0 -0.17678649088E+01 -0.78780901427E+00  0.21749403662E+01  0.29114180351E+01  0.00000000000E+00 0.  1.
</event>
<event>
 8    1  0.2882335E-009  0.9118800E+02  0.7816164E-02  0.1184000E+00
        -11   -1    0    0    0    0  0.00000000000E+00  0.00000000000E+00  0.45593999997E+02  0.45594000000E+02  0.51100000000E-03 0. -1.
         11   -1    0    0    0    0 -0.00000000000E+00 -0.00000000000E+00 -0.45593999997E+02  0.45594000000E+02  0.51100000000E-03 0.  1.
         23    2    1    2    0    0 -0.35527136788E-14  0.44408920985E-15 -0.71054273576E-14  0.91188000000E+02  0.91188000000E+02 0.  0.
    9900012    2    3    3    0    0  0.18083767079E+02 -0.22437356853E+01  0.41195344746E+02  0.46142318627E+02  0.10000007894E+02 0.  0.
        -12    1    3    3    0    0 -0.18083767079E+02  0.22437356853E+01 -0.41195344746E+02  0.45045681373E+02  0.00000000000E+00 0.  1.
         11    1    4    4    0    0  0.82051043112E+01 -0.81966236149E+00  0.26377386063E+02  0.27636245746E+02  0.51100000000E-03 0. -1.
        -11    1    4    4    0    0  0.48801180121E+01  0.11393427516E+01  0.43943988215E+01  0.66651627873E+01  0.51100000000E-03 0.  1.
        -12    1    4    4    0    0  0.49985447560E+01 -0.25634160754E+01  0.10423559861E+02  0.11840910093E+02  0.00000000000E+00 0.  1.
</event>
<event>
 8    1  0.2882335E-009  0.9118800E+02  0.7816164E-02  0.1184000E+00
        -11   -1    0    0    0    0  0.00000000000E+00  0.00000000000E+00  0.45593999997E+02  0.45594000000E+02  0.51100000000E-03 0. -1.
         11   -1    0    0    0    0 -0.00000000000E+00 -0.00000000000E+00 -0.45593999997E+02  0.45594000000E+02  0.51100000000E-03 0.  1.
         23    2    1    2    0    0  0.00000000000E+00  0.00000000000E+00  0.00000000000E+00  0.91188000000E+02  0.91188000000E+02 0.  0.
    9900012    2    3    3    0    0 -0.11259433369E+02 -0.26461635936E+02  0.34671607255E+02  0.46142319121E+02  0.10000012402E+02 0.  0.
        -12    1    3    3    0    0  0.11259433369E+02  0.26461635936E+02 -0.34671607255E+02  0.45045680879E+02  0.00000000000E+00 0.  1.
         11    1    4    4    0    0 -0.13327504599E+01 -0.21872368988E+01  0.25443751115E+01  0.36102733981E+01  0.51100000000E-03 0. -1.
        -11    1    4    4    0    0  0.54102703474E+00 -0.48408017374E+01  0.10758195255E+02  0.11809523153E+02  0.51100000000E-03 0.  1.
        -12    1    4    4    0    0 -0.10467709944E+02 -0.19433597300E+02  0.21369036888E+02  0.30722522570E+02  0.00000000000E+00 0.  1.
</event>
<event>
 8    1  0.2882335E-009  0.9118800E+02  0.7816164E-02  0.1184000E+00
        -11   -1    0    0    0    0  0.00000000000E+00  0.00000000000E+00  0.45593999997E+02  0.45594000000E+02  0.51100000000E-03 0.  1.
         11   -1    0    0    0    0 -0.00000000000E+00 -0.00000000000E+00 -0.45593999997E+02  0.45594000000E+02  0.51100000000E-03 0. -1.
         23    2    1    2    0    0  0.00000000000E+00  0.00000000000E+00  0.00000000000E+00  0.91188000000E+02  0.91188000000E+02 0.  0.
    9900012    2    3    3    0    0  0.17299692408E+02 -0.39816035672E+02  0.12021543638E+02  0.46142316905E+02  0.99999921893E+01 0.  0.
        -12    1    3    3    0    0 -0.17299692408E+02  0.39816035672E+02 -0.12021543638E+02  0.45045683095E+02  0.00000000000E+00 0.  1.
         11    1    4    4    0    0  0.13709524223E+02 -0.30763930781E+02  0.11741266554E+02  0.35668302905E+02  0.51100000000E-03 0. -1.
        -11    1    4    4    0    0  0.27897034167E+01 -0.41069767924E+01 -0.14530707740E+01  0.51731149670E+01  0.51100000000E-03 0.  1.
        -12    1    4    4    0    0  0.80046476796E+00 -0.49451280988E+01  0.17333478582E+01  0.53008990328E+01  0.00000000000E+00 0.  1.
</event>
<event>
 8    1  0.2882335E-009  0.9118800E+02  0.7816164E-02  0.1184000E+00
        -11   -1    0    0    0    0  0.00000000000E+00  0.00000000000E+00  0.45593999997E+02  0.45594000000E+02  0.51100000000E-03 0. -1.
         11   -1    0    0    0    0 -0.00000000000E+00 -0.00000000000E+00 -0.45593999997E+02  0.45594000000E+02  0.51100000000E-03 0.  1.
         23    2    1    2    0    0  0.00000000000E+00  0.00000000000E+00  0.71054273576E-14  0.91188000000E+02  0.91188000000E+02 0.  0.
    9900012    2    3    3    0    0 -0.27984128046E+02 -0.83618389986E+01  0.34294049540E+02  0.46142316435E+02  0.99999879110E+01 0.  0.
        -12    1    3    3    0    0  0.27984128046E+02  0.83618389986E+01 -0.34294049540E+02  0.45045683565E+02  0.00000000000E+00 0.  1.
         11    1    4    4    0    0 -0.83364465356E+01 -0.69313858695E+01  0.12862473329E+02  0.16822118514E+02  0.51100000000E-03 0. -1.
        -11    1    4    4    0    0 -0.17926985614E+02 -0.31288493008E+00  0.18739474380E+02  0.25935354451E+02  0.51100000000E-03 0.  1.
        -12    1    4    4    0    0 -0.17206958958E+01 -0.11175681990E+01  0.26921018320E+01  0.33848434704E+01  0.00000000000E+00 0.  1.
</event>
<event>
 8    1  0.2882335E-009  0.9118800E+02  0.7816164E-02  0.1184000E+00
        -11   -1    0    0    0    0  0.00000000000E+00  0.00000000000E+00  0.45593999997E+02  0.45594000000E+02  0.51100000000E-03 0. -1.
         11   -1    0    0    0    0 -0.00000000000E+00 -0.00000000000E+00 -0.45593999997E+02  0.45594000000E+02  0.51100000000E-03 0.  1.
         23    2    1    2    0    0  0.00000000000E+00  0.00000000000E+00  0.00000000000E+00  0.91188000000E+02  0.91188000000E+02 0.  0.
    9900012    2    3    3    0    0  0.40474344014E+02 -0.17945936505E+02  0.82996614257E+01  0.46142317186E+02  0.99999947539E+01 0.  0.
        -12    1    3    3    0    0 -0.40474344014E+02  0.17945936505E+02 -0.82996614257E+01  0.45045682814E+02  0.00000000000E+00 0.  1.
         11    1    4    4    0    0  0.25677322569E+02 -0.16213572936E+02  0.51587150827E+01  0.30802876217E+02  0.51100000000E-03 0. -1.
        -11    1    4    4    0    0  0.63528853223E+01 -0.47464362170E-01  0.71212418548E+00  0.63928495916E+01  0.51100000000E-03 0.  1.
         12    1    4    4    0    0  0.84441361228E+01 -0.16848992061E+01  0.24288221575E+01  0.89465913770E+01  0.00000000000E+00 0. -1.
</event>
<event>
 8    1  0.2882335E-009  0.9118800E+02  0.7816164E-02  0.1184000E+00
        -11   -1    0    0    0    0  0.00000000000E+00  0.00000000000E+00  0.45593999997E+02  0.45594000000E+02  0.51100000000E-03 0. -1.
         11   -1    0    0    0    0 -0.00000000000E+00 -0.00000000000E+00 -0.45593999997E+02  0.45594000000E+02  0.51100000000E-03 0.  1.
         23    2    1    2    0    0  0.00000000000E+00 -0.35527136788E-14 -0.71054273576E-14  0.91188000000E+02  0.91188000000E+02 0.  0.
    9900012    2    3    3    0    0 -0.18179980244E+02 -0.23538186253E+02 -0.33831280157E+02  0.46142318622E+02  0.10000007852E+02 0.  0.
         12    1    3    3    0    0  0.18179980244E+02  0.23538186253E+02  0.33831280157E+02  0.45045681378E+02  0.00000000000E+00 0. -1.
         11    1    4    4    0    0 -0.62738852584E+01 -0.11675981987E+02 -0.11254052756E+02  0.17388038857E+02  0.51100000000E-03 0. -1.
        -11    1    4    4    0    0 -0.93972743759E+01 -0.84225647430E+01 -0.20361214125E+02  0.23954694810E+02  0.51100000000E-03 0.  1.
        -12    1    4    4    0    0 -0.25088206099E+01 -0.34396395232E+01 -0.22160132753E+01  0.47995849548E+01  0.00000000000E+00 0.  1.
</event>
<event>
 8    1  0.2882335E-009  0.9118800E+02  0.7816164E-02  0.1184000E+00
        -11   -1    0    0    0    0  0.00000000000E+00  0.00000000000E+00  0.45593999997E+02  0.45594000000E+02  0.51100000000E-03 0. -1.
         11   -1    0    0    0    0 -0.00000000000E+00 -0.00000000000E+00 -0.45593999997E+02  0.45594000000E+02  0.51100000000E-03 0.  1.
         23    2    1    2    0    0  0.17763568394E-14  0.00000000000E+00  0.00000000000E+00  0.91188000000E+02  0.91188000000E+02 0.  0.
    9900012    2    3    3    0    0 -0.85893804101E+01  0.18930085260E+02 -0.39962331260E+02  0.46142317593E+02  0.99999984630E+01 0.  0.
         12    1    3    3    0    0  0.85893804101E+01 -0.18930085260E+02  0.39962331260E+02  0.45045682407E+02  0.00000000000E+00 0. -1.
         11    1    4    4    0    0 -0.47845365767E+01  0.73442288910E+01 -0.11551664105E+02  0.14500704539E+02  0.51100000000E-03 0. -1.
        -11    1    4    4    0    0 -0.20859372979E+01  0.11836236224E+02 -0.26239993530E+02  0.28861477493E+02  0.51100000000E-03 0.  1.
         12    1    4    4    0    0 -0.17189065356E+01 -0.25037985493E+00 -0.21706736252E+01  0.27801355609E+01  0.00000000000E+00 0. -1.
</event>
<event>
 8    1  0.2882335E-009  0.9118800E+02  0.7816164E-02  0.1184000E+00
        -11   -1    0    0    0    0  0.00000000000E+00  0.00000000000E+00  0.45593999997E+02  0.45594000000E+02  0.51100000000E-03 0. -1.
         11   -1    0    0    0    0 -0.00000000000E+00 -0.00000000000E+00 -0.45593999997E+02  0.45594000000E+02  0.51100000000E-03 0.  1.
         23    2    1    2    0    0  0.00000000000E+00  0.00000000000E+00  0.00000000000E+00  0.91188000000E+02  0.91188000000E+02 0.  0.
    9900012    2    3    3    0    0 -0.10285194132E+02 -0.21427753080E+02 -0.38264599882E+02  0.46142318470E+02  0.10000006463E+02 0.  0.
         12    1    3    3    0    0  0.10285194132E+02  0.21427753080E+02  0.38264599882E+02  0.45045681530E+02  0.00000000000E+00 0. -1.
         11    1    4    4    0    0 -0.24524171277E+01 -0.39447373660E+01 -0.42374224782E+01  0.62873724381E+01  0.51100000000E-03 0. -1.
        -11    1    4    4    0    0 -0.66061380304E+01 -0.16582969785E+02 -0.25106116964E+02  0.30805081656E+02  0.51100000000E-03 0.  1.
        -12    1    4    4    0    0 -0.12266389737E+01 -0.90004592871E+00 -0.89210604396E+01  0.90498643754E+01  0.00000000000E+00 0.  1.
</event>
<event>
 8    1  0.2882335E-009  0.9118800E+02  0.7816164E-02  0.1184000E+00
        -11   -1    0    0    0    0  0.00000000000E+00  0.00000000000E+00  0.45593999997E+02  0.45594000000E+02  0.51100000000E-03 0. -1.
         11   -1    0    0    0    0 -0.00000000000E+00 -0.00000000000E+00 -0.45593999997E+02  0.45594000000E+02  0.51100000000E-03 0.  1.
         23    2    1    2    0    0  0.35527136788E-14 -0.71054273576E-14 -0.35527136788E-14  0.91188000000E+02  0.91188000000E+02 0.  0.
    9900012    2    3    3    0    0  0.18650071136E+02 -0.31177380632E+02 -0.26631918183E+02  0.46142320046E+02  0.10000020832E+02 0.  0.
         12    1    3    3    0    0 -0.18650071136E+02  0.31177380632E+02  0.26631918183E+02  0.45045679954E+02  0.00000000000E+00 0. -1.
         11    1    4    4    0    0  0.58320157801E+01 -0.11632340609E+02 -0.68803498663E+01  0.14719475896E+02  0.51100000000E-03 0. -1.
        -11    1    4    4    0    0  0.12539370996E+02 -0.15218147795E+02 -0.18151379806E+02  0.26801127522E+02  0.51100000000E-03 0.  1.
        -12    1    4    4    0    0  0.27868435985E+00 -0.43268922274E+01 -0.16001885103E+01  0.46217166279E+01  0.00000000000E+00 0.  1.
</event>
<event>
 8    1  0.2882335E-009  0.9118800E+02  0.7816164E-02  0.1184000E+00
        -11   -1    0    0    0    0  0.00000000000E+00  0.00000000000E+00  0.45593999997E+02  0.45594000000E+02  0.51100000000E-03 0. -1.
         11   -1    0    0    0    0 -0.00000000000E+00 -0.00000000000E+00 -0.45593999997E+02  0.45594000000E+02  0.51100000000E-03 0.  1.
         23    2    1    2    0    0  0.00000000000E+00  0.00000000000E+00  0.00000000000E+00  0.91188000000E+02  0.91188000000E+02 0.  0.
    9900012    2    3    3    0    0  0.16016800814E+02  0.70013190741E+01 -0.41515743782E+02  0.46142319198E+02  0.10000013103E+02 0.  0.
         12    1    3    3    0    0 -0.16016800814E+02 -0.70013190741E+01  0.41515743782E+02  0.45045680802E+02  0.00000000000E+00 0. -1.
         11    1    4    4    0    0  0.31634460877E+01  0.23219005981E+01 -0.32871959495E+01  0.51190107451E+01  0.51100000000E-03 0. -1.
        -11    1    4    4    0    0  0.71425851361E+01  0.34007449005E+01 -0.29289301943E+02  0.30338833149E+02  0.51100000000E-03 0.  1.
        -12    1    4    4    0    0  0.57107695906E+01  0.12786735755E+01 -0.89392458904E+01  0.10684475304E+02  0.00000000000E+00 0.  1.
</event>
<event>
 8    1  0.2882335E-009  0.9118800E+02  0.7816164E-02  0.1184000E+00
        -11   -1    0    0    0    0  0.00000000000E+00  0.00000000000E+00  0.45593999997E+02  0.45594000000E+02  0.51100000000E-03 0.  1.
         11   -1    0    0    0    0 -0.00000000000E+00 -0.00000000000E+00 -0.45593999997E+02  0.45594000000E+02  0.51100000000E-03 0. -1.
         23    2    1    2    0    0 -0.88817841970E-15 -0.71054273576E-14  0.00000000000E+00  0.91188000000E+02  0.91188000000E+02 0.  0.
    9900012    2    3    3    0    0  0.29334203524E+01  0.44910608376E+02  0.18830169183E+01  0.46142318161E+02  0.10000003644E+02 0.  0.
        -12    1    3    3    0    0 -0.29334203524E+01 -0.44910608376E+02 -0.18830169183E+01  0.45045681839E+02  0.00000000000E+00 0.  1.
         11    1    4    4    0    0 -0.48580084825E+00  0.12320976655E+02  0.25580307250E+01  0.12593092934E+02  0.51100000000E-03 0. -1.
        -11    1    4    4    0    0  0.36980088831E+01  0.23958237386E+02 -0.34325314427E+01  0.24483763614E+02  0.51100000000E-03 0.  1.
        -12    1    4    4    0    0 -0.27878768241E+00  0.86313943348E+01  0.27575176360E+01  0.90654616125E+01  0.00000000000E+00 0.  1.
</event>
<event>
 8    1  0.2882335E-009  0.9118800E+02  0.7816164E-02  0.1184000E+00
        -11   -1    0    0    0    0  0.00000000000E+00  0.00000000000E+00  0.45593999997E+02  0.45594000000E+02  0.51100000000E-03 0. -1.
         11   -1    0    0    0    0 -0.00000000000E+00 -0.00000000000E+00 -0.45593999997E+02  0.45594000000E+02  0.51100000000E-03 0.  1.
         23    2    1    2    0    0  0.17763568394E-14  0.00000000000E+00 -0.71054273576E-14  0.91188000000E+02  0.91188000000E+02 0.  0.
    9900012    2    3    3    0    0 -0.10651863195E+02 -0.94934889708E+01 -0.42726162998E+02  0.46142317334E+02  0.99999961013E+01 0.  0.
         12    1    3    3    0    0  0.10651863195E+02  0.94934889708E+01  0.42726162998E+02  0.45045682666E+02  0.00000000000E+00 0. -1.
         11    1    4    4    0    0 -0.80905268885E+01 -0.50595136713E+01 -0.19242574845E+02  0.21478640340E+02  0.51100000000E-03 0. -1.
        -11    1    4    4    0    0 -0.27803097955E+01  0.12053007216E-01 -0.12635953307E+02  0.12938221828E+02  0.51100000000E-03 0.  1.
        -12    1    4    4    0    0  0.21897348881E+00 -0.44460283068E+01 -0.10847634846E+02  0.11725455166E+02  0.00000000000E+00 0.  1.
</event>
<event>
 8    1  0.3019912E-009  0.9118800E+02  0.7816164E-02  0.1184000E+00
        -11   -1    0    0    0    0  0.00000000000E+00  0.00000000000E+00  0.45593999997E+02  0.45594000000E+02  0.51100000000E-03 0. -1.
         11   -1    0    0    0    0 -0.00000000000E+00 -0.00000000000E+00 -0.45593999997E+02  0.45594000000E+02  0.51100000000E-03 0.  1.
         23    2    1    2    0    0  0.35527136788E-14 -0.88817841970E-15  0.00000000000E+00  0.91188000000E+02  0.91188000000E+02 0.  0.
    9900012    2    3    3    0    0  0.30224655478E+02  0.51889542483E+01  0.32994823951E+02  0.46142318159E+02  0.10000003629E+02 0.  0.
        -12    1    3    3    0    0 -0.30224655478E+02 -0.51889542483E+01 -0.32994823951E+02  0.45045681841E+02  0.00000000000E+00 0.  1.
         11    1    4    4    0    0  0.23644191171E+02  0.64327221166E+01  0.21446833685E+02  0.32563697046E+02  0.51100000000E-03 0. -1.
        -11    1    4    4    0    0  0.40995532121E+00 -0.44459876107E+00  0.20030352854E+00  0.63706607852E+00  0.51100000000E-03 0.  1.
         12    1    4    4    0    0  0.61705089858E+01 -0.79916910719E+00  0.11347686738E+02  0.12941555034E+02  0.00000000000E+00 0. -1.
</event>
<event>
 8    1  0.2882335E-009  0.9118800E+02  0.7816164E-02  0.1184000E+00
        -11   -1    0    0    0    0  0.00000000000E+00  0.00000000000E+00  0.45593999997E+02  0.45594000000E+02  0.51100000000E-03 0. -1.
         11   -1    0    0    0    0 -0.00000000000E+00 -0.00000000000E+00 -0.45593999997E+02  0.45594000000E+02  0.51100000000E-03 0.  1.
         23    2    1    2    0    0  0.00000000000E+00  0.00000000000E+00  0.00000000000E+00  0.91188000000E+02  0.91188000000E+02 0.  0.
    9900012    2    3    3    0    0  0.42582731138E+01 -0.14047008690E+02 -0.42587114025E+02  0.46142316255E+02  0.99999862698E+01 0.  0.
         12    1    3    3    0    0 -0.42582731138E+01  0.14047008690E+02  0.42587114025E+02  0.45045683745E+02  0.00000000000E+00 0. -1.
         11    1    4    4    0    0  0.21977903603E+01 -0.72426194481E+00 -0.14488891769E+02  0.14672519306E+02  0.51100000000E-03 0. -1.
        -11    1    4    4    0    0  0.20474806224E+01 -0.11704396346E+02 -0.20442589535E+02  0.23644968554E+02  0.51100000000E-03 0.  1.
        -12    1    4    4    0    0  0.13002131028E-01 -0.16183503985E+01 -0.76556327205E+01  0.78248283955E+01  0.00000000000E+00 0.  1.
</event>
<event>
 8    1  0.2882335E-009  0.9118800E+02  0.7816164E-02  0.1184000E+00
        -11   -1    0    0    0    0  0.00000000000E+00  0.00000000000E+00  0.45593999997E+02  0.45594000000E+02  0.51100000000E-03 0. -1.
         11   -1    0    0    0    0 -0.00000000000E+00 -0.00000000000E+00 -0.45593999997E+02  0.45594000000E+02  0.51100000000E-03 0.  1.
         23    2    1    2    0    0 -0.71054273576E-14  0.00000000000E+00  0.17763568394E-14  0.91188000000E+02  0.91188000000E+02 0.  0.
    9900012    2    3    3    0    0  0.39700455006E+02  0.14791945388E+02 -0.15303129684E+02  0.46142317030E+02  0.99999933362E+01 0.  0.
         12    1    3    3    0    0 -0.39700455006E+02 -0.14791945388E+02  0.15303129684E+02  0.45045682970E+02  0.00000000000E+00 0. -1.
         11    1    4    4    0    0  0.17674604343E+02  0.43550480134E+01 -0.37843455742E+01  0.18592454210E+02  0.51100000000E-03 0.  1.
        -11    1    4    4    0    0  0.12315295163E+02  0.84002481520E+01 -0.52073145065E+01  0.15790718432E+02  0.51100000000E-03 0. -1.
        -12    1    4    4    0    0  0.97105555000E+01  0.20366492226E+01 -0.63114696036E+01  0.11759144388E+02  0.00000000000E+00 0.  1.
</event>
<event>
 8    1  0.2882335E-009  0.9118800E+02  0.7816164E-02  0.1184000E+00
        -11   -1    0    0    0    0  0.00000000000E+00  0.00000000000E+00  0.45593999997E+02  0.45594000000E+02  0.51100000000E-03 0. -1.
         11   -1    0    0    0    0 -0.00000000000E+00 -0.00000000000E+00 -0.45593999997E+02  0.45594000000E+02  0.51100000000E-03 0.  1.
         23    2    1    2    0    0  0.00000000000E+00  0.00000000000E+00  0.00000000000E+00  0.91188000000E+02  0.91188000000E+02 0.  0.
    9900012    2    3    3    0    0  0.18576274495E+02 -0.75297878854E+01  0.40340282512E+02  0.46142311273E+02  0.99999408374E+01 0.  0.
        -12    1    3    3    0    0 -0.18576274495E+02  0.75297878854E+01 -0.40340282512E+02  0.45045688727E+02  0.00000000000E+00 0.  1.
         11    1    4    4    0    0  0.10690696250E+02 -0.40519678558E+01  0.15406099233E+02  0.19184820136E+02  0.51100000000E-03 0.  1.
        -11    1    4    4    0    0  0.37872542667E+01  0.11855285507E+01  0.11293278610E+02  0.11970251244E+02  0.51100000000E-03 0. -1.
         12    1    4    4    0    0  0.40983239780E+01 -0.46633485803E+01  0.13640904669E+02  0.14987239892E+02  0.00000000000E+00 0. -1.
</event>
<event>
 8    1  0.2882335E-009  0.9118800E+02  0.7816164E-02  0.1184000E+00
        -11   -1    0    0    0    0  0.00000000000E+00  0.00000000000E+00  0.45593999997E+02  0.45594000000E+02  0.51100000000E-03 0. -1.
         11   -1    0    0    0    0 -0.00000000000E+00 -0.00000000000E+00 -0.45593999997E+02  0.45594000000E+02  0.51100000000E-03 0.  1.
         23    2    1    2    0    0  0.00000000000E+00  0.17763568394E-14  0.00000000000E+00  0.91188000000E+02  0.91188000000E+02 0.  0.
    9900012    2    3    3    0    0  0.65382260779E+01  0.70734684224E+01 -0.44003762684E+02  0.46142317786E+02  0.10000000225E+02 0.  0.
         12    1    3    3    0    0 -0.65382260779E+01 -0.70734684224E+01  0.44003762684E+02  0.45045682214E+02  0.00000000000E+00 0. -1.
         11    1    4    4    0    0 -0.66541739548E+00  0.14417957114E+00 -0.23909211024E+00  0.72161856770E+00  0.51100000000E-03 0. -1.
        -11    1    4    4    0    0  0.21615360794E+01  0.63643316819E+01 -0.30182064108E+02  0.30921415719E+02  0.51100000000E-03 0.  1.
         12    1    4    4    0    0  0.50421073940E+01  0.56495716933E+00 -0.13582606466E+02  0.14499283499E+02  0.00000000000E+00 0. -1.
</event>
<event>
 8    1  0.2882335E-009  0.9118800E+02  0.7816164E-02  0.1184000E+00
        -11   -1    0    0    0    0  0.00000000000E+00  0.00000000000E+00  0.45593999997E+02  0.45594000000E+02  0.51100000000E-03 0. -1.
         11   -1    0    0    0    0 -0.00000000000E+00 -0.00000000000E+00 -0.45593999997E+02  0.45594000000E+02  0.51100000000E-03 0.  1.
         23    2    1    2    0    0  0.17763568394E-14 -0.35527136788E-14  0.00000000000E+00  0.91188000000E+02  0.91188000000E+02 0.  0.
    9900012    2    3    3    0    0 -0.13134838207E+02  0.17694428992E+02 -0.39287360946E+02  0.46142317386E+02  0.99999965793E+01 0.  0.
         12    1    3    3    0    0  0.13134838207E+02 -0.17694428992E+02  0.39287360946E+02  0.45045682614E+02  0.00000000000E+00 0. -1.
         11    1    4    4    0    0 -0.69000337331E+01  0.12546415177E+02 -0.17990841472E+02  0.22993333304E+02  0.51100000000E-03 0. -1.
        -11    1    4    4    0    0 -0.47800209389E+01  0.37100236939E+01 -0.19531226556E+02  0.20447045924E+02  0.51100000000E-03 0.  1.
        -12    1    4    4    0    0 -0.14547835346E+01  0.14379901209E+01 -0.17652929183E+01  0.27019381577E+01  0.00000000000E+00 0.  1.
</event>
<event>
 8    1  0.2882335E-009  0.9118800E+02  0.7816164E-02  0.1184000E+00
        -11   -1    0    0    0    0  0.00000000000E+00  0.00000000000E+00  0.45593999997E+02  0.45594000000E+02  0.51100000000E-03 0.  1.
         11   -1    0    0    0    0 -0.00000000000E+00 -0.00000000000E+00 -0.45593999997E+02  0.45594000000E+02  0.51100000000E-03 0. -1.
         23    2    1    2    0    0 -0.35527136788E-14  0.00000000000E+00  0.88817841970E-15  0.91188000000E+02  0.91188000000E+02 0.  0.
    9900012    2    3    3    0    0  0.18908644746E+02  0.40515979565E+02 -0.54801343188E+01  0.46142319648E+02  0.10000017206E+02 0.  0.
         12    1    3    3    0    0 -0.18908644746E+02 -0.40515979565E+02  0.54801343188E+01  0.45045680352E+02  0.00000000000E+00 0. -1.
         11    1    4    4    0    0  0.97972286613E+01  0.11300825505E+02  0.46632509367E+00  0.14963682899E+02  0.51100000000E-03 0. -1.
        -11    1    4    4    0    0  0.24553998772E+01  0.85028524795E+01 -0.18032712607E+01  0.90321246861E+01  0.51100000000E-03 0.  1.
         12    1    4    4    0    0  0.66560162078E+01  0.20712301580E+02 -0.41431881517E+01  0.22146512063E+02  0.00000000000E+00 0. -1.
</event>
<event>
 8    1  0.2882335E-009  0.9118800E+02  0.7816164E-02  0.1184000E+00
        -11   -1    0    0    0    0  0.00000000000E+00  0.00000000000E+00  0.45593999997E+02  0.45594000000E+02  0.51100000000E-03 0. -1.
         11   -1    0    0    0    0 -0.00000000000E+00 -0.00000000000E+00 -0.45593999997E+02  0.45594000000E+02  0.51100000000E-03 0.  1.
         23    2    1    2    0    0  0.35527136788E-14  0.00000000000E+00  0.00000000000E+00  0.91188000000E+02  0.91188000000E+02 0.  0.
    9900012    2    3    3    0    0  0.19365622128E+02  0.22193519777E+02 -0.34081285535E+02  0.46142315809E+02  0.99999822024E+01 0.  0.
         12    1    3    3    0    0 -0.19365622128E+02 -0.22193519777E+02  0.34081285535E+02  0.45045684191E+02  0.00000000000E+00 0. -1.
         11    1    4    4    0    0  0.10886382496E+02  0.14508926094E+02 -0.26899292146E+02  0.32443707842E+02  0.51100000000E-03 0. -1.
        -11    1    4    4    0    0  0.64768798887E+01  0.59106158935E+01 -0.42987677051E+01  0.97654880767E+01  0.51100000000E-03 0.  1.
         12    1    4    4    0    0  0.20023597434E+01  0.17739777890E+01 -0.28832256832E+01  0.39331198911E+01  0.00000000000E+00 0. -1.
</event>
<event>
 8    1  0.2882335E-009  0.9118800E+02  0.7816164E-02  0.1184000E+00
        -11   -1    0    0    0    0  0.00000000000E+00  0.00000000000E+00  0.45593999997E+02  0.45594000000E+02  0.51100000000E-03 0. -1.
         11   -1    0    0    0    0 -0.00000000000E+00 -0.00000000000E+00 -0.45593999997E+02  0.45594000000E+02  0.51100000000E-03 0.  1.
         23    2    1    2    0    0  0.00000000000E+00  0.00000000000E+00  0.00000000000E+00  0.91188000000E+02  0.91188000000E+02 0.  0.
    9900012    2    3    3    0    0 -0.38759140269E+02  0.53778230617E+01  0.22314156165E+02  0.46142317625E+02  0.99999987628E+01 0.  0.
        -12    1    3    3    0    0  0.38759140269E+02 -0.53778230617E+01 -0.22314156165E+02  0.45045682375E+02  0.00000000000E+00 0.  1.
         11    1    4    4    0    0 -0.19388086542E+02  0.43299848337E+01  0.97619178418E+01  0.22134626914E+02  0.51100000000E-03 0. -1.
        -11    1    4    4    0    0  0.51957661846E+00 -0.14171920767E+00  0.34430102999E+00  0.63920861747E+00  0.51100000000E-03 0.  1.
         12    1    4    4    0    0 -0.19890630345E+02  0.11895574357E+01  0.12207937293E+02  0.23368482094E+02  0.00000000000E+00 0. -1.
</event>
<event>
 8    1  0.2882335E-009  0.9118800E+02  0.7816164E-02  0.1184000E+00
        -11   -1    0    0    0    0  0.00000000000E+00  0.00000000000E+00  0.45593999997E+02  0.45594000000E+02  0.51100000000E-03 0. -1.
         11   -1    0    0    0    0 -0.00000000000E+00 -0.00000000000E+00 -0.45593999997E+02  0.45594000000E+02  0.51100000000E-03 0.  1.
         23    2    1    2    0    0  0.17763568394E-14  0.00000000000E+00  0.00000000000E+00  0.91188000000E+02  0.91188000000E+02 0.  0.
    9900012    2    3    3    0    0 -0.83532430671E+01 -0.24107160402E+02 -0.37123867545E+02  0.46142318810E+02  0.10000009566E+02 0.  0.
         12    1    3    3    0    0  0.83532430671E+01  0.24107160402E+02  0.37123867545E+02  0.45045681190E+02  0.00000000000E+00 0. -1.
         11    1    4    4    0    0 -0.64947655012E+01 -0.15579860358E+02 -0.18954733507E+02  0.25381015548E+02  0.51100000000E-03 0. -1.
        -11    1    4    4    0    0 -0.17046820495E+00 -0.55504726403E+01 -0.15362910029E+02  0.16335721924E+02  0.51100000000E-03 0.  1.
        -12    1    4    4    0    0 -0.16880093609E+01 -0.29768274035E+01 -0.28062240088E+01  0.44255813381E+01  0.00000000000E+00 0.  1.
</event>
<event>
 8    1  0.2882335E-009  0.9118800E+02  0.7816164E-02  0.1184000E+00
        -11   -1    0    0    0    0  0.00000000000E+00  0.00000000000E+00  0.45593999997E+02  0.45594000000E+02  0.51100000000E-03 0. -1.
         11   -1    0    0    0    0 -0.00000000000E+00 -0.00000000000E+00 -0.45593999997E+02  0.45594000000E+02  0.51100000000E-03 0.  1.
         23    2    1    2    0    0  0.00000000000E+00  0.00000000000E+00  0.00000000000E+00  0.91188000000E+02  0.91188000000E+02 0.  0.
    9900012    2    3    3    0    0 -0.77489968769E+00  0.43851046224E+02 -0.10276119379E+02  0.46142319253E+02  0.10000013608E+02 0.  0.
         12    1    3    3    0    0  0.77489968769E+00 -0.43851046224E+02  0.10276119379E+02  0.45045680747E+02  0.00000000000E+00 0. -1.
         11    1    4    4    0    0  0.31142232617E+01  0.10863669925E+02 -0.27516212862E+01  0.11631385589E+02  0.51100000000E-03 0. -1.
        -11    1    4    4    0    0  0.77699131949E+00  0.17120253171E+02 -0.35704034382E+01  0.17505843742E+02  0.51100000000E-03 0.  1.
         12    1    4    4    0    0 -0.46661142689E+01  0.15867123128E+02 -0.39540946544E+01  0.17005089922E+02  0.00000000000E+00 0. -1.
</event>
<event>
 8    1  0.2882335E-009  0.9118800E+02  0.7816164E-02  0.1184000E+00
        -11   -1    0    0    0    0  0.00000000000E+00  0.00000000000E+00  0.45593999997E+02  0.45594000000E+02  0.51100000000E-03 0. -1.
         11   -1    0    0    0    0 -0.00000000000E+00 -0.00000000000E+00 -0.45593999997E+02  0.45594000000E+02  0.51100000000E-03 0.  1.
         23    2    1    2    0    0 -0.88817841970E-15 -0.17763568394E-14  0.71054273576E-14  0.91188000000E+02  0.91188000000E+02 0.  0.
    9900012    2    3    3    0    0 -0.41864087122E+01 -0.14711492914E+02  0.42369322545E+02  0.46142317248E+02  0.99999953229E+01 0.  0.
        -12    1    3    3    0    0  0.41864087122E+01  0.14711492914E+02 -0.42369322545E+02  0.45045682752E+02  0.00000000000E+00 0.  1.
         11    1    4    4    0    0 -0.62334788424E+01 -0.64371074590E+01  0.17780596611E+02  0.19910857013E+02  0.51100000000E-03 0. -1.
        -11    1    4    4    0    0  0.23738634529E+01 -0.81275598212E+01  0.24398261039E+02  0.25825715834E+02  0.51100000000E-03 0.  1.
        -12    1    4    4    0    0 -0.32679332265E+00 -0.14682563395E+00  0.19046489491E+00  0.40574440071E+00  0.00000000000E+00 0.  1.
</event>
<event>
 8    1  0.2882335E-009  0.9118800E+02  0.7816164E-02  0.1184000E+00
        -11   -1    0    0    0    0  0.00000000000E+00  0.00000000000E+00  0.45593999997E+02  0.45594000000E+02  0.51100000000E-03 0. -1.
         11   -1    0    0    0    0 -0.00000000000E+00 -0.00000000000E+00 -0.45593999997E+02  0.45594000000E+02  0.51100000000E-03 0.  1.
         23    2    1    2    0    0 -0.44408920985E-15 -0.71054273576E-14  0.00000000000E+00  0.91188000000E+02  0.91188000000E+02 0.  0.
    9900012    2    3    3    0    0 -0.20506107125E+01 -0.36178309788E+02  0.26758892924E+02  0.46142318143E+02  0.10000003482E+02 0.  0.
        -12    1    3    3    0    0  0.20506107125E+01  0.36178309788E+02 -0.26758892924E+02  0.45045681857E+02  0.00000000000E+00 0.  1.
         11    1    4    4    0    0 -0.38794321403E+01 -0.17264335379E+02  0.14199313002E+02  0.22687612475E+02  0.51100000000E-03 0. -1.
        -11    1    4    4    0    0  0.23718435037E+01 -0.60020738383E+01  0.65745417191E+01  0.92127699984E+01  0.51100000000E-03 0.  1.
         12    1    4    4    0    0 -0.54302207593E+00 -0.12911900571E+02  0.59850382025E+01  0.14241935669E+02  0.00000000000E+00 0. -1.
</event>
<event>
 8    1  0.2882335E-009  0.9118800E+02  0.7816164E-02  0.1184000E+00
        -11   -1    0    0    0    0  0.00000000000E+00  0.00000000000E+00  0.45593999997E+02  0.45594000000E+02  0.51100000000E-03 0. -1.
         11   -1    0    0    0    0 -0.00000000000E+00 -0.00000000000E+00 -0.45593999997E+02  0.45594000000E+02  0.51100000000E-03 0.  1.
         23    2    1    2    0    0 -0.17763568394E-14 -0.44408920985E-15  0.00000000000E+00  0.91188000000E+02  0.91188000000E+02 0.  0.
    9900012    2    3    3    0    0 -0.14960747009E+02  0.39290546557E+01 -0.42306649224E+02  0.46142312191E+02  0.99999492094E+01 0.  0.
         12    1    3    3    0    0  0.14960747009E+02 -0.39290546557E+01  0.42306649224E+02  0.45045687809E+02  0.00000000000E+00 0. -1.
         11    1    4    4    0    0 -0.11022930466E+02  0.54601926234E+01 -0.21521574058E+02  0.24789046971E+02  0.51100000000E-03 0. -1.
        -11    1    4    4    0    0 -0.38776941677E+01 -0.95310429975E+00 -0.14449642269E+02  0.14991233499E+02  0.51100000000E-03 0.  1.
         12    1    4    4    0    0 -0.60122375861E-01 -0.57803366791E+00 -0.63354328973E+01  0.63620317209E+01  0.00000000000E+00 0. -1.
</event>
<event>
 8    1  0.2882335E-009  0.9118800E+02  0.7816164E-02  0.1184000E+00
        -11   -1    0    0    0    0  0.00000000000E+00  0.00000000000E+00  0.45593999997E+02  0.45594000000E+02  0.51100000000E-03 0. -1.
         11   -1    0    0    0    0 -0.00000000000E+00 -0.00000000000E+00 -0.45593999997E+02  0.45594000000E+02  0.51100000000E-03 0.  1.
         23    2    1    2    0    0  0.00000000000E+00  0.00000000000E+00  0.00000000000E+00  0.91188000000E+02  0.91188000000E+02 0.  0.
    9900012    2    3    3    0    0 -0.12929276308E+02  0.61393192855E+01 -0.42711311870E+02  0.46142316647E+02  0.99999898380E+01 0.  0.
         12    1    3    3    0    0  0.12929276308E+02 -0.61393192855E+01  0.42711311870E+02  0.45045683353E+02  0.00000000000E+00 0. -1.
         11    1    4    4    0    0 -0.41977669358E+01  0.66627962990E+01 -0.22521379472E+02  0.23858470935E+02  0.51100000000E-03 0. -1.
        -11    1    4    4    0    0 -0.23959537207E+01 -0.16074959241E+01 -0.79769797154E+01  0.84827379436E+01  0.51100000000E-03 0.  1.
        -12    1    4    4    0    0 -0.63355556516E+01  0.10840189106E+01 -0.12212952683E+02  0.13801107769E+02  0.00000000000E+00 0.  1.
</event>
<event>
 8    1  0.2882335E-009  0.9118800E+02  0.7816164E-02  0.1184000E+00
        -11   -1    0    0    0    0  0.00000000000E+00  0.00000000000E+00  0.45593999997E+02  0.45594000000E+02  0.51100000000E-03 0. -1.
         11   -1    0    0    0    0 -0.00000000000E+00 -0.00000000000E+00 -0.45593999997E+02  0.45594000000E+02  0.51100000000E-03 0.  1.
         23    2    1    2    0    0  0.00000000000E+00 -0.71054273576E-14  0.00000000000E+00  0.91188000000E+02  0.91188000000E+02 0.  0.
    9900012    2    3    3    0    0 -0.26844567179E+02 -0.35044376556E+02 -0.89651725696E+01  0.46142318360E+02  0.10000005458E+02 0.  0.
         12    1    3    3    0    0  0.26844567179E+02  0.35044376556E+02  0.89651725696E+01  0.45045681640E+02  0.00000000000E+00 0. -1.
         11    1    4    4    0    0 -0.19737467883E+02 -0.19044849419E+02 -0.55424796669E+01  0.27982012239E+02  0.51100000000E-03 0. -1.
        -11    1    4    4    0    0 -0.39394179972E+01 -0.50408241552E+01 -0.72669664319E+00  0.64387118737E+01  0.51100000000E-03 0.  1.
         12    1    4    4    0    0 -0.31676812992E+01 -0.10958702982E+02 -0.26959962595E+01  0.11721594247E+02  0.00000000000E+00 0. -1.
</event>
<event>
 8    1  0.2882335E-009  0.9118800E+02  0.7816164E-02  0.1184000E+00
        -11   -1    0    0    0    0  0.00000000000E+00  0.00000000000E+00  0.45593999997E+02  0.45594000000E+02  0.51100000000E-03 0. -1.
         11   -1    0    0    0    0 -0.00000000000E+00 -0.00000000000E+00 -0.45593999997E+02  0.45594000000E+02  0.51100000000E-03 0.  1.
         23    2    1    2    0    0  0.17763568394E-14 -0.22204460493E-15  0.71054273576E-14  0.91188000000E+02  0.91188000000E+02 0.  0.
    9900012    2    3    3    0    0  0.97910989804E+01 -0.17373832927E+01  0.43934376358E+02  0.46142317122E+02  0.99999941747E+01 0.  0.
        -12    1    3    3    0    0 -0.97910989804E+01  0.17373832927E+01 -0.43934376358E+02  0.45045682878E+02  0.00000000000E+00 0.  1.
         11    1    4    4    0    0  0.78773763218E+01  0.32044551250E+00  0.24877529731E+02  0.26096881592E+02  0.51100000000E-03 0. -1.
        -11    1    4    4    0    0  0.83309268653E+00  0.19051675804E+01  0.54999334025E+01  0.58798787935E+01  0.51100000000E-03 0.  1.
         12    1    4    4    0    0  0.10806299721E+01 -0.39629963856E+01  0.13556913225E+02  0.14165556737E+02  0.00000000000E+00 0. -1.
</event>
<event>
 8    1  0.2882335E-009  0.9118800E+02  0.7816164E-02  0.1184000E+00
        -11   -1    0    0    0    0  0.00000000000E+00  0.00000000000E+00  0.45593999997E+02  0.45594000000E+02  0.51100000000E-03 0. -1.
         11   -1    0    0    0    0 -0.00000000000E+00 -0.00000000000E+00 -0.45593999997E+02  0.45594000000E+02  0.51100000000E-03 0.  1.
         23    2    1    2    0    0 -0.35527136788E-14  0.00000000000E+00  0.00000000000E+00  0.91188000000E+02  0.91188000000E+02 0.  0.
    9900012    2    3    3    0    0  0.30499477345E+02 -0.13515062381E+02 -0.30269431356E+02  0.46142317586E+02  0.99999984069E+01 0.  0.
         12    1    3    3    0    0 -0.30499477345E+02  0.13515062381E+02  0.30269431356E+02  0.45045682414E+02  0.00000000000E+00 0. -1.
         11    1    4    4    0    0  0.24660832469E+02 -0.72537103514E+01 -0.23735763356E+02  0.34987989857E+02  0.51100000000E-03 0. -1.
        -11    1    4    4    0    0 -0.15589039217E+00 -0.18904384931E+00 -0.89229349399E+00  0.92532552752E+00  0.51100000000E-03 0.  1.
         12    1    4    4    0    0  0.59945352686E+01 -0.60723081799E+01 -0.56413745066E+01  0.10229002202E+02  0.00000000000E+00 0. -1.
</event>
<event>
 8    1  0.2882335E-009  0.9118800E+02  0.7816164E-02  0.1184000E+00
        -11   -1    0    0    0    0  0.00000000000E+00  0.00000000000E+00  0.45593999997E+02  0.45594000000E+02  0.51100000000E-03 0. -1.
         11   -1    0    0    0    0 -0.00000000000E+00 -0.00000000000E+00 -0.45593999997E+02  0.45594000000E+02  0.51100000000E-03 0.  1.
         23    2    1    2    0    0  0.00000000000E+00  0.44408920985E-15  0.00000000000E+00  0.91188000000E+02  0.91188000000E+02 0.  0.
    9900012    2    3    3    0    0 -0.15124037930E+02 -0.21577875445E+01  0.42375947923E+02  0.46142317269E+02  0.99999955083E+01 0.  0.
        -12    1    3    3    0    0  0.15124037930E+02  0.21577875445E+01 -0.42375947923E+02  0.45045682731E+02  0.00000000000E+00 0.  1.
         11    1    4    4    0    0 -0.11408060189E+02 -0.29959594020E+01  0.33961059388E+02  0.35950982811E+02  0.51100000000E-03 0. -1.
        -11    1    4    4    0    0 -0.36938991895E+01  0.12647737344E+00  0.30857725228E+01  0.48148603377E+01  0.51100000000E-03 0.  1.
        -12    1    4    4    0    0 -0.22078551877E-01  0.71169448401E+00  0.53291160115E+01  0.53764741202E+01  0.00000000000E+00 0.  1.
</event>
<event>
 8    1  0.2882335E-009  0.9118800E+02  0.7816164E-02  0.1184000E+00
        -11   -1    0    0    0    0  0.00000000000E+00  0.00000000000E+00  0.45593999997E+02  0.45594000000E+02  0.51100000000E-03 0. -1.
         11   -1    0    0    0    0 -0.00000000000E+00 -0.00000000000E+00 -0.45593999997E+02  0.45594000000E+02  0.51100000000E-03 0.  1.
         23    2    1    2    0    0  0.00000000000E+00  0.00000000000E+00  0.00000000000E+00  0.91188000000E+02  0.91188000000E+02 0.  0.
    9900012    2    3    3    0    0 -0.23870039316E+02  0.49965380218E+01 -0.37873068593E+02  0.46142317701E+02  0.99999994525E+01 0.  0.
         12    1    3    3    0    0  0.23870039316E+02 -0.49965380218E+01  0.37873068593E+02  0.45045682299E+02  0.00000000000E+00 0. -1.
         11    1    4    4    0    0 -0.12476044291E+02 -0.85071074968E+00 -0.14322988533E+02  0.19013768451E+02  0.51100000000E-03 0. -1.
        -11    1    4    4    0    0 -0.11063797315E+01  0.15149434033E+01 -0.14558424400E+01  0.23745751403E+01  0.51100000000E-03 0.  1.
         12    1    4    4    0    0 -0.10287615293E+02  0.43323053681E+01 -0.22094237620E+02  0.24753974110E+02  0.00000000000E+00 0. -1.
</event>
<event>
 8    1  0.2882335E-009  0.9118800E+02  0.7816164E-02  0.1184000E+00
        -11   -1    0    0    0    0  0.00000000000E+00  0.00000000000E+00  0.45593999997E+02  0.45594000000E+02  0.51100000000E-03 0. -1.
         11   -1    0    0    0    0 -0.00000000000E+00 -0.00000000000E+00 -0.45593999997E+02  0.45594000000E+02  0.51100000000E-03 0.  1.
         23    2    1    2    0    0 -0.88817841970E-15  0.71054273576E-14  0.88817841970E-15  0.91188000000E+02  0.91188000000E+02 0.  0.
    9900012    2    3    3    0    0  0.61762639637E+01 -0.43936397696E+02 -0.77820348716E+01  0.46142319344E+02  0.10000014432E+02 0.  0.
         12    1    3    3    0    0 -0.61762639637E+01  0.43936397696E+02  0.77820348716E+01  0.45045680656E+02  0.00000000000E+00 0. -1.
         11    1    4    4    0    0  0.31495861573E+01 -0.21095427588E+02  0.12878541364E+01  0.21368095999E+02  0.51100000000E-03 0. -1.
        -11    1    4    4    0    0  0.13847152387E+01 -0.96521625298E+01 -0.34334612559E+01  0.10337810902E+02  0.51100000000E-03 0.  1.
         12    1    4    4    0    0  0.16419625677E+01 -0.13188807578E+02 -0.56364277521E+01  0.14436412442E+02  0.00000000000E+00 0. -1.
</event>
<event>
 8    1  0.2882335E-009  0.9118800E+02  0.7816164E-02  0.1184000E+00
        -11   -1    0    0    0    0  0.00000000000E+00  0.00000000000E+00  0.45593999997E+02  0.45594000000E+02  0.51100000000E-03 0. -1.
         11   -1    0    0    0    0 -0.00000000000E+00 -0.00000000000E+00 -0.45593999997E+02  0.45594000000E+02  0.51100000000E-03 0.  1.
         23    2    1    2    0    0  0.00000000000E+00 -0.71054273576E-14 -0.35527136788E-14  0.91188000000E+02  0.91188000000E+02 0.  0.
    9900012    2    3    3    0    0 -0.14223784672E+02 -0.38987815986E+02 -0.17514226443E+02  0.46142312374E+02  0.99999508776E+01 0.  0.
         12    1    3    3    0    0  0.14223784672E+02  0.38987815986E+02  0.17514226443E+02  0.45045687626E+02  0.00000000000E+00 0. -1.
         11    1    4    4    0    0 -0.72515988914E+01 -0.11192037212E+02 -0.51559130597E+01  0.14297930730E+02  0.51100000000E-03 0. -1.
        -11    1    4    4    0    0 -0.79170261689E+01 -0.23680435342E+02 -0.93593359375E+01  0.26665323752E+02  0.51100000000E-03 0.  1.
         12    1    4    4    0    0  0.94484038812E+00 -0.41153434331E+01 -0.29989774455E+01  0.51790578921E+01  0.00000000000E+00 0. -1.
</event>
<event>
 8    1  0.2973643E-009  0.9118800E+02  0.7816164E-02  0.1184000E+00
        -11   -1    0    0    0    0  0.00000000000E+00  0.00000000000E+00  0.45593999997E+02  0.45594000000E+02  0.51100000000E-03 0.  1.
         11   -1    0    0    0    0 -0.00000000000E+00 -0.00000000000E+00 -0.45593999997E+02  0.45594000000E+02  0.51100000000E-03 0. -1.
         23    2    1    2    0    0 -0.71054273576E-14  0.00000000000E+00  0.00000000000E+00  0.91188000000E+02  0.91188000000E+02 0.  0.
    9900012    2    3    3    0    0  0.24904294240E+02 -0.35270804108E+02 -0.12839782609E+02  0.46142317504E+02  0.99999976569E+01 0.  0.
         12    1    3    3    0    0 -0.24904294240E+02  0.35270804108E+02  0.12839782609E+02  0.45045682496E+02  0.00000000000E+00 0. -1.
         11    1    4    4    0    0  0.12647702890E+01 -0.23250173981E+00 -0.32458387838E+00  0.13262940466E+01  0.51100000000E-03 0. -1.
        -11    1    4    4    0    0  0.19347733849E+02 -0.22350842619E+02 -0.73573259876E+01  0.30463506312E+02  0.51100000000E-03 0.  1.
        -12    1    4    4    0    0  0.42917901027E+01 -0.12687459750E+02 -0.51578727431E+01  0.14352517146E+02  0.00000000000E+00 0.  1.
</event>
<event>
 8    1  0.2882335E-009  0.9118800E+02  0.7816164E-02  0.1184000E+00
        -11   -1    0    0    0    0  0.00000000000E+00  0.00000000000E+00  0.45593999997E+02  0.45594000000E+02  0.51100000000E-03 0. -1.
         11   -1    0    0    0    0 -0.00000000000E+00 -0.00000000000E+00 -0.45593999997E+02  0.45594000000E+02  0.51100000000E-03 0.  1.
         23    2    1    2    0    0  0.00000000000E+00  0.00000000000E+00  0.00000000000E+00  0.91188000000E+02  0.91188000000E+02 0.  0.
    9900012    2    3    3    0    0 -0.39321941617E+02 -0.18831297872E+02  0.11326103804E+02  0.46142317638E+02  0.99999988795E+01 0.  0.
        -12    1    3    3    0    0  0.39321941617E+02  0.18831297872E+02 -0.11326103804E+02  0.45045682362E+02  0.00000000000E+00 0.  1.
         11    1    4    4    0    0 -0.55922152460E+01 -0.80765633594E-01  0.15465482808E+01  0.58026895739E+01  0.51100000000E-03 0. -1.
        -11    1    4    4    0    0 -0.76327098490E+00 -0.15988745763E+01 -0.38530699435E+00  0.18131310620E+01  0.51100000000E-03 0.  1.
        -12    1    4    4    0    0 -0.32966455386E+02 -0.17151657662E+02  0.10164862518E+02  0.38526497002E+02  0.00000000000E+00 0.  1.
</event>
<event>
 8    1  0.2882335E-009  0.9118800E+02  0.7816164E-02  0.1184000E+00
        -11   -1    0    0    0    0  0.00000000000E+00  0.00000000000E+00  0.45593999997E+02  0.45594000000E+02  0.51100000000E-03 0. -1.
         11   -1    0    0    0    0 -0.00000000000E+00 -0.00000000000E+00 -0.45593999997E+02  0.45594000000E+02  0.51100000000E-03 0.  1.
         23    2    1    2    0    0  0.00000000000E+00  0.35527136788E-14  0.00000000000E+00  0.91188000000E+02  0.91188000000E+02 0.  0.
    9900012    2    3    3    0    0 -0.24326855946E+02  0.28532747495E+02 -0.24963972444E+02  0.46142317409E+02  0.99999967933E+01 0.  0.
         12    1    3    3    0    0  0.24326855946E+02 -0.28532747495E+02  0.24963972444E+02  0.45045682591E+02  0.00000000000E+00 0. -1.
         11    1    4    4    0    0 -0.77404689081E+01  0.13637282015E+02 -0.12714289758E+02  0.20187706259E+02  0.51100000000E-03 0. -1.
        -11    1    4    4    0    0 -0.10650707050E+02  0.61283814678E+01 -0.62692996045E+01  0.13794880857E+02  0.51100000000E-03 0.  1.
        -12    1    4    4    0    0 -0.59356799882E+01  0.87670840128E+01 -0.59803830815E+01  0.12159730293E+02  0.00000000000E+00 0.  1.
</event>
<event>
 8    1  0.2882335E-009  0.9118800E+02  0.7816164E-02  0.1184000E+00
        -11   -1    0    0    0    0  0.00000000000E+00  0.00000000000E+00  0.45593999997E+02  0.45594000000E+02  0.51100000000E-03 0. -1.
         11   -1    0    0    0    0 -0.00000000000E+00 -0.00000000000E+00 -0.45593999997E+02  0.45594000000E+02  0.51100000000E-03 0.  1.
         23    2    1    2    0    0  0.00000000000E+00 -0.44408920985E-15 -0.71054273576E-14  0.91188000000E+02  0.91188000000E+02 0.  0.
    9900012    2    3    3    0    0  0.23473624838E+02 -0.36000175581E+01  0.38277177227E+02  0.46142317789E+02  0.10000000250E+02 0.  0.
        -12    1    3    3    0    0 -0.23473624838E+02  0.36000175581E+01 -0.38277177227E+02  0.45045682211E+02  0.00000000000E+00 0.  1.
         11    1    4    4    0    0  0.64467657838E+01  0.15379372876E+01  0.57812506798E+01  0.87948223322E+01  0.51100000000E-03 0. -1.
        -11    1    4    4    0    0  0.12205637709E+02 -0.42763007143E+01  0.27292339752E+02  0.30201591830E+02  0.51100000000E-03 0.  1.
        -12    1    4    4    0    0  0.48212213450E+01 -0.86165413136E+00  0.52035867951E+01  0.71459036261E+01  0.00000000000E+00 0.  1.
</event>
<event>
 8    1  0.2882335E-009  0.9118800E+02  0.7816164E-02  0.1184000E+00
        -11   -1    0    0    0    0  0.00000000000E+00  0.00000000000E+00  0.45593999997E+02  0.45594000000E+02  0.51100000000E-03 0. -1.
         11   -1    0    0    0    0 -0.00000000000E+00 -0.00000000000E+00 -0.45593999997E+02  0.45594000000E+02  0.51100000000E-03 0.  1.
         23    2    1    2    0    0  0.00000000000E+00  0.17763568394E-14  0.00000000000E+00  0.91188000000E+02  0.91188000000E+02 0.  0.
    9900012    2    3    3    0    0 -0.36469132294E+02 -0.10302083870E+02  0.24351241554E+02  0.46142317548E+02  0.99999980582E+01 0.  0.
        -12    1    3    3    0    0  0.36469132294E+02  0.10302083870E+02 -0.24351241554E+02  0.45045682452E+02  0.00000000000E+00 0.  1.
         11    1    4    4    0    0 -0.32605027718E+01 -0.77767747478E-01  0.31764335496E+00  0.32768618691E+01  0.51100000000E-03 0. -1.
        -11    1    4    4    0    0 -0.46164333909E+01 -0.90911193573E+00  0.66019572754E+01  0.81070205311E+01  0.51100000000E-03 0.  1.
         12    1    4    4    0    0 -0.28592196131E+02 -0.93152041867E+01  0.17431640924E+02  0.34758435148E+02  0.00000000000E+00 0. -1.
</event>
<event>
 8    1  0.2882335E-009  0.9118800E+02  0.7816164E-02  0.1184000E+00
        -11   -1    0    0    0    0  0.00000000000E+00  0.00000000000E+00  0.45593999997E+02  0.45594000000E+02  0.51100000000E-03 0.  1.
         11   -1    0    0    0    0 -0.00000000000E+00 -0.00000000000E+00 -0.45593999997E+02  0.45594000000E+02  0.51100000000E-03 0. -1.
         23    2    1    2    0    0  0.00000000000E+00 -0.17763568394E-14  0.00000000000E+00  0.91188000000E+02  0.91188000000E+02 0.  0.
    9900012    2    3    3    0    0  0.43221926088E+02 -0.91841230435E+01 -0.87538855168E+01  0.46142317383E+02  0.99999965493E+01 0.  0.
         12    1    3    3    0    0 -0.43221926088E+02  0.91841230435E+01  0.87538855168E+01  0.45045682617E+02  0.00000000000E+00 0. -1.
         11    1    4    4    0    0  0.20113561541E+02 -0.55681606673E+01  0.67926096099E+00  0.20881119865E+02  0.51100000000E-03 0. -1.
        -11    1    4    4    0    0  0.18364016929E+02 -0.22931437463E+01 -0.73198439583E+01  0.19901651737E+02  0.51100000000E-03 0.  1.
         12    1    4    4    0    0  0.47443476174E+01 -0.13228186299E+01 -0.21133025195E+01  0.53595457813E+01  0.00000000000E+00 0. -1.
</event>
<event>
 8    1  0.2882335E-009  0.9118800E+02  0.7816164E-02  0.1184000E+00
        -11   -1    0    0    0    0  0.00000000000E+00  0.00000000000E+00  0.45593999997E+02  0.45594000000E+02  0.51100000000E-03 0.  1.
         11   -1    0    0    0    0 -0.00000000000E+00 -0.00000000000E+00 -0.45593999997E+02  0.45594000000E+02  0.51100000000E-03 0. -1.
         23    2    1    2    0    0 -0.17763568394E-14  0.00000000000E+00 -0.38857805862E-15  0.91188000000E+02  0.91188000000E+02 0.  0.
    9900012    2    3    3    0    0  0.12544050176E+02 -0.43262902883E+02 -0.28552705959E+00  0.46142317784E+02  0.10000000204E+02 0.  0.
        -12    1    3    3    0    0 -0.12544050176E+02  0.43262902883E+02  0.28552705959E+00  0.45045682216E+02  0.00000000000E+00 0.  1.
         11    1    4    4    0    0  0.59204461623E+01 -0.10533352418E+02 -0.91587781214E+00  0.12117839261E+02  0.51100000000E-03 0. -1.
        -11    1    4    4    0    0  0.20885609350E+01 -0.85047578883E+01 -0.26780480519E+01  0.91577800338E+01  0.51100000000E-03 0.  1.
        -12    1    4    4    0    0  0.45350430787E+01 -0.24224792576E+02  0.33083988045E+01  0.24866698489E+02  0.00000000000E+00 0.  1.
</event>
<event>
 8    1  0.2882335E-009  0.9118800E+02  0.7816164E-02  0.1184000E+00
        -11   -1    0    0    0    0  0.00000000000E+00  0.00000000000E+00  0.45593999997E+02  0.45594000000E+02  0.51100000000E-03 0. -1.
         11   -1    0    0    0    0 -0.00000000000E+00 -0.00000000000E+00 -0.45593999997E+02  0.45594000000E+02  0.51100000000E-03 0.  1.
         23    2    1    2    0    0  0.88817841970E-15 -0.71054273576E-14  0.00000000000E+00  0.91188000000E+02  0.91188000000E+02 0.  0.
    9900012    2    3    3    0    0  0.73730208735E+01 -0.44376339304E+02  0.23436387338E+01  0.46142316862E+02  0.99999918012E+01 0.  0.
        -12    1    3    3    0    0 -0.73730208735E+01  0.44376339304E+02 -0.23436387338E+01  0.45045683138E+02  0.00000000000E+00 0.  1.
         11    1    4    4    0    0  0.72570389885E+01 -0.32815993600E+02  0.46317127604E+00  0.33612030268E+02  0.51100000000E-03 0. -1.
        -11    1    4    4    0    0 -0.15591162769E+01 -0.30920100667E+01  0.17883421855E+01  0.38973757647E+01  0.51100000000E-03 0.  1.
        -12    1    4    4    0    0  0.16750981618E+01 -0.84683356379E+01  0.92125272262E-01  0.86329108297E+01  0.00000000000E+00 0.  1.
</event>
<event>
 8    1  0.2882335E-009  0.9118800E+02  0.7816164E-02  0.1184000E+00
        -11   -1    0    0    0    0  0.00000000000E+00  0.00000000000E+00  0.45593999997E+02  0.45594000000E+02  0.51100000000E-03 0. -1.
         11   -1    0    0    0    0 -0.00000000000E+00 -0.00000000000E+00 -0.45593999997E+02  0.45594000000E+02  0.51100000000E-03 0.  1.
         23    2    1    2    0    0  0.88817841970E-15  0.88817841970E-15 -0.71054273576E-14  0.91188000000E+02  0.91188000000E+02 0.  0.
    9900012    2    3    3    0    0 -0.70411572897E+01 -0.44100041155E+01 -0.44272876656E+02  0.46142316082E+02  0.99999846886E+01 0.  0.
         12    1    3    3    0    0  0.70411572897E+01  0.44100041155E+01  0.44272876656E+02  0.45045683918E+02  0.00000000000E+00 0. -1.
         11    1    4    4    0    0 -0.35964897911E+01 -0.19924817737E+01 -0.71325526556E+01  0.82327413467E+01  0.51100000000E-03 0. -1.
        -11    1    4    4    0    0  0.15473918991E+01 -0.16977620030E+01 -0.16645587767E+02  0.16803345199E+02  0.51100000000E-03 0.  1.
        -12    1    4    4    0    0 -0.49920593976E+01 -0.71976033878E+00 -0.20494736233E+02  0.21106229536E+02  0.00000000000E+00 0.  1.
</event>
<event>
 8    1  0.2882335E-009  0.9118800E+02  0.7816164E-02  0.1184000E+00
        -11   -1    0    0    0    0  0.00000000000E+00  0.00000000000E+00  0.45593999997E+02  0.45594000000E+02  0.51100000000E-03 0. -1.
         11   -1    0    0    0    0 -0.00000000000E+00 -0.00000000000E+00 -0.45593999997E+02  0.45594000000E+02  0.51100000000E-03 0.  1.
         23    2    1    2    0    0  0.00000000000E+00  0.00000000000E+00  0.00000000000E+00  0.91188000000E+02  0.91188000000E+02 0.  0.
    9900012    2    3    3    0    0 -0.35329131122E+01  0.70215802289E+01 -0.44354587179E+02  0.46142317990E+02  0.10000002085E+02 0.  0.
         12    1    3    3    0    0  0.35329131122E+01 -0.70215802289E+01  0.44354587179E+02  0.45045682010E+02  0.00000000000E+00 0. -1.
         11    1    4    4    0    0 -0.42810056664E+01  0.36047754601E+01 -0.92543101167E+01  0.10814974417E+02  0.51100000000E-03 0. -1.
        -11    1    4    4    0    0  0.68698388570E+00  0.13392545497E+01 -0.23053325073E+02  0.23102409978E+02  0.51100000000E-03 0.  1.
         12    1    4    4    0    0  0.61108668508E-01  0.20775502192E+01 -0.12046951989E+02  0.12224933595E+02  0.00000000000E+00 0. -1.
</event>
<event>
 8    1  0.2882335E-009  0.9118800E+02  0.7816164E-02  0.1184000E+00
        -11   -1    0    0    0    0  0.00000000000E+00  0.00000000000E+00  0.45593999997E+02  0.45594000000E+02  0.51100000000E-03 0. -1.
         11   -1    0    0    0    0 -0.00000000000E+00 -0.00000000000E+00 -0.45593999997E+02  0.45594000000E+02  0.51100000000E-03 0.  1.
         23    2    1    2    0    0  0.35527136788E-14  0.35527136788E-14  0.00000000000E+00  0.91188000000E+02  0.91188000000E+02 0.  0.
    9900012    2    3    3    0    0  0.23346847184E+02  0.15174725978E+02  0.35408557652E+02  0.46142317222E+02  0.99999950864E+01 0.  0.
        -12    1    3    3    0    0 -0.23346847184E+02 -0.15174725978E+02 -0.35408557652E+02  0.45045682778E+02  0.00000000000E+00 0.  1.
         11    1    4    4    0    0  0.16025563961E+01  0.18352877023E+01  0.84321568663E+01  0.87771144251E+01  0.51100000000E-03 0. -1.
        -11    1    4    4    0    0  0.15349670685E+01  0.23732221698E+01  0.23752347037E+01  0.36918894251E+01  0.51100000000E-03 0.  1.
         12    1    4    4    0    0  0.20209323719E+02  0.10966216106E+02  0.24601166082E+02  0.33673313372E+02  0.00000000000E+00 0. -1.
</event>
<event>
 8    1  0.2882335E-009  0.9118800E+02  0.7816164E-02  0.1184000E+00
        -11   -1    0    0    0    0  0.00000000000E+00  0.00000000000E+00  0.45593999997E+02  0.45594000000E+02  0.51100000000E-03 0. -1.
         11   -1    0    0    0    0 -0.00000000000E+00 -0.00000000000E+00 -0.45593999997E+02  0.45594000000E+02  0.51100000000E-03 0.  1.
         23    2    1    2    0    0 -0.35527136788E-14  0.00000000000E+00  0.17763568394E-14  0.91188000000E+02  0.91188000000E+02 0.  0.
    9900012    2    3    3    0    0 -0.23402320832E+02  0.36232814090E+02  0.12985685693E+02  0.46142317963E+02  0.10000001845E+02 0.  0.
        -12    1    3    3    0    0  0.23402320832E+02 -0.36232814090E+02 -0.12985685693E+02  0.45045682037E+02  0.00000000000E+00 0.  1.
         11    1    4    4    0    0 -0.12030714991E+01  0.82362759329E+01  0.35633389302E+01  0.90543363571E+01  0.51100000000E-03 0. -1.
        -11    1    4    4    0    0 -0.14691621369E+01  0.30770603760E+01  0.14624723815E+01  0.37101972549E+01  0.51100000000E-03 0.  1.
         12    1    4    4    0    0 -0.20730087196E+02  0.24919477781E+02  0.79598743811E+01  0.33377784351E+02  0.00000000000E+00 0. -1.
</event>
<event>
 8    1  0.2882335E-009  0.9118800E+02  0.7816164E-02  0.1184000E+00
        -11   -1    0    0    0    0  0.00000000000E+00  0.00000000000E+00  0.45593999997E+02  0.45594000000E+02  0.51100000000E-03 0. -1.
         11   -1    0    0    0    0 -0.00000000000E+00 -0.00000000000E+00 -0.45593999997E+02  0.45594000000E+02  0.51100000000E-03 0.  1.
         23    2    1    2    0    0 -0.35527136788E-14  0.71054273576E-14 -0.71054273576E-14  0.91188000000E+02  0.91188000000E+02 0.  0.
    9900012    2    3    3    0    0  0.11786121417E+02 -0.28694806202E+02  0.32662038046E+02  0.46142319959E+02  0.10000020043E+02 0.  0.
        -12    1    3    3    0    0 -0.11786121417E+02  0.28694806202E+02 -0.32662038046E+02  0.45045680041E+02  0.00000000000E+00 0.  1.
         11    1    4    4    0    0  0.10138024905E+02 -0.12026736284E+02  0.14614069026E+02  0.21470746340E+02  0.51100000000E-03 0. -1.
        -11    1    4    4    0    0  0.91653469421E+00 -0.99749791790E+01  0.96648481742E+01  0.13919394238E+02  0.51100000000E-03 0.  1.
         12    1    4    4    0    0  0.73156181800E+00 -0.66930907387E+01  0.83831208452E+01  0.10752179381E+02  0.00000000000E+00 0. -1.
</event>
<event>
 8    1  0.2882335E-009  0.9118800E+02  0.7816164E-02  0.1184000E+00
        -11   -1    0    0    0    0  0.00000000000E+00  0.00000000000E+00  0.45593999997E+02  0.45594000000E+02  0.51100000000E-03 0. -1.
         11   -1    0    0    0    0 -0.00000000000E+00 -0.00000000000E+00 -0.45593999997E+02  0.45594000000E+02  0.51100000000E-03 0.  1.
         23    2    1    2    0    0  0.35527136788E-14 -0.35527136788E-14  0.35527136788E-14  0.91188000000E+02  0.91188000000E+02 0.  0.
    9900012    2    3    3    0    0 -0.31371476262E+02  0.24495277056E+02 -0.21093251703E+02  0.46142318872E+02  0.10000010127E+02 0.  0.
         12    1    3    3    0    0  0.31371476262E+02 -0.24495277056E+02  0.21093251703E+02  0.45045681128E+02  0.00000000000E+00 0. -1.
         11    1    4    4    0    0 -0.41555391617E+01  0.73470431758E+00 -0.39122570006E+01  0.57544809721E+01  0.51100000000E-03 0. -1.
        -11    1    4    4    0    0 -0.94733096731E+01  0.63087725269E+01 -0.77689829008E+01  0.13780468154E+02  0.51100000000E-03 0.  1.
         12    1    4    4    0    0 -0.17742627428E+02  0.17451800211E+02 -0.94120118015E+01  0.26607369746E+02  0.00000000000E+00 0. -1.
</event>
<event>
 8    1  0.2882335E-009  0.9118800E+02  0.7816164E-02  0.1184000E+00
        -11   -1    0    0    0    0  0.00000000000E+00  0.00000000000E+00  0.45593999997E+02  0.45594000000E+02  0.51100000000E-03 0. -1.
         11   -1    0    0    0    0 -0.00000000000E+00 -0.00000000000E+00 -0.45593999997E+02  0.45594000000E+02  0.51100000000E-03 0.  1.
         23    2    1    2    0    0  0.17763568394E-14 -0.35527136788E-14  0.71054273576E-14  0.91188000000E+02  0.91188000000E+02 0.  0.
    9900012    2    3    3    0    0  0.86454754310E+01 -0.22269051178E+02  0.38189754527E+02  0.46142331655E+02  0.10000126695E+02 0.  0.
        -12    1    3    3    0    0 -0.86454754310E+01  0.22269051178E+02 -0.38189754527E+02  0.45045668345E+02  0.00000000000E+00 0.  1.
         11    1    4    4    0    0  0.44452358688E+01 -0.98381634347E+01  0.22843991588E+02  0.25266529909E+02  0.51100000000E-03 0. -1.
        -11    1    4    4    0    0  0.13529535097E+01 -0.45284521604E+01  0.20560471309E+01  0.51540947056E+01  0.51100000000E-03 0.  1.
         12    1    4    4    0    0  0.28472860526E+01 -0.79024355825E+01  0.13289715809E+02  0.15721707041E+02  0.00000000000E+00 0. -1.
</event>
<event>
 8    1  0.2882335E-009  0.9118800E+02  0.7816164E-02  0.1184000E+00
        -11   -1    0    0    0    0  0.00000000000E+00  0.00000000000E+00  0.45593999997E+02  0.45594000000E+02  0.51100000000E-03 0. -1.
         11   -1    0    0    0    0 -0.00000000000E+00 -0.00000000000E+00 -0.45593999997E+02  0.45594000000E+02  0.51100000000E-03 0.  1.
         23    2    1    2    0    0 -0.71054273576E-14  0.35527136788E-14  0.35527136788E-14  0.91188000000E+02  0.91188000000E+02 0.  0.
    9900012    2    3    3    0    0  0.23742210852E+02 -0.28324336240E+02 -0.25751756625E+02  0.46142316868E+02  0.99999918523E+01 0.  0.
         12    1    3    3    0    0 -0.23742210852E+02  0.28324336240E+02  0.25751756625E+02  0.45045683132E+02  0.00000000000E+00 0. -1.
         11    1    4    4    0    0  0.31264360709E+01 -0.18014331818E+01 -0.80228574760E+00  0.36964072687E+01  0.51100000000E-03 0. -1.
        -11    1    4    4    0    0  0.20935990447E+02 -0.24466827177E+02 -0.23984549375E+02  0.40152209617E+02  0.51100000000E-03 0.  1.
        -12    1    4    4    0    0 -0.32021566591E+00 -0.20560758815E+01 -0.96492150182E+00  0.22936999821E+01  0.00000000000E+00 0.  1.
</event>
<event>
 8    1  0.2882335E-009  0.9118800E+02  0.7816164E-02  0.1184000E+00
        -11   -1    0    0    0    0  0.00000000000E+00  0.00000000000E+00  0.45593999997E+02  0.45594000000E+02  0.51100000000E-03 0. -1.
         11   -1    0    0    0    0 -0.00000000000E+00 -0.00000000000E+00 -0.45593999997E+02  0.45594000000E+02  0.51100000000E-03 0.  1.
         23    2    1    2    0    0  0.35527136788E-14 -0.17763568394E-14 -0.71054273576E-14  0.91188000000E+02  0.91188000000E+02 0.  0.
    9900012    2    3    3    0    0  0.24594281205E+02 -0.12774144364E+02 -0.35511351088E+02  0.46142317762E+02  0.10000000005E+02 0.  0.
         12    1    3    3    0    0 -0.24594281205E+02  0.12774144364E+02  0.35511351088E+02  0.45045682238E+02  0.00000000000E+00 0. -1.
         11    1    4    4    0    0  0.39096221312E+01 -0.43724519432E+01 -0.46176805933E+01  0.74650154406E+01  0.51100000000E-03 0. -1.
        -11    1    4    4    0    0  0.14426447586E+02 -0.59440068719E+01 -0.16062276563E+02  0.22393086797E+02  0.51100000000E-03 0.  1.
        -12    1    4    4    0    0  0.62582114881E+01 -0.24576855486E+01 -0.14831393932E+02  0.16284215524E+02  0.00000000000E+00 0.  1.
</event>
<event>
 8    1  0.2882335E-009  0.9118800E+02  0.7816164E-02  0.1184000E+00
        -11   -1    0    0    0    0  0.00000000000E+00  0.00000000000E+00  0.45593999997E+02  0.45594000000E+02  0.51100000000E-03 0. -1.
         11   -1    0    0    0    0 -0.00000000000E+00 -0.00000000000E+00 -0.45593999997E+02  0.45594000000E+02  0.51100000000E-03 0.  1.
         23    2    1    2    0    0 -0.44408920985E-15  0.44408920985E-15  0.71054273576E-14  0.91188000000E+02  0.91188000000E+02 0.  0.
    9900012    2    3    3    0    0  0.29750816374E+01 -0.35770638286E+01 -0.44804763948E+02  0.46142319088E+02  0.10000012097E+02 0.  0.
         12    1    3    3    0    0 -0.29750816374E+01  0.35770638286E+01  0.44804763948E+02  0.45045680912E+02  0.00000000000E+00 0. -1.
         11    1    4    4    0    0 -0.18951674938E+01  0.24342629729E+01 -0.12307497812E+02  0.12688254360E+02  0.51100000000E-03 0. -1.
        -11    1    4    4    0    0  0.47338008918E+01 -0.54252619605E+01 -0.31256461594E+02  0.32075048400E+02  0.51100000000E-03 0.  1.
         12    1    4    4    0    0  0.13644823936E+00 -0.58606484101E+00 -0.12408045426E+01  0.13790163280E+01  0.00000000000E+00 0. -1.
</event>
<event>
 8    1  0.2882335E-009  0.9118800E+02  0.7816164E-02  0.1184000E+00
        -11   -1    0    0    0    0  0.00000000000E+00  0.00000000000E+00  0.45593999997E+02  0.45594000000E+02  0.51100000000E-03 0. -1.
         11   -1    0    0    0    0 -0.00000000000E+00 -0.00000000000E+00 -0.45593999997E+02  0.45594000000E+02  0.51100000000E-03 0.  1.
         23    2    1    2    0    0  0.00000000000E+00  0.00000000000E+00  0.11102230246E-15  0.91188000000E+02  0.91188000000E+02 0.  0.
    9900012    2    3    3    0    0  0.17983083074E+02 -0.41294989920E+02  0.66809267155E+00  0.46142314111E+02  0.99999667188E+01 0.  0.
         12    1    3    3    0    0 -0.17983083074E+02  0.41294989920E+02 -0.66809267155E+00  0.45045685889E+02  0.00000000000E+00 0. -1.
         11    1    4    4    0    0  0.18507534040E+01 -0.70406021995E+00  0.12506247105E+01  0.23420186556E+01  0.51100000000E-03 0. -1.
        -11    1    4    4    0    0  0.15383408774E+02 -0.36962148051E+02  0.83279171026E-01  0.40035691448E+02  0.51100000000E-03 0.  1.
        -12    1    4    4    0    0  0.74892089618E+00 -0.36287816496E+01 -0.66581120996E+00  0.37646040079E+01  0.00000000000E+00 0.  1.
</event>
<event>
 8    1  0.2882335E-009  0.9118800E+02  0.7816164E-02  0.1184000E+00
        -11   -1    0    0    0    0  0.00000000000E+00  0.00000000000E+00  0.45593999997E+02  0.45594000000E+02  0.51100000000E-03 0. -1.
         11   -1    0    0    0    0 -0.00000000000E+00 -0.00000000000E+00 -0.45593999997E+02  0.45594000000E+02  0.51100000000E-03 0.  1.
         23    2    1    2    0    0  0.00000000000E+00  0.00000000000E+00  0.00000000000E+00  0.91188000000E+02  0.91188000000E+02 0.  0.
    9900012    2    3    3    0    0  0.26563172547E+02 -0.19790002095E+02 -0.30526499035E+02  0.46142318054E+02  0.10000002669E+02 0.  0.
         12    1    3    3    0    0 -0.26563172547E+02  0.19790002095E+02  0.30526499035E+02  0.45045681946E+02  0.00000000000E+00 0. -1.
         11    1    4    4    0    0  0.13279820252E+02 -0.92036307364E+01 -0.19413301433E+02  0.25257409159E+02  0.51100000000E-03 0. -1.
        -11    1    4    4    0    0  0.67491803655E+01 -0.43956428456E+01 -0.80220564401E+01  0.11367783488E+02  0.51100000000E-03 0.  1.
         12    1    4    4    0    0  0.65341719297E+01 -0.61907285133E+01 -0.30911411617E+01  0.95171254070E+01  0.00000000000E+00 0. -1.
</event>
<event>
 8    1  0.2882335E-009  0.9118800E+02  0.7816164E-02  0.1184000E+00
        -11   -1    0    0    0    0  0.00000000000E+00  0.00000000000E+00  0.45593999997E+02  0.45594000000E+02  0.51100000000E-03 0. -1.
         11   -1    0    0    0    0 -0.00000000000E+00 -0.00000000000E+00 -0.45593999997E+02  0.45594000000E+02  0.51100000000E-03 0.  1.
         23    2    1    2    0    0 -0.44408920985E-15  0.00000000000E+00  0.00000000000E+00  0.91188000000E+02  0.91188000000E+02 0.  0.
    9900012    2    3    3    0    0 -0.25364291664E+01  0.27090992910E+02 -0.35899278905E+02  0.46142316571E+02  0.99999891449E+01 0.  0.
         12    1    3    3    0    0  0.25364291664E+01 -0.27090992910E+02  0.35899278905E+02  0.45045683429E+02  0.00000000000E+00 0. -1.
         11    1    4    4    0    0 -0.23965841065E+00  0.11439252516E+01  0.30773161488E+00  0.12085942838E+01  0.51100000000E-03 0. -1.
        -11    1    4    4    0    0  0.16327125036E+01  0.73114223676E+01 -0.87658766156E+01  0.11530968748E+02  0.51100000000E-03 0.  1.
         12    1    4    4    0    0 -0.39294832594E+01  0.18635645290E+02 -0.27441133904E+02  0.33402753539E+02  0.00000000000E+00 0. -1.
</event>
<event>
 8    1  0.2882335E-009  0.9118800E+02  0.7816164E-02  0.1184000E+00
        -11   -1    0    0    0    0  0.00000000000E+00  0.00000000000E+00  0.45593999997E+02  0.45594000000E+02  0.51100000000E-03 0. -1.
         11   -1    0    0    0    0 -0.00000000000E+00 -0.00000000000E+00 -0.45593999997E+02  0.45594000000E+02  0.51100000000E-03 0.  1.
         23    2    1    2    0    0  0.00000000000E+00  0.00000000000E+00  0.00000000000E+00  0.91188000000E+02  0.91188000000E+02 0.  0.
    9900012    2    3    3    0    0  0.60904498546E+01  0.16189055925E+02 -0.41592480320E+02  0.46142317295E+02  0.99999957498E+01 0.  0.
         12    1    3    3    0    0 -0.60904498546E+01 -0.16189055925E+02  0.41592480320E+02  0.45045682705E+02  0.00000000000E+00 0. -1.
         11    1    4    4    0    0  0.25180535375E+01 -0.43579800530E+00 -0.42215534358E+01  0.49347773194E+01  0.51100000000E-03 0. -1.
        -11    1    4    4    0    0 -0.26707229054E-01  0.19457434285E+01 -0.72608837824E+01  0.75171180867E+01  0.51100000000E-03 0.  1.
         12    1    4    4    0    0  0.35991035461E+01  0.14679110501E+02 -0.30110043102E+02  0.33690421889E+02  0.00000000000E+00 0. -1.
</event>
<event>
 8    1  0.2943088E-009  0.9118800E+02  0.7816164E-02  0.1184000E+00
        -11   -1    0    0    0    0  0.00000000000E+00  0.00000000000E+00  0.45593999997E+02  0.45594000000E+02  0.51100000000E-03 0. -1.
         11   -1    0    0    0    0 -0.00000000000E+00 -0.00000000000E+00 -0.45593999997E+02  0.45594000000E+02  0.51100000000E-03 0.  1.
         23    2    1    2    0    0 -0.17763568394E-14 -0.35527136788E-14  0.00000000000E+00  0.91188000000E+02  0.91188000000E+02 0.  0.
    9900012    2    3    3    0    0 -0.11171057017E+02 -0.30878774785E+02 -0.30835407978E+02  0.46142316164E+02  0.99999854363E+01 0.  0.
         12    1    3    3    0    0  0.11171057017E+02  0.30878774785E+02  0.30835407978E+02  0.45045683836E+02  0.00000000000E+00 0. -1.
         11    1    4    4    0    0  0.36262736790E+00 -0.44284304772E+01 -0.20777483977E+01  0.49050518616E+01  0.51100000000E-03 0. -1.
        -11    1    4    4    0    0 -0.63615758981E+01 -0.12745337590E+02 -0.18525748336E+02  0.23369138406E+02  0.51100000000E-03 0.  1.
        -12    1    4    4    0    0 -0.51721084867E+01 -0.13705006717E+02 -0.10231911245E+02  0.17868125896E+02  0.00000000000E+00 0.  1.
</event>
<event>
 8    1  0.2882335E-009  0.9118800E+02  0.7816164E-02  0.1184000E+00
        -11   -1    0    0    0    0  0.00000000000E+00  0.00000000000E+00  0.45593999997E+02  0.45594000000E+02  0.51100000000E-03 0. -1.
         11   -1    0    0    0    0 -0.00000000000E+00 -0.00000000000E+00 -0.45593999997E+02  0.45594000000E+02  0.51100000000E-03 0.  1.
         23    2    1    2    0    0 -0.35527136788E-14  0.00000000000E+00  0.00000000000E+00  0.91188000000E+02  0.91188000000E+02 0.  0.
    9900012    2    3    3    0    0 -0.30946595596E+02  0.51453754763E+01  0.32325637129E+02  0.46142317815E+02  0.10000000487E+02 0.  0.
        -12    1    3    3    0    0  0.30946595596E+02 -0.51453754763E+01 -0.32325637129E+02  0.45045682185E+02  0.00000000000E+00 0.  1.
         11    1    4    4    0    0 -0.10030124909E+02  0.31378880923E+01  0.52061088499E+01  0.11728312623E+02  0.51100000000E-03 0.  1.
        -11    1    4    4    0    0 -0.19649137650E+02  0.17882336248E+01  0.24200574414E+02  0.31224256471E+02  0.51100000000E-03 0. -1.
        -12    1    4    4    0    0 -0.12673330361E+01  0.21925375919E+00  0.29189538646E+01  0.31897487203E+01  0.00000000000E+00 0.  1.
</event>
<event>
 8    1  0.2882335E-009  0.9118800E+02  0.7816164E-02  0.1184000E+00
        -11   -1    0    0    0    0  0.00000000000E+00  0.00000000000E+00  0.45593999997E+02  0.45594000000E+02  0.51100000000E-03 0. -1.
         11   -1    0    0    0    0 -0.00000000000E+00 -0.00000000000E+00 -0.45593999997E+02  0.45594000000E+02  0.51100000000E-03 0.  1.
         23    2    1    2    0    0  0.00000000000E+00  0.00000000000E+00  0.00000000000E+00  0.91188000000E+02  0.91188000000E+02 0.  0.
    9900012    2    3    3    0    0  0.34584300692E+02  0.11734100972E+02 -0.26369498882E+02  0.46142318173E+02  0.10000003758E+02 0.  0.
         12    1    3    3    0    0 -0.34584300692E+02 -0.11734100972E+02  0.26369498882E+02  0.45045681827E+02  0.00000000000E+00 0. -1.
         11    1    4    4    0    0  0.60290784752E+01  0.29020350687E+01 -0.81667990541E+01  0.10557850248E+02  0.51100000000E-03 0. -1.
        -11    1    4    4    0    0  0.21631297624E+02  0.93156522492E+01 -0.12928080316E+02  0.26866888071E+02  0.51100000000E-03 0.  1.
        -12    1    4    4    0    0  0.69239245930E+01 -0.48358634605E+00 -0.52746195119E+01  0.87175798545E+01  0.00000000000E+00 0.  1.
</event>
<event>
 8    1  0.2882335E-009  0.9118800E+02  0.7816164E-02  0.1184000E+00
        -11   -1    0    0    0    0  0.00000000000E+00  0.00000000000E+00  0.45593999997E+02  0.45594000000E+02  0.51100000000E-03 0. -1.
         11   -1    0    0    0    0 -0.00000000000E+00 -0.00000000000E+00 -0.45593999997E+02  0.45594000000E+02  0.51100000000E-03 0.  1.
         23    2    1    2    0    0  0.55511151231E-16  0.00000000000E+00  0.00000000000E+00  0.91188000000E+02  0.91188000000E+02 0.  0.
    9900012    2    3    3    0    0 -0.28688442269E+00  0.16207463122E+02 -0.42027968138E+02  0.46142309093E+02  0.99999209537E+01 0.  0.
         12    1    3    3    0    0  0.28688442269E+00 -0.16207463122E+02  0.42027968138E+02  0.45045690907E+02  0.00000000000E+00 0. -1.
         11    1    4    4    0    0 -0.13071247290E+01  0.65431342993E+00 -0.92055409823E+01  0.93208736800E+01  0.51100000000E-03 0. -1.
        -11    1    4    4    0    0  0.12567614156E+01  0.75251969157E+01 -0.96812966406E+01  0.12326213643E+02  0.51100000000E-03 0.  1.
         12    1    4    4    0    0 -0.23652110931E+00  0.80279527761E+01 -0.23141130515E+02  0.24495221769E+02  0.00000000000E+00 0. -1.
</event>
<event>
 8    1  0.2882335E-009  0.9118800E+02  0.7816164E-02  0.1184000E+00
        -11   -1    0    0    0    0  0.00000000000E+00  0.00000000000E+00  0.45593999997E+02  0.45594000000E+02  0.51100000000E-03 0.  1.
         11   -1    0    0    0    0 -0.00000000000E+00 -0.00000000000E+00 -0.45593999997E+02  0.45594000000E+02  0.51100000000E-03 0. -1.
         23    2    1    2    0    0  0.00000000000E+00  0.00000000000E+00  0.35527136788E-14  0.91188000000E+02  0.91188000000E+02 0.  0.
    9900012    2    3    3    0    0 -0.33850597464E+02  0.93994107237E+01  0.28193999716E+02  0.46142317736E+02  0.99999997710E+01 0.  0.
        -12    1    3    3    0    0  0.33850597464E+02 -0.93994107237E+01 -0.28193999716E+02  0.45045682264E+02  0.00000000000E+00 0.  1.
         11    1    4    4    0    0 -0.11083455572E+02  0.19391853503E+01  0.10828316449E+02  0.15615885009E+02  0.51100000000E-03 0.  1.
        -11    1    4    4    0    0 -0.27385771267E+01 -0.90322868509E+00  0.26754580526E+00  0.28960676366E+01  0.51100000000E-03 0. -1.
        -12    1    4    4    0    0 -0.20028564766E+02  0.83634540584E+01  0.17098137462E+02  0.27630365090E+02  0.00000000000E+00 0.  1.
</event>
<event>
 8    1  0.2882335E-009  0.9118800E+02  0.7816164E-02  0.1184000E+00
        -11   -1    0    0    0    0  0.00000000000E+00  0.00000000000E+00  0.45593999997E+02  0.45594000000E+02  0.51100000000E-03 0. -1.
         11   -1    0    0    0    0 -0.00000000000E+00 -0.00000000000E+00 -0.45593999997E+02  0.45594000000E+02  0.51100000000E-03 0.  1.
         23    2    1    2    0    0  0.00000000000E+00  0.00000000000E+00  0.00000000000E+00  0.91188000000E+02  0.91188000000E+02 0.  0.
    9900012    2    3    3    0    0 -0.24970651175E+01  0.43259852567E+02  0.12307040835E+02  0.46142318382E+02  0.10000005659E+02 0.  0.
        -12    1    3    3    0    0  0.24970651175E+01 -0.43259852567E+02 -0.12307040835E+02  0.45045681618E+02  0.00000000000E+00 0.  1.
         11    1    4    4    0    0  0.14626661000E+01  0.22947011021E+02  0.92374352089E+01  0.24779727933E+02  0.51100000000E-03 0. -1.
        -11    1    4    4    0    0 -0.42302747319E+01  0.10444723767E+02  0.16832158633E+01  0.11393888483E+02  0.51100000000E-03 0.  1.
        -12    1    4    4    0    0  0.27054351437E+00  0.98681177790E+01  0.13863897632E+01  0.99687019651E+01  0.00000000000E+00 0.  1.
</event>
<event>
 8    1  0.3385004E-009  0.9118800E+02  0.7816164E-02  0.1184000E+00
        -11   -1    0    0    0    0  0.00000000000E+00  0.00000000000E+00  0.45593999997E+02  0.45594000000E+02  0.51100000000E-03 0. -1.
         11   -1    0    0    0    0 -0.00000000000E+00 -0.00000000000E+00 -0.45593999997E+02  0.45594000000E+02  0.51100000000E-03 0.  1.
         23    2    1    2    0    0  0.00000000000E+00  0.00000000000E+00  0.00000000000E+00  0.91188000000E+02  0.91188000000E+02 0.  0.
    9900012    2    3    3    0    0  0.93714863236E+01 -0.18782987844E+02  0.39855843826E+02  0.46142315686E+02  0.99999810797E+01 0.  0.
        -12    1    3    3    0    0 -0.93714863236E+01  0.18782987844E+02 -0.39855843826E+02  0.45045684314E+02  0.00000000000E+00 0.  1.
         11    1    4    4    0    0  0.67388083931E+01 -0.12486313828E+02  0.33729231119E+02  0.36592083894E+02  0.51100000000E-03 0. -1.
        -11    1    4    4    0    0 -0.39926130864E+00 -0.24410939796E+00  0.82624036729E-01  0.47521151429E+00  0.51100000000E-03 0.  1.
         12    1    4    4    0    0  0.30319392391E+01 -0.60525646181E+01  0.60439886698E+01  0.90750202780E+01  0.00000000000E+00 0. -1.
</event>
<event>
 8    1  0.2882335E-009  0.9118800E+02  0.7816164E-02  0.1184000E+00
        -11   -1    0    0    0    0  0.00000000000E+00  0.00000000000E+00  0.45593999997E+02  0.45594000000E+02  0.51100000000E-03 0. -1.
         11   -1    0    0    0    0 -0.00000000000E+00 -0.00000000000E+00 -0.45593999997E+02  0.45594000000E+02  0.51100000000E-03 0.  1.
         23    2    1    2    0    0  0.00000000000E+00  0.00000000000E+00  0.71054273576E-14  0.91188000000E+02  0.91188000000E+02 0.  0.
    9900012    2    3    3    0    0  0.14922006334E+02  0.14504408125E+02 -0.39950836493E+02  0.46142318025E+02  0.10000002408E+02 0.  0.
         12    1    3    3    0    0 -0.14922006334E+02 -0.14504408125E+02  0.39950836493E+02  0.45045681975E+02  0.00000000000E+00 0. -1.
         11    1    4    4    0    0  0.90133652690E+01  0.10758551538E+02 -0.22983683056E+02  0.26930222275E+02  0.51100000000E-03 0. -1.
        -11    1    4    4    0    0  0.33806278123E+01  0.11629344855E+01 -0.26615479595E+01  0.44570055894E+01  0.51100000000E-03 0.  1.
         12    1    4    4    0    0  0.25280132523E+01  0.25829221014E+01 -0.14305605478E+02  0.14755090161E+02  0.00000000000E+00 0. -1.
</event>
<event>
 8    1  0.2882335E-009  0.9118800E+02  0.7816164E-02  0.1184000E+00
        -11   -1    0    0    0    0  0.00000000000E+00  0.00000000000E+00  0.45593999997E+02  0.45594000000E+02  0.51100000000E-03 0. -1.
         11   -1    0    0    0    0 -0.00000000000E+00 -0.00000000000E+00 -0.45593999997E+02  0.45594000000E+02  0.51100000000E-03 0.  1.
         23    2    1    2    0    0  0.00000000000E+00  0.00000000000E+00  0.00000000000E+00  0.91188000000E+02  0.91188000000E+02 0.  0.
    9900012    2    3    3    0    0  0.20128174225E+02 -0.13350718322E+02 -0.38022725593E+02  0.46142326081E+02  0.10000075866E+02 0.  0.
         12    1    3    3    0    0 -0.20128174225E+02  0.13350718322E+02  0.38022725593E+02  0.45045673919E+02  0.00000000000E+00 0. -1.
         11    1    4    4    0    0  0.53768824812E+01 -0.41285644656E+01 -0.18202754227E+02  0.19424113145E+02  0.51100000000E-03 0. -1.
        -11    1    4    4    0    0  0.13765123305E+02 -0.79116627217E+01 -0.19313521868E+02  0.25001703018E+02  0.51100000000E-03 0.  1.
        -12    1    4    4    0    0  0.98616843878E+00 -0.13104911346E+01 -0.50644949809E+00  0.17165099177E+01  0.00000000000E+00 0.  1.
</event>
<event>
 8    1  0.2882335E-009  0.9118800E+02  0.7816164E-02  0.1184000E+00
        -11   -1    0    0    0    0  0.00000000000E+00  0.00000000000E+00  0.45593999997E+02  0.45594000000E+02  0.51100000000E-03 0. -1.
         11   -1    0    0    0    0 -0.00000000000E+00 -0.00000000000E+00 -0.45593999997E+02  0.45594000000E+02  0.51100000000E-03 0.  1.
         23    2    1    2    0    0  0.00000000000E+00  0.00000000000E+00  0.71054273576E-14  0.91188000000E+02  0.91188000000E+02 0.  0.
    9900012    2    3    3    0    0  0.17651739909E+02 -0.13699143983E+02 -0.39113463570E+02  0.46142317631E+02  0.99999988108E+01 0.  0.
         12    1    3    3    0    0 -0.17651739909E+02  0.13699143983E+02  0.39113463570E+02  0.45045682369E+02  0.00000000000E+00 0. -1.
         11    1    4    4    0    0  0.50407139706E+01 -0.31269632746E+01 -0.41608442270E+01  0.72456415587E+01  0.51100000000E-03 0. -1.
        -11    1    4    4    0    0  0.10744449885E+02 -0.10556157896E+02 -0.32442360387E+02  0.35768455665E+02  0.51100000000E-03 0.  1.
         12    1    4    4    0    0  0.18665760538E+01 -0.16022812283E-01 -0.25102589552E+01  0.31282204074E+01  0.00000000000E+00 0. -1.
</event>
<event>
 8    1  0.2882335E-009  0.9118800E+02  0.7816164E-02  0.1184000E+00
        -11   -1    0    0    0    0  0.00000000000E+00  0.00000000000E+00  0.45593999997E+02  0.45594000000E+02  0.51100000000E-03 0. -1.
         11   -1    0    0    0    0 -0.00000000000E+00 -0.00000000000E+00 -0.45593999997E+02  0.45594000000E+02  0.51100000000E-03 0.  1.
         23    2    1    2    0    0 -0.35527136788E-14  0.71054273576E-14 -0.88817841970E-15  0.91188000000E+02  0.91188000000E+02 0.  0.
    9900012    2    3    3    0    0  0.22305417277E+02  0.38672931455E+02  0.59988586201E+01  0.46142316833E+02  0.99999915385E+01 0.  0.
        -12    1    3    3    0    0 -0.22305417277E+02 -0.38672931455E+02 -0.59988586201E+01  0.45045683167E+02  0.00000000000E+00 0.  1.
         11    1    4    4    0    0  0.62624132235E+01  0.72194360829E+01  0.11463040550E+01  0.96255955652E+01  0.51100000000E-03 0. -1.
        -11    1    4    4    0    0  0.38098811280E+01  0.39986694187E+01  0.32692810583E+01  0.64181578532E+01  0.51100000000E-03 0.  1.
         12    1    4    4    0    0  0.12233122926E+02  0.27454825953E+02  0.15832735069E+01  0.30098563415E+02  0.00000000000E+00 0. -1.
</event>
<event>
 8    1  0.2882335E-009  0.9118800E+02  0.7816164E-02  0.1184000E+00
        -11   -1    0    0    0    0  0.00000000000E+00  0.00000000000E+00  0.45593999997E+02  0.45594000000E+02  0.51100000000E-03 0.  1.
         11   -1    0    0    0    0 -0.00000000000E+00 -0.00000000000E+00 -0.45593999997E+02  0.45594000000E+02  0.51100000000E-03 0. -1.
         23    2    1    2    0    0  0.00000000000E+00  0.16653345369E-15 -0.11102230246E-15  0.91188000000E+02  0.91188000000E+02 0.  0.
    9900012    2    3    3    0    0 -0.45037777439E+02  0.39888028344E+00  0.74365374764E+00  0.46142317376E+02  0.99999964891E+01 0.  0.
         12    1    3    3    0    0  0.45037777439E+02 -0.39888028344E+00 -0.74365374764E+00  0.45045682624E+02  0.00000000000E+00 0. -1.
         11    1    4    4    0    0 -0.25954299122E+02  0.35475500750E+01  0.65720329403E+00  0.26203867480E+02  0.51100000000E-03 0. -1.
        -11    1    4    4    0    0 -0.16524791942E+02 -0.10075029028E+01  0.58067651670E+00  0.16565657135E+02  0.51100000000E-03 0.  1.
        -12    1    4    4    0    0 -0.25586863747E+01 -0.21411668887E+01 -0.49422606309E+00  0.33727927613E+01  0.00000000000E+00 0.  1.
</event>
<event>
 8    1  0.2882335E-009  0.9118800E+02  0.7816164E-02  0.1184000E+00
        -11   -1    0    0    0    0  0.00000000000E+00  0.00000000000E+00  0.45593999997E+02  0.45594000000E+02  0.51100000000E-03 0. -1.
         11   -1    0    0    0    0 -0.00000000000E+00 -0.00000000000E+00 -0.45593999997E+02  0.45594000000E+02  0.51100000000E-03 0.  1.
         23    2    1    2    0    0  0.00000000000E+00  0.00000000000E+00 -0.71054273576E-14  0.91188000000E+02  0.91188000000E+02 0.  0.
    9900012    2    3    3    0    0  0.98747919727E+01 -0.20470123878E+02 -0.38891850232E+02  0.46142317604E+02  0.99999985642E+01 0.  0.
         12    1    3    3    0    0 -0.98747919727E+01  0.20470123878E+02  0.38891850232E+02  0.45045682396E+02  0.00000000000E+00 0. -1.
         11    1    4    4    0    0  0.96451511025E+00 -0.33767377821E+01 -0.10645741657E+01  0.36696002319E+01  0.51100000000E-03 0. -1.
        -11    1    4    4    0    0  0.70361831701E+01 -0.14390540136E+02 -0.30965948434E+02  0.34863813355E+02  0.51100000000E-03 0.  1.
         12    1    4    4    0    0  0.18740936923E+01 -0.27028459602E+01 -0.68613276323E+01  0.76089040164E+01  0.00000000000E+00 0. -1.
</event>
<event>
 8    1  0.2882335E-009  0.9118800E+02  0.7816164E-02  0.1184000E+00
        -11   -1    0    0    0    0  0.00000000000E+00  0.00000000000E+00  0.45593999997E+02  0.45594000000E+02  0.51100000000E-03 0. -1.
         11   -1    0    0    0    0 -0.00000000000E+00 -0.00000000000E+00 -0.45593999997E+02  0.45594000000E+02  0.51100000000E-03 0.  1.
         23    2    1    2    0    0 -0.17763568394E-14  0.71054273576E-14  0.00000000000E+00  0.91188000000E+02  0.91188000000E+02 0.  0.
    9900012    2    3    3    0    0 -0.48367500982E+01  0.21025365774E+02  0.39543057152E+02  0.46142317340E+02  0.99999961557E+01 0.  0.
        -12    1    3    3    0    0  0.48367500982E+01 -0.21025365774E+02 -0.39543057152E+02  0.45045682660E+02  0.00000000000E+00 0.  1.
         11    1    4    4    0    0 -0.61561333699E+01  0.18018582948E+02  0.26827795528E+02  0.32898296653E+02  0.51100000000E-03 0. -1.
        -11    1    4    4    0    0  0.94729133423E+00  0.24464134946E+01  0.11906495436E+02  0.12192084878E+02  0.51100000000E-03 0.  1.
         12    1    4    4    0    0  0.37209193746E+00  0.56036933101E+00  0.80876618809E+00  0.10519358080E+01  0.00000000000E+00 0. -1.
</event>
<event>
 8    1  0.2882335E-009  0.9118800E+02  0.7816164E-02  0.1184000E+00
        -11   -1    0    0    0    0  0.00000000000E+00  0.00000000000E+00  0.45593999997E+02  0.45594000000E+02  0.51100000000E-03 0. -1.
         11   -1    0    0    0    0 -0.00000000000E+00 -0.00000000000E+00 -0.45593999997E+02  0.45594000000E+02  0.51100000000E-03 0.  1.
         23    2    1    2    0    0  0.17763568394E-14  0.71054273576E-14 -0.71054273576E-14  0.91188000000E+02  0.91188000000E+02 0.  0.
    9900012    2    3    3    0    0  0.11136709998E+02 -0.28433822397E+02  0.33115024641E+02  0.46142318490E+02  0.10000006648E+02 0.  0.
        -12    1    3    3    0    0 -0.11136709998E+02  0.28433822397E+02 -0.33115024641E+02  0.45045681510E+02  0.00000000000E+00 0.  1.
         11    1    4    4    0    0  0.11303809212E+02 -0.23841603135E+02  0.24364055844E+02  0.35913860280E+02  0.51100000000E-03 0. -1.
        -11    1    4    4    0    0 -0.12646049242E+01 -0.30716362953E+01  0.46044431708E+01  0.56775938847E+01  0.51100000000E-03 0.  1.
         12    1    4    4    0    0  0.10975057107E+01 -0.15205829669E+01  0.41465256262E+01  0.45508643259E+01  0.00000000000E+00 0. -1.
</event>
<event>
 8    1  0.2882335E-009  0.9118800E+02  0.7816164E-02  0.1184000E+00
        -11   -1    0    0    0    0  0.00000000000E+00  0.00000000000E+00  0.45593999997E+02  0.45594000000E+02  0.51100000000E-03 0. -1.
         11   -1    0    0    0    0 -0.00000000000E+00 -0.00000000000E+00 -0.45593999997E+02  0.45594000000E+02  0.51100000000E-03 0.  1.
         23    2    1    2    0    0 -0.35527136788E-14  0.00000000000E+00  0.00000000000E+00  0.91188000000E+02  0.91188000000E+02 0.  0.
    9900012    2    3    3    0    0  0.30028700043E+02  0.17747600810E+02 -0.28502864268E+02  0.46142318383E+02  0.10000005675E+02 0.  0.
         12    1    3    3    0    0 -0.30028700043E+02 -0.17747600810E+02  0.28502864268E+02  0.45045681617E+02  0.00000000000E+00 0. -1.
         11    1    4    4    0    0  0.17033244222E+02  0.12991815314E+02 -0.18313093260E+02  0.28183116557E+02  0.51100000000E-03 0. -1.
        -11    1    4    4    0    0  0.11176866500E+02  0.57204396902E+01 -0.96368142147E+01  0.15827632908E+02  0.51100000000E-03 0.  1.
         12    1    4    4    0    0  0.18185893217E+01 -0.96465419432E+00 -0.55295679322E+00  0.21315689177E+01  0.00000000000E+00 0. -1.
</event>
<event>
 8    1  0.2882335E-009  0.9118800E+02  0.7816164E-02  0.1184000E+00
        -11   -1    0    0    0    0  0.00000000000E+00  0.00000000000E+00  0.45593999997E+02  0.45594000000E+02  0.51100000000E-03 0.  1.
         11   -1    0    0    0    0 -0.00000000000E+00 -0.00000000000E+00 -0.45593999997E+02  0.45594000000E+02  0.51100000000E-03 0. -1.
         23    2    1    2    0    0  0.00000000000E+00  0.00000000000E+00  0.88817841970E-15  0.91188000000E+02  0.91188000000E+02 0.  0.
    9900012    2    3    3    0    0  0.11576167370E+02  0.42957968386E+02  0.70511522090E+01  0.46142318228E+02  0.10000004258E+02 0.  0.
        -12    1    3    3    0    0 -0.11576167370E+02 -0.42957968386E+02 -0.70511522090E+01  0.45045681772E+02  0.00000000000E+00 0.  1.
         11    1    4    4    0    0  0.17298523847E+01  0.99645037853E+01  0.24313326499E+01  0.10401687540E+02  0.51100000000E-03 0. -1.
        -11    1    4    4    0    0  0.30175083078E+01  0.10911996925E+02 -0.24234969505E+01  0.11578012395E+02  0.51100000000E-03 0.  1.
        -12    1    4    4    0    0  0.68288066777E+01  0.22081467675E+02  0.70433165096E+01  0.24162618293E+02  0.00000000000E+00 0.  1.
</event>
<event>
 8    1  0.2882335E-009  0.9118800E+02  0.7816164E-02  0.1184000E+00
        -11   -1    0    0    0    0  0.00000000000E+00  0.00000000000E+00  0.45593999997E+02  0.45594000000E+02  0.51100000000E-03 0. -1.
         11   -1    0    0    0    0 -0.00000000000E+00 -0.00000000000E+00 -0.45593999997E+02  0.45594000000E+02  0.51100000000E-03 0.  1.
         23    2    1    2    0    0 -0.71054273576E-14 -0.11102230246E-15 -0.35527136788E-14  0.91188000000E+02  0.91188000000E+02 0.  0.
    9900012    2    3    3    0    0 -0.37794641487E+02  0.54175469918E+00 -0.24502753830E+02  0.46142319091E+02  0.10000012131E+02 0.  0.
         12    1    3    3    0    0  0.37794641487E+02 -0.54175469918E+00  0.24502753830E+02  0.45045680909E+02  0.00000000000E+00 0. -1.
         11    1    4    4    0    0 -0.18742725643E+02  0.21576627676E+01 -0.77749820558E+01  0.20405774168E+02  0.51100000000E-03 0. -1.
        -11    1    4    4    0    0 -0.14783435456E+02 -0.19908284235E+01 -0.14881962626E+02  0.21070979416E+02  0.51100000000E-03 0.  1.
        -12    1    4    4    0    0 -0.42684803878E+01  0.37492035511E+00 -0.18458091475E+01  0.46655655072E+01  0.00000000000E+00 0.  1.
</event>
<event>
 8    1  0.2882335E-009  0.9118800E+02  0.7816164E-02  0.1184000E+00
        -11   -1    0    0    0    0  0.00000000000E+00  0.00000000000E+00  0.45593999997E+02  0.45594000000E+02  0.51100000000E-03 0.  1.
         11   -1    0    0    0    0 -0.00000000000E+00 -0.00000000000E+00 -0.45593999997E+02  0.45594000000E+02  0.51100000000E-03 0. -1.
         23    2    1    2    0    0 -0.88817841970E-15  0.00000000000E+00  0.00000000000E+00  0.91188000000E+02  0.91188000000E+02 0.  0.
    9900012    2    3    3    0    0 -0.43235763459E+01  0.43689163391E+02  0.10083502495E+02  0.46142319488E+02  0.10000015743E+02 0.  0.
        -12    1    3    3    0    0  0.43235763459E+01 -0.43689163391E+02 -0.10083502495E+02  0.45045680512E+02  0.00000000000E+00 0.  1.
         11    1    4    4    0    0 -0.21705046141E+01  0.18296945946E+02  0.56994671805E+01  0.19286607987E+02  0.51100000000E-03 0. -1.
        -11    1    4    4    0    0 -0.41609636422E+01  0.12417108999E+02  0.41019692714E+01  0.13723132532E+02  0.51100000000E-03 0.  1.
         12    1    4    4    0    0  0.20078919103E+01  0.12975108446E+02  0.28206604299E+00  0.13132578969E+02  0.00000000000E+00 0. -1.
</event>
<event>
 8    1  0.2882335E-009  0.9118800E+02  0.7816164E-02  0.1184000E+00
        -11   -1    0    0    0    0  0.00000000000E+00  0.00000000000E+00  0.45593999997E+02  0.45594000000E+02  0.51100000000E-03 0. -1.
         11   -1    0    0    0    0 -0.00000000000E+00 -0.00000000000E+00 -0.45593999997E+02  0.45594000000E+02  0.51100000000E-03 0.  1.
         23    2    1    2    0    0  0.00000000000E+00  0.00000000000E+00 -0.71054273576E-14  0.91188000000E+02  0.91188000000E+02 0.  0.
    9900012    2    3    3    0    0  0.96181246715E+01 -0.58561000974E+01  0.43615491439E+02  0.46142319586E+02  0.10000016640E+02 0.  0.
        -12    1    3    3    0    0 -0.96181246715E+01  0.58561000974E+01 -0.43615491439E+02  0.45045680414E+02  0.00000000000E+00 0.  1.
         11    1    4    4    0    0  0.98572618828E+00  0.33275240371E-01  0.20120103775E+02  0.20144263192E+02  0.51100000000E-03 0. -1.
        -11    1    4    4    0    0  0.80647934328E+01 -0.40425974204E+01  0.17336313179E+02  0.19543061222E+02  0.51100000000E-03 0.  1.
         12    1    4    4    0    0  0.56760505038E+00 -0.18467779174E+01  0.61590744841E+01  0.64549951720E+01  0.00000000000E+00 0. -1.
</event>
<event>
 8    1  0.2882335E-009  0.9118800E+02  0.7816164E-02  0.1184000E+00
        -11   -1    0    0    0    0  0.00000000000E+00  0.00000000000E+00  0.45593999997E+02  0.45594000000E+02  0.51100000000E-03 0. -1.
         11   -1    0    0    0    0 -0.00000000000E+00 -0.00000000000E+00 -0.45593999997E+02  0.45594000000E+02  0.51100000000E-03 0.  1.
         23    2    1    2    0    0  0.00000000000E+00  0.00000000000E+00  0.00000000000E+00  0.91188000000E+02  0.91188000000E+02 0.  0.
    9900012    2    3    3    0    0  0.15538968177E+02  0.11992279918E+02 -0.40544286030E+02  0.46142318306E+02  0.10000004965E+02 0.  0.
         12    1    3    3    0    0 -0.15538968177E+02 -0.11992279918E+02  0.40544286030E+02  0.45045681694E+02  0.00000000000E+00 0. -1.
         11    1    4    4    0    0 -0.12416168577E+01  0.47905988723E+00 -0.11367544743E+01  0.17502347822E+01  0.51100000000E-03 0. -1.
        -11    1    4    4    0    0  0.11227386128E+02  0.75242516473E+01 -0.28025545366E+02  0.31114301462E+02  0.51100000000E-03 0.  1.
         12    1    4    4    0    0  0.55531989063E+01  0.39889683831E+01 -0.11381986189E+02  0.13277782061E+02  0.00000000000E+00 0. -1.
</event>
<event>
 8    1  0.2882335E-009  0.9118800E+02  0.7816164E-02  0.1184000E+00
        -11   -1    0    0    0    0  0.00000000000E+00  0.00000000000E+00  0.45593999997E+02  0.45594000000E+02  0.51100000000E-03 0. -1.
         11   -1    0    0    0    0 -0.00000000000E+00 -0.00000000000E+00 -0.45593999997E+02  0.45594000000E+02  0.51100000000E-03 0.  1.
         23    2    1    2    0    0  0.00000000000E+00  0.44408920985E-15  0.00000000000E+00  0.91188000000E+02  0.91188000000E+02 0.  0.
    9900012    2    3    3    0    0 -0.17603305912E+02  0.82511084666E+00 -0.41455473993E+02  0.46142317510E+02  0.99999977136E+01 0.  0.
         12    1    3    3    0    0  0.17603305912E+02 -0.82511084666E+00  0.41455473993E+02  0.45045682490E+02  0.00000000000E+00 0. -1.
         11    1    4    4    0    0 -0.13099425044E+02  0.32213776247E+01 -0.23746730186E+02  0.27310792831E+02  0.51100000000E-03 0. -1.
        -11    1    4    4    0    0  0.32335877544E+00  0.59785417767E+00 -0.12932019337E+01  0.14609455903E+01  0.51100000000E-03 0.  1.
         12    1    4    4    0    0 -0.48272396432E+01 -0.29941209557E+01 -0.16415541874E+02  0.17370579089E+02  0.00000000000E+00 0. -1.
</event>
<event>
 8    1  0.2882335E-009  0.9118800E+02  0.7816164E-02  0.1184000E+00
        -11   -1    0    0    0    0  0.00000000000E+00  0.00000000000E+00  0.45593999997E+02  0.45594000000E+02  0.51100000000E-03 0.  1.
         11   -1    0    0    0    0 -0.00000000000E+00 -0.00000000000E+00 -0.45593999997E+02  0.45594000000E+02  0.51100000000E-03 0. -1.
         23    2    1    2    0    0  0.00000000000E+00  0.35527136788E-14  0.00000000000E+00  0.91188000000E+02  0.91188000000E+02 0.  0.
    9900012    2    3    3    0    0  0.35056825510E+02 -0.28255446336E+02  0.13274916246E+01  0.46142317671E+02  0.99999991785E+01 0.  0.
        -12    1    3    3    0    0 -0.35056825510E+02  0.28255446336E+02 -0.13274916246E+01  0.45045682329E+02  0.00000000000E+00 0.  1.
         11    1    4    4    0    0  0.85384362515E+01 -0.99600211977E+01  0.19034672668E+01  0.13256323162E+02  0.51100000000E-03 0. -1.
        -11    1    4    4    0    0  0.35134596727E+00 -0.12814812390E+00 -0.95792588618E+00  0.10283424502E+01  0.51100000000E-03 0.  1.
        -12    1    4    4    0    0  0.26167043291E+02 -0.18167277015E+02  0.38195024403E+00  0.31857652059E+02  0.00000000000E+00 0.  1.
</event>
<event>
 8    1  0.2882335E-009  0.9118800E+02  0.7816164E-02  0.1184000E+00
        -11   -1    0    0    0    0  0.00000000000E+00  0.00000000000E+00  0.45593999997E+02  0.45594000000E+02  0.51100000000E-03 0.  1.
         11   -1    0    0    0    0 -0.00000000000E+00 -0.00000000000E+00 -0.45593999997E+02  0.45594000000E+02  0.51100000000E-03 0. -1.
         23    2    1    2    0    0 -0.71054273576E-14  0.35527136788E-14  0.00000000000E+00  0.91188000000E+02  0.91188000000E+02 0.  0.
    9900012    2    3    3    0    0  0.40013640024E+02 -0.20405618944E+02  0.34106907479E+01  0.46142317812E+02  0.10000000462E+02 0.  0.
        -12    1    3    3    0    0 -0.40013640024E+02  0.20405618944E+02 -0.34106907479E+01  0.45045682188E+02  0.00000000000E+00 0.  1.
         11    1    4    4    0    0  0.17308365263E+02 -0.67060595257E+01 -0.14314749671E+01  0.18617192680E+02  0.51100000000E-03 0. -1.
        -11    1    4    4    0    0  0.31210627784E+01 -0.30560561941E+00 -0.57487623154E+00  0.31882456938E+01  0.51100000000E-03 0.  1.
         12    1    4    4    0    0  0.19584211982E+02 -0.13393953799E+02  0.54170419465E+01  0.24336879438E+02  0.00000000000E+00 0. -1.
</event>
<event>
 8    1  0.2882335E-009  0.9118800E+02  0.7816164E-02  0.1184000E+00
        -11   -1    0    0    0    0  0.00000000000E+00  0.00000000000E+00  0.45593999997E+02  0.45594000000E+02  0.51100000000E-03 0. -1.
         11   -1    0    0    0    0 -0.00000000000E+00 -0.00000000000E+00 -0.45593999997E+02  0.45594000000E+02  0.51100000000E-03 0.  1.
         23    2    1    2    0    0  0.00000000000E+00  0.00000000000E+00  0.00000000000E+00  0.91188000000E+02  0.91188000000E+02 0.  0.
    9900012    2    3    3    0    0  0.33719430944E+02  0.97755715590E+01  0.28223246812E+02  0.46142317820E+02  0.10000000534E+02 0.  0.
        -12    1    3    3    0    0 -0.33719430944E+02 -0.97755715590E+01 -0.28223246812E+02  0.45045682180E+02  0.00000000000E+00 0.  1.
         11    1    4    4    0    0  0.10920174294E+02  0.22906874817E+01  0.13973093873E+02  0.17881409575E+02  0.51100000000E-03 0.  1.
        -11    1    4    4    0    0  0.16059526146E+02  0.62760924764E+01  0.80713966650E+01  0.19037992573E+02  0.51100000000E-03 0. -1.
         12    1    4    4    0    0  0.67397305038E+01  0.12087916008E+01  0.61787562741E+01  0.92229156720E+01  0.00000000000E+00 0. -1.
</event>
<event>
 8    1  0.2882335E-009  0.9118800E+02  0.7816164E-02  0.1184000E+00
        -11   -1    0    0    0    0  0.00000000000E+00  0.00000000000E+00  0.45593999997E+02  0.45594000000E+02  0.51100000000E-03 0. -1.
         11   -1    0    0    0    0 -0.00000000000E+00 -0.00000000000E+00 -0.45593999997E+02  0.45594000000E+02  0.51100000000E-03 0.  1.
         23    2    1    2    0    0  0.66613381478E-15  0.88817841970E-15  0.00000000000E+00  0.91188000000E+02  0.91188000000E+02 0.  0.
    9900012    2    3    3    0    0  0.12064108562E+01  0.35990670305E+01  0.44885463303E+02  0.46142317337E+02  0.99999961372E+01 0.  0.
        -12    1    3    3    0    0 -0.12064108562E+01 -0.35990670305E+01 -0.44885463303E+02  0.45045682663E+02  0.00000000000E+00 0.  1.
         11    1    4    4    0    0 -0.36099405964E+00  0.40140588109E+00  0.63727692648E+01  0.63955947148E+01  0.51100000000E-03 0. -1.
        -11    1    4    4    0    0 -0.30141723011E+01 -0.10736608602E+01  0.83846119071E+01  0.89743913107E+01  0.51100000000E-03 0.  1.
        -12    1    4    4    0    0  0.45815772169E+01  0.42713220096E+01  0.30128082131E+02  0.30772331312E+02  0.00000000000E+00 0.  1.
</event>
<event>
 8    1  0.2882335E-009  0.9118800E+02  0.7816164E-02  0.1184000E+00
        -11   -1    0    0    0    0  0.00000000000E+00  0.00000000000E+00  0.45593999997E+02  0.45594000000E+02  0.51100000000E-03 0. -1.
         11   -1    0    0    0    0 -0.00000000000E+00 -0.00000000000E+00 -0.45593999997E+02  0.45594000000E+02  0.51100000000E-03 0.  1.
         23    2    1    2    0    0  0.13322676296E-14  0.00000000000E+00  0.00000000000E+00  0.91188000000E+02  0.91188000000E+02 0.  0.
    9900012    2    3    3    0    0 -0.22504025487E+01 -0.39568467713E+02  0.21409931759E+02  0.46142321776E+02  0.10000036608E+02 0.  0.
        -12    1    3    3    0    0  0.22504025487E+01  0.39568467713E+02 -0.21409931759E+02  0.45045678224E+02  0.00000000000E+00 0.  1.
         11    1    4    4    0    0 -0.10320436267E+01 -0.12948383562E+02  0.76534366858E+01  0.15076499736E+02  0.51100000000E-03 0. -1.
        -11    1    4    4    0    0 -0.42503157263E+01 -0.10953703535E+02  0.74227317757E+01  0.13897688735E+02  0.51100000000E-03 0.  1.
        -12    1    4    4    0    0  0.30319568044E+01 -0.15666380615E+02  0.63337632979E+01  0.17168133305E+02  0.00000000000E+00 0.  1.
</event>
<event>
 8    1  0.2882335E-009  0.9118800E+02  0.7816164E-02  0.1184000E+00
        -11   -1    0    0    0    0  0.00000000000E+00  0.00000000000E+00  0.45593999997E+02  0.45594000000E+02  0.51100000000E-03 0. -1.
         11   -1    0    0    0    0 -0.00000000000E+00 -0.00000000000E+00 -0.45593999997E+02  0.45594000000E+02  0.51100000000E-03 0.  1.
         23    2    1    2    0    0  0.17763568394E-14 -0.49960036108E-15  0.00000000000E+00  0.91188000000E+02  0.91188000000E+02 0.  0.
    9900012    2    3    3    0    0 -0.97276654549E+01 -0.43939018684E+00 -0.43980597297E+02  0.46142317882E+02  0.10000001099E+02 0.  0.
         12    1    3    3    0    0  0.97276654549E+01  0.43939018684E+00  0.43980597297E+02  0.45045682118E+02  0.00000000000E+00 0. -1.
         11    1    4    4    0    0 -0.29100157790E+01 -0.22412206314E+01 -0.53686835362E+01  0.65049231298E+01  0.51100000000E-03 0. -1.
        -11    1    4    4    0    0 -0.42903673658E+01 -0.18325011938E+00 -0.31989133830E+02  0.32276082727E+02  0.51100000000E-03 0.  1.
        -12    1    4    4    0    0 -0.25272823101E+01  0.19850805639E+01 -0.66227799305E+01  0.73613120249E+01  0.00000000000E+00 0.  1.
</event>
<event>
 8    1  0.2882335E-009  0.9118800E+02  0.7816164E-02  0.1184000E+00
        -11   -1    0    0    0    0  0.00000000000E+00  0.00000000000E+00  0.45593999997E+02  0.45594000000E+02  0.51100000000E-03 0. -1.
         11   -1    0    0    0    0 -0.00000000000E+00 -0.00000000000E+00 -0.45593999997E+02  0.45594000000E+02  0.51100000000E-03 0.  1.
         23    2    1    2    0    0  0.17763568394E-14 -0.71054273576E-14 -0.17763568394E-14  0.91188000000E+02  0.91188000000E+02 0.  0.
    9900012    2    3    3    0    0 -0.91178412200E+01  0.43231863111E+02  0.87740844245E+01  0.46142316810E+02  0.99999913290E+01 0.  0.
        -12    1    3    3    0    0  0.91178412200E+01 -0.43231863111E+02 -0.87740844245E+01  0.45045683190E+02  0.00000000000E+00 0.  1.
         11    1    4    4    0    0 -0.15337699554E+01  0.74245941554E+01 -0.32647902794E+00  0.75883883312E+01  0.51100000000E-03 0. -1.
        -11    1    4    4    0    0 -0.85903675334E+00  0.20623137715E+02  0.70956887076E+01  0.21826601931E+02  0.51100000000E-03 0.  1.
        -12    1    4    4    0    0 -0.67250345112E+01  0.15184131241E+02  0.20048747449E+01  0.16727326548E+02  0.00000000000E+00 0.  1.
</event>
<event>
 8    1  0.2882335E-009  0.9118800E+02  0.7816164E-02  0.1184000E+00
        -11   -1    0    0    0    0  0.00000000000E+00  0.00000000000E+00  0.45593999997E+02  0.45594000000E+02  0.51100000000E-03 0. -1.
         11   -1    0    0    0    0 -0.00000000000E+00 -0.00000000000E+00 -0.45593999997E+02  0.45594000000E+02  0.51100000000E-03 0.  1.
         23    2    1    2    0    0  0.00000000000E+00 -0.17763568394E-14  0.00000000000E+00  0.91188000000E+02  0.91188000000E+02 0.  0.
    9900012    2    3    3    0    0 -0.13540660791E+02 -0.14720657887E+02 -0.40361692892E+02  0.46142317450E+02  0.99999971645E+01 0.  0.
         12    1    3    3    0    0  0.13540660791E+02  0.14720657887E+02  0.40361692892E+02  0.45045682550E+02  0.00000000000E+00 0. -1.
         11    1    4    4    0    0  0.88357945161E+00 -0.24941789728E+01 -0.19598838177E+01  0.32928386289E+01  0.51100000000E-03 0. -1.
        -11    1    4    4    0    0 -0.75509699016E+01 -0.75410125580E+01 -0.22548888609E+02  0.24946671013E+02  0.51100000000E-03 0.  1.
         12    1    4    4    0    0 -0.68732703410E+01 -0.46854663564E+01 -0.15852920465E+02  0.17902807808E+02  0.00000000000E+00 0. -1.
</event>
<event>
 8    1  0.2882335E-009  0.9118800E+02  0.7816164E-02  0.1184000E+00
        -11   -1    0    0    0    0  0.00000000000E+00  0.00000000000E+00  0.45593999997E+02  0.45594000000E+02  0.51100000000E-03 0. -1.
         11   -1    0    0    0    0 -0.00000000000E+00 -0.00000000000E+00 -0.45593999997E+02  0.45594000000E+02  0.51100000000E-03 0.  1.
         23    2    1    2    0    0 -0.88817841970E-15  0.35527136788E-14  0.00000000000E+00  0.91188000000E+02  0.91188000000E+02 0.  0.
    9900012    2    3    3    0    0 -0.70083129828E+01  0.30691345231E+02 -0.32218607219E+02  0.46142314590E+02  0.99999710834E+01 0.  0.
         12    1    3    3    0    0  0.70083129828E+01 -0.30691345231E+02  0.32218607219E+02  0.45045685410E+02  0.00000000000E+00 0. -1.
         11    1    4    4    0    0 -0.80811683025E+01  0.21172028416E+02 -0.20832279369E+02  0.30782201551E+02  0.51100000000E-03 0. -1.
        -11    1    4    4    0    0  0.20869085813E+00  0.31951674145E+01 -0.67503322500E+01  0.74712537387E+01  0.51100000000E-03 0.  1.
         12    1    4    4    0    0  0.86416446158E+00  0.63241494005E+01 -0.46359955999E+01  0.78888593002E+01  0.00000000000E+00 0. -1.
</event>
<event>
 8    1  0.2882335E-009  0.9118800E+02  0.7816164E-02  0.1184000E+00
        -11   -1    0    0    0    0  0.00000000000E+00  0.00000000000E+00  0.45593999997E+02  0.45594000000E+02  0.51100000000E-03 0. -1.
         11   -1    0    0    0    0 -0.00000000000E+00 -0.00000000000E+00 -0.45593999997E+02  0.45594000000E+02  0.51100000000E-03 0.  1.
         23    2    1    2    0    0  0.17763568394E-14  0.00000000000E+00  0.00000000000E+00  0.91188000000E+02  0.91188000000E+02 0.  0.
    9900012    2    3    3    0    0 -0.13134348854E+02 -0.10092249264E+01  0.43076489581E+02  0.46142316418E+02  0.99999877491E+01 0.  0.
        -12    1    3    3    0    0  0.13134348854E+02  0.10092249264E+01 -0.43076489581E+02  0.45045683582E+02  0.00000000000E+00 0.  1.
         11    1    4    4    0    0 -0.31086313707E+01 -0.32082845662E+01  0.89950203101E+01  0.10043259904E+02  0.51100000000E-03 0. -1.
        -11    1    4    4    0    0 -0.54402085516E+01 -0.18564438231E+01  0.17777856289E+02  0.18684068809E+02  0.51100000000E-03 0.  1.
        -12    1    4    4    0    0 -0.45855089314E+01  0.40555034629E+01  0.16303612982E+02  0.17414987705E+02  0.00000000000E+00 0.  1.
</event>
<event>
 8    1  0.2882335E-009  0.9118800E+02  0.7816164E-02  0.1184000E+00
        -11   -1    0    0    0    0  0.00000000000E+00  0.00000000000E+00  0.45593999997E+02  0.45594000000E+02  0.51100000000E-03 0. -1.
         11   -1    0    0    0    0 -0.00000000000E+00 -0.00000000000E+00 -0.45593999997E+02  0.45594000000E+02  0.51100000000E-03 0.  1.
         23    2    1    2    0    0  0.00000000000E+00  0.00000000000E+00  0.00000000000E+00  0.91188000000E+02  0.91188000000E+02 0.  0.
    9900012    2    3    3    0    0 -0.21718309127E+02 -0.17670631648E+02 -0.35287070628E+02  0.46142317325E+02  0.99999960210E+01 0.  0.
         12    1    3    3    0    0  0.21718309127E+02  0.17670631648E+02  0.35287070628E+02  0.45045682675E+02  0.00000000000E+00 0. -1.
         11    1    4    4    0    0 -0.67540935410E+01 -0.18071149279E+01 -0.10580545748E+02  0.12681931734E+02  0.51100000000E-03 0. -1.
        -11    1    4    4    0    0 -0.11425357125E+02 -0.84704705663E+01 -0.13800255856E+02  0.19817535644E+02  0.51100000000E-03 0.  1.
         12    1    4    4    0    0 -0.35388584609E+01 -0.73930461543E+01 -0.10906269024E+02  0.13642849946E+02  0.00000000000E+00 0. -1.
</event>
<event>
 8    1  0.2882335E-009  0.9118800E+02  0.7816164E-02  0.1184000E+00
        -11   -1    0    0    0    0  0.00000000000E+00  0.00000000000E+00  0.45593999997E+02  0.45594000000E+02  0.51100000000E-03 0. -1.
         11   -1    0    0    0    0 -0.00000000000E+00 -0.00000000000E+00 -0.45593999997E+02  0.45594000000E+02  0.51100000000E-03 0.  1.
         23    2    1    2    0    0  0.17763568394E-14 -0.17763568394E-14  0.00000000000E+00  0.91188000000E+02  0.91188000000E+02 0.  0.
    9900012    2    3    3    0    0 -0.12292800991E+02  0.84169458837E+01 -0.42510649220E+02  0.46142320614E+02  0.10000026017E+02 0.  0.
         12    1    3    3    0    0  0.12292800991E+02 -0.84169458837E+01  0.42510649220E+02  0.45045679386E+02  0.00000000000E+00 0. -1.
         11    1    4    4    0    0 -0.78808263219E+01  0.49781902153E+01 -0.13328103185E+02  0.16264320954E+02  0.51100000000E-03 0. -1.
        -11    1    4    4    0    0 -0.37103541342E+01  0.37778438147E+01 -0.27715833631E+02  0.28217127172E+02  0.51100000000E-03 0.  1.
        -12    1    4    4    0    0 -0.70162053544E+00 -0.33908814627E+00 -0.14667124038E+01  0.16608724882E+01  0.00000000000E+00 0.  1.
</event>
<event>
 8    1  0.2882335E-009  0.9118800E+02  0.7816164E-02  0.1184000E+00
        -11   -1    0    0    0    0  0.00000000000E+00  0.00000000000E+00  0.45593999997E+02  0.45594000000E+02  0.51100000000E-03 0. -1.
         11   -1    0    0    0    0 -0.00000000000E+00 -0.00000000000E+00 -0.45593999997E+02  0.45594000000E+02  0.51100000000E-03 0.  1.
         23    2    1    2    0    0  0.00000000000E+00 -0.35527136788E-14  0.71054273576E-14  0.91188000000E+02  0.91188000000E+02 0.  0.
    9900012    2    3    3    0    0 -0.17858456627E+02  0.13733498695E+02 -0.39007435165E+02  0.46142318102E+02  0.10000003109E+02 0.  0.
         12    1    3    3    0    0  0.17858456627E+02 -0.13733498695E+02  0.39007435165E+02  0.45045681898E+02  0.00000000000E+00 0. -1.
         11    1    4    4    0    0 -0.82148231670E+01  0.80143468466E+01 -0.17039461936E+02  0.20544009793E+02  0.51100000000E-03 0. -1.
        -11    1    4    4    0    0 -0.24131933426E+01  0.48360045892E+01 -0.12760783783E+02  0.13858140046E+02  0.51100000000E-03 0.  1.
         12    1    4    4    0    0 -0.72304401172E+01  0.88314725937E+00 -0.92071894459E+01  0.11740168264E+02  0.00000000000E+00 0. -1.
</event>
<event>
 8    1  0.3207384E-009  0.9118800E+02  0.7816164E-02  0.1184000E+00
        -11   -1    0    0    0    0  0.00000000000E+00  0.00000000000E+00  0.45593999997E+02  0.45594000000E+02  0.51100000000E-03 0. -1.
         11   -1    0    0    0    0 -0.00000000000E+00 -0.00000000000E+00 -0.45593999997E+02  0.45594000000E+02  0.51100000000E-03 0.  1.
         23    2    1    2    0    0  0.00000000000E+00 -0.88817841970E-15  0.00000000000E+00  0.91188000000E+02  0.91188000000E+02 0.  0.
    9900012    2    3    3    0    0 -0.63351398927E+01  0.57203990191E+01  0.44229591517E+02  0.46142315099E+02  0.99999757275E+01 0.  0.
        -12    1    3    3    0    0  0.63351398927E+01 -0.57203990191E+01 -0.44229591517E+02  0.45045684901E+02  0.00000000000E+00 0.  1.
         11    1    4    4    0    0 -0.49003770350E+01  0.61275216469E+01  0.23108573620E+02  0.24404228970E+02  0.51100000000E-03 0. -1.
        -11    1    4    4    0    0 -0.66185658915E+00 -0.52412040674E+00  0.29038893243E+00  0.89279467884E+00  0.51100000000E-03 0.  1.
         12    1    4    4    0    0 -0.77290626856E+00  0.11699777898E+00  0.20830628965E+02  0.20845291450E+02  0.00000000000E+00 0. -1.
</event>
<event>
 8    1  0.2882335E-009  0.9118800E+02  0.7816164E-02  0.1184000E+00
        -11   -1    0    0    0    0  0.00000000000E+00  0.00000000000E+00  0.45593999997E+02  0.45594000000E+02  0.51100000000E-03 0. -1.
         11   -1    0    0    0    0 -0.00000000000E+00 -0.00000000000E+00 -0.45593999997E+02  0.45594000000E+02  0.51100000000E-03 0.  1.
         23    2    1    2    0    0  0.00000000000E+00 -0.35527136788E-14  0.00000000000E+00  0.91188000000E+02  0.91188000000E+02 0.  0.
    9900012    2    3    3    0    0  0.27896561262E+02  0.13613861641E+02  0.32642889309E+02  0.46142316728E+02  0.99999905837E+01 0.  0.
        -12    1    3    3    0    0 -0.27896561262E+02 -0.13613861641E+02 -0.32642889309E+02  0.45045683272E+02  0.00000000000E+00 0.  1.
         11    1    4    4    0    0  0.12029238116E+02  0.42943944600E+01  0.83422714890E+01  0.15255749319E+02  0.51100000000E-03 0. -1.
        -11    1    4    4    0    0  0.64830823953E+01  0.66967578930E+01  0.11882004909E+02  0.15101621256E+02  0.51100000000E-03 0.  1.
         12    1    4    4    0    0  0.93842407505E+01  0.26227092877E+01  0.12418612910E+02  0.15784946154E+02  0.00000000000E+00 0. -1.
</event>
<event>
 8    1  0.2882335E-009  0.9118800E+02  0.7816164E-02  0.1184000E+00
        -11   -1    0    0    0    0  0.00000000000E+00  0.00000000000E+00  0.45593999997E+02  0.45594000000E+02  0.51100000000E-03 0. -1.
         11   -1    0    0    0    0 -0.00000000000E+00 -0.00000000000E+00 -0.45593999997E+02  0.45594000000E+02  0.51100000000E-03 0.  1.
         23    2    1    2    0    0  0.71054273576E-14 -0.17763568394E-14  0.17763568394E-14  0.91188000000E+02  0.91188000000E+02 0.  0.
    9900012    2    3    3    0    0  0.40419301715E+02  0.13968823490E+02 -0.14151518868E+02  0.46142317997E+02  0.10000002151E+02 0.  0.
         12    1    3    3    0    0 -0.40419301715E+02 -0.13968823490E+02  0.14151518868E+02  0.45045682003E+02  0.00000000000E+00 0. -1.
         11    1    4    4    0    0  0.28751783359E+02  0.10106714446E+02 -0.63085452015E+01  0.31122475256E+02  0.51100000000E-03 0. -1.
        -11    1    4    4    0    0  0.91882363493E+01  0.20878184581E+01 -0.73083979017E+01  0.11924569312E+02  0.51100000000E-03 0.  1.
        -12    1    4    4    0    0  0.24792820062E+01  0.17742905867E+01 -0.53457576515E+00  0.30952734291E+01  0.00000000000E+00 0.  1.
</event>
<event>
 8    1  0.2882335E-009  0.9118800E+02  0.7816164E-02  0.1184000E+00
        -11   -1    0    0    0    0  0.00000000000E+00  0.00000000000E+00  0.45593999997E+02  0.45594000000E+02  0.51100000000E-03 0. -1.
         11   -1    0    0    0    0 -0.00000000000E+00 -0.00000000000E+00 -0.45593999997E+02  0.45594000000E+02  0.51100000000E-03 0.  1.
         23    2    1    2    0    0  0.00000000000E+00  0.11102230246E-15  0.00000000000E+00  0.91188000000E+02  0.91188000000E+02 0.  0.
    9900012    2    3    3    0    0  0.36983145989E+01  0.82131299046E+00 -0.44886093198E+02  0.46142318204E+02  0.10000004035E+02 0.  0.
         12    1    3    3    0    0 -0.36983145989E+01 -0.82131299046E+00  0.44886093198E+02  0.45045681796E+02  0.00000000000E+00 0. -1.
         11    1    4    4    0    0  0.45377780527E+01 -0.19425928757E+01 -0.24963544969E+02  0.25446879464E+02  0.51100000000E-03 0.  1.
        -11    1    4    4    0    0 -0.19046941238E+01  0.14962017086E+01 -0.39232219752E+01  0.46106561557E+01  0.51100000000E-03 0. -1.
         12    1    4    4    0    0  0.10652306701E+01  0.12677041576E+01 -0.15999326254E+02  0.16084782584E+02  0.00000000000E+00 0. -1.
</event>
<event>
 8    1  0.2882335E-009  0.9118800E+02  0.7816164E-02  0.1184000E+00
        -11   -1    0    0    0    0  0.00000000000E+00  0.00000000000E+00  0.45593999997E+02  0.45594000000E+02  0.51100000000E-03 0. -1.
         11   -1    0    0    0    0 -0.00000000000E+00 -0.00000000000E+00 -0.45593999997E+02  0.45594000000E+02  0.51100000000E-03 0.  1.
         23    2    1    2    0    0 -0.35527136788E-14  0.35527136788E-14  0.00000000000E+00  0.91188000000E+02  0.91188000000E+02 0.  0.
    9900012    2    3    3    0    0  0.21290347848E+02 -0.18554636623E+02  0.35093589785E+02  0.46142317680E+02  0.99999992611E+01 0.  0.
        -12    1    3    3    0    0 -0.21290347848E+02  0.18554636623E+02 -0.35093589785E+02  0.45045682320E+02  0.00000000000E+00 0.  1.
         11    1    4    4    0    0  0.17848423128E+02 -0.13402439917E+02  0.31229775241E+02  0.38386071247E+02  0.51100000000E-03 0. -1.
        -11    1    4    4    0    0  0.14063304800E+01 -0.27276605287E+01  0.45203376081E+00  0.31019723018E+01  0.51100000000E-03 0.  1.
        -12    1    4    4    0    0  0.20355942395E+01 -0.24245361765E+01  0.34117807833E+01  0.46542741316E+01  0.00000000000E+00 0.  1.
</event>
<event>
 8    1  0.2882335E-009  0.9118800E+02  0.7816164E-02  0.1184000E+00
        -11   -1    0    0    0    0  0.00000000000E+00  0.00000000000E+00  0.45593999997E+02  0.45594000000E+02  0.51100000000E-03 0.  1.
         11   -1    0    0    0    0 -0.00000000000E+00 -0.00000000000E+00 -0.45593999997E+02  0.45594000000E+02  0.51100000000E-03 0. -1.
         23    2    1    2    0    0  0.35527136788E-14 -0.71054273576E-14 -0.88817841970E-15  0.91188000000E+02  0.91188000000E+02 0.  0.
    9900012    2    3    3    0    0  0.21828330476E+02 -0.38971686073E+02 -0.58176639957E+01  0.46142317176E+02  0.99999946613E+01 0.  0.
        -12    1    3    3    0    0 -0.21828330476E+02  0.38971686073E+02  0.58176639957E+01  0.45045682824E+02  0.00000000000E+00 0.  1.
         11    1    4    4    0    0  0.18226144805E+02 -0.31288780199E+02 -0.62769176767E+01  0.36750235599E+02  0.51100000000E-03 0. -1.
        -11    1    4    4    0    0 -0.83296378682E+00 -0.18566480569E+01  0.37565868119E+00  0.20693212373E+01  0.51100000000E-03 0.  1.
         12    1    4    4    0    0  0.44351494578E+01 -0.58262578174E+01  0.83594999815E-01  0.73227603396E+01  0.00000000000E+00 0. -1.
</event>
<event>
 8    1  0.2882335E-009  0.9118800E+02  0.7816164E-02  0.1184000E+00
        -11   -1    0    0    0    0  0.00000000000E+00  0.00000000000E+00  0.45593999997E+02  0.45594000000E+02  0.51100000000E-03 0. -1.
         11   -1    0    0    0    0 -0.00000000000E+00 -0.00000000000E+00 -0.45593999997E+02  0.45594000000E+02  0.51100000000E-03 0.  1.
         23    2    1    2    0    0  0.00000000000E+00  0.35527136788E-14 -0.71054273576E-14  0.91188000000E+02  0.91188000000E+02 0.  0.
    9900012    2    3    3    0    0  0.44945265051E+00 -0.21802907784E+02  0.39415035512E+02  0.46142314081E+02  0.99999664372E+01 0.  0.
        -12    1    3    3    0    0 -0.44945265051E+00  0.21802907784E+02 -0.39415035512E+02  0.45045685919E+02  0.00000000000E+00 0.  1.
         11    1    4    4    0    0 -0.97916724207E+00 -0.10593560569E+01  0.24032431682E+00  0.14624499245E+01  0.51100000000E-03 0. -1.
        -11    1    4    4    0    0  0.73654351124E+00 -0.18267983379E+02  0.37159330863E+02  0.41413495186E+02  0.51100000000E-03 0.  1.
        -12    1    4    4    0    0  0.69207638133E+00 -0.24755683481E+01  0.20153803327E+01  0.32663689701E+01  0.00000000000E+00 0.  1.
</event>
<event>
 8    1  0.2882335E-009  0.9118800E+02  0.7816164E-02  0.1184000E+00
        -11   -1    0    0    0    0  0.00000000000E+00  0.00000000000E+00  0.45593999997E+02  0.45594000000E+02  0.51100000000E-03 0. -1.
         11   -1    0    0    0    0 -0.00000000000E+00 -0.00000000000E+00 -0.45593999997E+02  0.45594000000E+02  0.51100000000E-03 0.  1.
         23    2    1    2    0    0  0.00000000000E+00 -0.17763568394E-14  0.71054273576E-14  0.91188000000E+02  0.91188000000E+02 0.  0.
    9900012    2    3    3    0    0  0.16314061416E+02 -0.11581983624E+02  0.40358675174E+02  0.46142316452E+02  0.99999880586E+01 0.  0.
        -12    1    3    3    0    0 -0.16314061416E+02  0.11581983624E+02 -0.40358675174E+02  0.45045683548E+02  0.00000000000E+00 0.  1.
         11    1    4    4    0    0  0.10963958055E+02 -0.52523702966E+01  0.27382098994E+02  0.29959557999E+02  0.51100000000E-03 0. -1.
        -11    1    4    4    0    0  0.32364039430E+01 -0.67436356374E+01  0.94742434061E+01  0.12071131698E+02  0.51100000000E-03 0.  1.
         12    1    4    4    0    0  0.21136994178E+01  0.41402231045E+00  0.35023327745E+01  0.41116267541E+01  0.00000000000E+00 0. -1.
</event>
<event>
 8    1  0.2882335E-009  0.9118800E+02  0.7816164E-02  0.1184000E+00
        -11   -1    0    0    0    0  0.00000000000E+00  0.00000000000E+00  0.45593999997E+02  0.45594000000E+02  0.51100000000E-03 0. -1.
         11   -1    0    0    0    0 -0.00000000000E+00 -0.00000000000E+00 -0.45593999997E+02  0.45594000000E+02  0.51100000000E-03 0.  1.
         23    2    1    2    0    0  0.00000000000E+00  0.35527136788E-14 -0.35527136788E-14  0.91188000000E+02  0.91188000000E+02 0.  0.
    9900012    2    3    3    0    0  0.24256093338E+02 -0.25157041742E+02  0.28423203220E+02  0.46142319913E+02  0.10000019620E+02 0.  0.
        -12    1    3    3    0    0 -0.24256093338E+02  0.25157041742E+02 -0.28423203220E+02  0.45045680087E+02  0.00000000000E+00 0.  1.
         11    1    4    4    0    0  0.57105461235E+01 -0.26180533478E+01  0.39833391364E+01  0.74385167404E+01  0.51100000000E-03 0. -1.
        -11    1    4    4    0    0  0.18062722140E+02 -0.22107013434E+02  0.21620615659E+02  0.35811073648E+02  0.51100000000E-03 0.  1.
        -12    1    4    4    0    0  0.48282507388E+00 -0.43197496040E+00  0.28192484252E+01  0.28927295244E+01  0.00000000000E+00 0.  1.
</event>
<event>
 8    1  0.2882335E-009  0.9118800E+02  0.7816164E-02  0.1184000E+00
        -11   -1    0    0    0    0  0.00000000000E+00  0.00000000000E+00  0.45593999997E+02  0.45594000000E+02  0.51100000000E-03 0. -1.
         11   -1    0    0    0    0 -0.00000000000E+00 -0.00000000000E+00 -0.45593999997E+02  0.45594000000E+02  0.51100000000E-03 0.  1.
         23    2    1    2    0    0 -0.17763568394E-14  0.35527136788E-14  0.00000000000E+00  0.91188000000E+02  0.91188000000E+02 0.  0.
    9900012    2    3    3    0    0 -0.12990517978E+02  0.21518763489E+02  0.37380516575E+02  0.46142314759E+02  0.99999726248E+01 0.  0.
        -12    1    3    3    0    0  0.12990517978E+02 -0.21518763489E+02 -0.37380516575E+02  0.45045685241E+02  0.00000000000E+00 0.  1.
         11    1    4    4    0    0 -0.48390947107E+01  0.12780630337E+02  0.17439532034E+02  0.22156232244E+02  0.51100000000E-03 0. -1.
        -11    1    4    4    0    0 -0.11113406304E+01  0.12616399954E+01  0.82747226125E+01  0.84438053062E+01  0.51100000000E-03 0.  1.
        -12    1    4    4    0    0 -0.70400826367E+01  0.74764931573E+01  0.11666261928E+02  0.15542277209E+02  0.00000000000E+00 0.  1.
</event>
<event>
 8    1  0.2882335E-009  0.9118800E+02  0.7816164E-02  0.1184000E+00
        -11   -1    0    0    0    0  0.00000000000E+00  0.00000000000E+00  0.45593999997E+02  0.45594000000E+02  0.51100000000E-03 0. -1.
         11   -1    0    0    0    0 -0.00000000000E+00 -0.00000000000E+00 -0.45593999997E+02  0.45594000000E+02  0.51100000000E-03 0.  1.
         23    2    1    2    0    0 -0.88817841970E-15  0.00000000000E+00  0.35527136788E-14  0.91188000000E+02  0.91188000000E+02 0.  0.
    9900012    2    3    3    0    0  0.63835112438E+01  0.33147150840E+02 -0.29826681248E+02  0.46142314981E+02  0.99999746470E+01 0.  0.
         12    1    3    3    0    0 -0.63835112438E+01 -0.33147150840E+02  0.29826681248E+02  0.45045685019E+02  0.00000000000E+00 0. -1.
         11    1    4    4    0    0  0.43031579921E+00  0.49098205139E+00  0.24754215873E+00  0.69822091297E+00  0.51100000000E-03 0. -1.
        -11    1    4    4    0    0  0.14764750494E+01  0.48720552849E+01 -0.14291274219E+01  0.52876560705E+01  0.51100000000E-03 0.  1.
        -12    1    4    4    0    0  0.44767203952E+01  0.27784113503E+02 -0.28645095985E+02  0.40156437997E+02  0.00000000000E+00 0.  1.
</event>
<event>
 8    1  0.2882335E-009  0.9118800E+02  0.7816164E-02  0.1184000E+00
        -11   -1    0    0    0    0  0.00000000000E+00  0.00000000000E+00  0.45593999997E+02  0.45594000000E+02  0.51100000000E-03 0. -1.
         11   -1    0    0    0    0 -0.00000000000E+00 -0.00000000000E+00 -0.45593999997E+02  0.45594000000E+02  0.51100000000E-03 0.  1.
         23    2    1    2    0    0  0.71054273576E-14  0.00000000000E+00  0.00000000000E+00  0.91188000000E+02  0.91188000000E+02 0.  0.
    9900012    2    3    3    0    0  0.41712156311E+02  0.72644517976E+01 -0.15376515527E+02  0.46142317923E+02  0.10000001474E+02 0.  0.
         12    1    3    3    0    0 -0.41712156311E+02 -0.72644517976E+01  0.15376515527E+02  0.45045682077E+02  0.00000000000E+00 0. -1.
         11    1    4    4    0    0  0.16764958251E+02 -0.77167385565E+00 -0.60961433601E+01  0.17855594917E+02  0.51100000000E-03 0. -1.
        -11    1    4    4    0    0  0.79306653627E+01  0.48365895872E+01 -0.19906450287E+01  0.95000378853E+01  0.51100000000E-03 0.  1.
        -12    1    4    4    0    0  0.17016532697E+02  0.31995360661E+01 -0.72897271384E+01  0.18786685121E+02  0.00000000000E+00 0.  1.
</event>
<event>
 8    1  0.2882335E-009  0.9118800E+02  0.7816164E-02  0.1184000E+00
        -11   -1    0    0    0    0  0.00000000000E+00  0.00000000000E+00  0.45593999997E+02  0.45594000000E+02  0.51100000000E-03 0. -1.
         11   -1    0    0    0    0 -0.00000000000E+00 -0.00000000000E+00 -0.45593999997E+02  0.45594000000E+02  0.51100000000E-03 0.  1.
         23    2    1    2    0    0  0.00000000000E+00 -0.71054273576E-14 -0.71054273576E-14  0.91188000000E+02  0.91188000000E+02 0.  0.
    9900012    2    3    3    0    0 -0.12133723558E+01 -0.40702445964E+02 -0.19260117491E+02  0.46142317569E+02  0.99999982477E+01 0.  0.
         12    1    3    3    0    0  0.12133723558E+01  0.40702445964E+02  0.19260117491E+02  0.45045682431E+02  0.00000000000E+00 0. -1.
         11    1    4    4    0    0  0.98625085167E+00 -0.23618675165E+01 -0.64408005469E+00  0.26393082968E+01  0.51100000000E-03 0. -1.
        -11    1    4    4    0    0 -0.18198973163E+01 -0.27274884949E+02 -0.17306909870E+02  0.32353678380E+02  0.51100000000E-03 0.  1.
        -12    1    4    4    0    0 -0.37972589118E+00 -0.11065693498E+02 -0.13091275663E+01  0.11149330892E+02  0.00000000000E+00 0.  1.
</event>
<event>
 8    1  0.2882335E-009  0.9118800E+02  0.7816164E-02  0.1184000E+00
        -11   -1    0    0    0    0  0.00000000000E+00  0.00000000000E+00  0.45593999997E+02  0.45594000000E+02  0.51100000000E-03 0. -1.
         11   -1    0    0    0    0 -0.00000000000E+00 -0.00000000000E+00 -0.45593999997E+02  0.45594000000E+02  0.51100000000E-03 0.  1.
         23    2    1    2    0    0  0.71054273576E-14  0.00000000000E+00  0.00000000000E+00  0.91188000000E+02  0.91188000000E+02 0.  0.
    9900012    2    3    3    0    0  0.36234975985E+02 -0.19139007712E+02 -0.18703966521E+02  0.46142318027E+02  0.10000002422E+02 0.  0.
         12    1    3    3    0    0 -0.36234975985E+02  0.19139007712E+02  0.18703966521E+02  0.45045681973E+02  0.00000000000E+00 0. -1.
         11    1    4    4    0    0  0.25060910794E+01 -0.42975915803E+00  0.10003847962E+01  0.27323900588E+01  0.51100000000E-03 0. -1.
        -11    1    4    4    0    0  0.23463228823E+02 -0.14471428850E+02 -0.14421695959E+02  0.31111584247E+02  0.51100000000E-03 0.  1.
        -12    1    4    4    0    0  0.10265656082E+02 -0.42378197046E+01 -0.52826553577E+01  0.12298343721E+02  0.00000000000E+00 0.  1.
</event>
<event>
 8    1  0.2882335E-009  0.9118800E+02  0.7816164E-02  0.1184000E+00
        -11   -1    0    0    0    0  0.00000000000E+00  0.00000000000E+00  0.45593999997E+02  0.45594000000E+02  0.51100000000E-03 0. -1.
         11   -1    0    0    0    0 -0.00000000000E+00 -0.00000000000E+00 -0.45593999997E+02  0.45594000000E+02  0.51100000000E-03 0.  1.
         23    2    1    2    0    0  0.35527136788E-14 -0.35527136788E-14 -0.71054273576E-14  0.91188000000E+02  0.91188000000E+02 0.  0.
    9900012    2    3    3    0    0 -0.27688504341E+02  0.14348425709E+02  0.32505121963E+02  0.46142317112E+02  0.99999940840E+01 0.  0.
        -12    1    3    3    0    0  0.27688504341E+02 -0.14348425709E+02 -0.32505121963E+02  0.45045682888E+02  0.00000000000E+00 0.  1.
         11    1    4    4    0    0 -0.41135859561E+01  0.11161382674E+01  0.29025748598E+01  0.51567717739E+01  0.51100000000E-03 0. -1.
        -11    1    4    4    0    0 -0.22822881839E+02  0.12620781994E+02  0.24470400866E+02  0.35762670375E+02  0.51100000000E-03 0.  1.
        -12    1    4    4    0    0 -0.75203654626E+00  0.61150544757E+00  0.51321462373E+01  0.52228749631E+01  0.00000000000E+00 0.  1.
</event>
<event>
 8    1  0.2882335E-009  0.9118800E+02  0.7816164E-02  0.1184000E+00
        -11   -1    0    0    0    0  0.00000000000E+00  0.00000000000E+00  0.45593999997E+02  0.45594000000E+02  0.51100000000E-03 0.  1.
         11   -1    0    0    0    0 -0.00000000000E+00 -0.00000000000E+00 -0.45593999997E+02  0.45594000000E+02  0.51100000000E-03 0. -1.
         23    2    1    2    0    0  0.00000000000E+00  0.00000000000E+00  0.88817841970E-15  0.91188000000E+02  0.91188000000E+02 0.  0.
    9900012    2    3    3    0    0 -0.42541689994E+02  0.12747927261E+02 -0.75371187389E+01  0.46142321008E+02  0.10000029607E+02 0.  0.
         12    1    3    3    0    0  0.42541689994E+02 -0.12747927261E+02  0.75371187389E+01  0.45045678992E+02  0.00000000000E+00 0. -1.
         11    1    4    4    0    0 -0.22790533779E+02  0.89662362696E+01  0.32887813856E+00  0.24493059912E+02  0.51100000000E-03 0. -1.
        -11    1    4    4    0    0 -0.10549831665E+02  0.20210625792E+01 -0.33692787435E+01  0.11257694330E+02  0.51100000000E-03 0.  1.
         12    1    4    4    0    0 -0.92013245497E+01  0.17606284125E+01 -0.44967181340E+01  0.10391566766E+02  0.00000000000E+00 0. -1.
</event>
<event>
 8    1  0.2882335E-009  0.9118800E+02  0.7816164E-02  0.1184000E+00
        -11   -1    0    0    0    0  0.00000000000E+00  0.00000000000E+00  0.45593999997E+02  0.45594000000E+02  0.51100000000E-03 0. -1.
         11   -1    0    0    0    0 -0.00000000000E+00 -0.00000000000E+00 -0.45593999997E+02  0.45594000000E+02  0.51100000000E-03 0.  1.
         23    2    1    2    0    0  0.00000000000E+00  0.00000000000E+00 -0.35527136788E-14  0.91188000000E+02  0.91188000000E+02 0.  0.
    9900012    2    3    3    0    0 -0.34955779721E+02 -0.26417636573E+01 -0.28288302136E+02  0.46142317755E+02  0.99999999453E+01 0.  0.
         12    1    3    3    0    0  0.34955779721E+02  0.26417636573E+01  0.28288302136E+02  0.45045682245E+02  0.00000000000E+00 0. -1.
         11    1    4    4    0    0 -0.21367092283E+02 -0.51526382090E+01 -0.14629326867E+02  0.26403021001E+02  0.51100000000E-03 0. -1.
        -11    1    4    4    0    0 -0.11103238337E+02  0.31773905517E+01 -0.10066647784E+02  0.15320414817E+02  0.51100000000E-03 0.  1.
        -12    1    4    4    0    0 -0.24854491013E+01 -0.66651599998E+00 -0.35923274852E+01  0.44188819372E+01  0.00000000000E+00 0.  1.
</event>
<event>
 8    1  0.2882335E-009  0.9118800E+02  0.7816164E-02  0.1184000E+00
        -11   -1    0    0    0    0  0.00000000000E+00  0.00000000000E+00  0.45593999997E+02  0.45594000000E+02  0.51100000000E-03 0. -1.
         11   -1    0    0    0    0 -0.00000000000E+00 -0.00000000000E+00 -0.45593999997E+02  0.45594000000E+02  0.51100000000E-03 0.  1.
         23    2    1    2    0    0  0.00000000000E+00  0.00000000000E+00 -0.71054273576E-14  0.91188000000E+02  0.91188000000E+02 0.  0.
    9900012    2    3    3    0    0 -0.82329940759E+01  0.10089686881E+02 -0.43122263078E+02  0.46142317124E+02  0.99999941862E+01 0.  0.
         12    1    3    3    0    0  0.82329940759E+01 -0.10089686881E+02  0.43122263078E+02  0.45045682876E+02  0.00000000000E+00 0. -1.
         11    1    4    4    0    0 -0.28099289678E+01  0.84529411155E+01 -0.27786971641E+02  0.29179851055E+02  0.51100000000E-03 0. -1.
        -11    1    4    4    0    0 -0.80150801645E+00  0.23578896687E+01 -0.41709936889E+01  0.48579056602E+01  0.51100000000E-03 0.  1.
         12    1    4    4    0    0 -0.46215570916E+01 -0.72114390334E+00 -0.11164297748E+02  0.12104560409E+02  0.00000000000E+00 0. -1.
</event>
<event>
 8    1  0.2882335E-009  0.9118800E+02  0.7816164E-02  0.1184000E+00
        -11   -1    0    0    0    0  0.00000000000E+00  0.00000000000E+00  0.45593999997E+02  0.45594000000E+02  0.51100000000E-03 0. -1.
         11   -1    0    0    0    0 -0.00000000000E+00 -0.00000000000E+00 -0.45593999997E+02  0.45594000000E+02  0.51100000000E-03 0.  1.
         23    2    1    2    0    0  0.71054273576E-14 -0.53290705182E-14  0.71054273576E-14  0.91188000000E+02  0.91188000000E+02 0.  0.
    9900012    2    3    3    0    0  0.23834165126E+02 -0.14636863368E+02  0.35310173167E+02  0.46142317348E+02  0.99999962296E+01 0.  0.
        -12    1    3    3    0    0 -0.23834165126E+02  0.14636863368E+02 -0.35310173167E+02  0.45045682652E+02  0.00000000000E+00 0.  1.
         11    1    4    4    0    0  0.91430198736E+01 -0.98029618911E+01  0.21135144348E+02  0.25027728645E+02  0.51100000000E-03 0. -1.
        -11    1    4    4    0    0  0.65456275002E+01 -0.12359890727E+01  0.71519141721E+01  0.97735758525E+01  0.51100000000E-03 0.  1.
         12    1    4    4    0    0  0.81455177525E+01 -0.35979124041E+01  0.70231146472E+01  0.11341012850E+02  0.00000000000E+00 0. -1.
</event>
<event>
 8    1  0.2882335E-009  0.9118800E+02  0.7816164E-02  0.1184000E+00
        -11   -1    0    0    0    0  0.00000000000E+00  0.00000000000E+00  0.45593999997E+02  0.45594000000E+02  0.51100000000E-03 0. -1.
         11   -1    0    0    0    0 -0.00000000000E+00 -0.00000000000E+00 -0.45593999997E+02  0.45594000000E+02  0.51100000000E-03 0.  1.
         23    2    1    2    0    0  0.00000000000E+00  0.00000000000E+00  0.00000000000E+00  0.91188000000E+02  0.91188000000E+02 0.  0.
    9900012    2    3    3    0    0 -0.23450984396E+02 -0.38452111772E+02  0.77492653048E+00  0.46142311194E+02  0.99999401166E+01 0.  0.
        -12    1    3    3    0    0  0.23450984396E+02  0.38452111772E+02 -0.77492653048E+00  0.45045688806E+02  0.00000000000E+00 0.  1.
         11    1    4    4    0    0 -0.66356523783E+01 -0.84729911311E+01 -0.14179768497E+00  0.10763064993E+02  0.51100000000E-03 0. -1.
        -11    1    4    4    0    0 -0.11277823034E+02 -0.25098692887E+02 -0.16473867819E+01  0.27565332585E+02  0.51100000000E-03 0.  1.
        -12    1    4    4    0    0 -0.55375089833E+01 -0.48804277537E+01  0.25641109974E+01  0.78139136165E+01  0.00000000000E+00 0.  1.
</event>
<event>
 8    1  0.2882335E-009  0.9118800E+02  0.7816164E-02  0.1184000E+00
        -11   -1    0    0    0    0  0.00000000000E+00  0.00000000000E+00  0.45593999997E+02  0.45594000000E+02  0.51100000000E-03 0. -1.
         11   -1    0    0    0    0 -0.00000000000E+00 -0.00000000000E+00 -0.45593999997E+02  0.45594000000E+02  0.51100000000E-03 0.  1.
         23    2    1    2    0    0  0.00000000000E+00  0.00000000000E+00  0.00000000000E+00  0.91188000000E+02  0.91188000000E+02 0.  0.
    9900012    2    3    3    0    0  0.93610797084E+00  0.28792629958E+01  0.44943808407E+02  0.46142330201E+02  0.10000113436E+02 0.  0.
        -12    1    3    3    0    0 -0.93610797084E+00 -0.28792629958E+01 -0.44943808407E+02  0.45045669799E+02  0.00000000000E+00 0.  1.
         11    1    4    4    0    0 -0.71986730511E+00 -0.14246834987E+01  0.28830588973E+02  0.28874743164E+02  0.51100000000E-03 0. -1.
        -11    1    4    4    0    0  0.21035673700E+01  0.52102853217E+00  0.37538408420E+01  0.43344881751E+01  0.51100000000E-03 0.  1.
         12    1    4    4    0    0 -0.44759209403E+00  0.37829179623E+01  0.12359378592E+02  0.12933098862E+02  0.00000000000E+00 0. -1.
</event>
<event>
 8    1  0.2882335E-009  0.9118800E+02  0.7816164E-02  0.1184000E+00
        -11   -1    0    0    0    0  0.00000000000E+00  0.00000000000E+00  0.45593999997E+02  0.45594000000E+02  0.51100000000E-03 0. -1.
         11   -1    0    0    0    0 -0.00000000000E+00 -0.00000000000E+00 -0.45593999997E+02  0.45594000000E+02  0.51100000000E-03 0.  1.
         23    2    1    2    0    0  0.17763568394E-14  0.00000000000E+00 -0.71054273576E-14  0.91188000000E+02  0.91188000000E+02 0.  0.
    9900012    2    3    3    0    0 -0.12515091653E+02 -0.29113956916E+02 -0.32013489410E+02  0.46142317515E+02  0.99999977535E+01 0.  0.
         12    1    3    3    0    0  0.12515091653E+02  0.29113956916E+02  0.32013489410E+02  0.45045682485E+02  0.00000000000E+00 0. -1.
         11    1    4    4    0    0 -0.53745634880E+01 -0.42135380897E+01 -0.52747957996E+01  0.86292124154E+01  0.51100000000E-03 0. -1.
        -11    1    4    4    0    0 -0.33447648906E+01 -0.17052034091E+02 -0.19998218744E+02  0.26493170290E+02  0.51100000000E-03 0.  1.
        -12    1    4    4    0    0 -0.37957632748E+01 -0.78483847354E+01 -0.67404748659E+01  0.11019934810E+02  0.00000000000E+00 0.  1.
</event>
<event>
 8    1  0.2882335E-009  0.9118800E+02  0.7816164E-02  0.1184000E+00
        -11   -1    0    0    0    0  0.00000000000E+00  0.00000000000E+00  0.45593999997E+02  0.45594000000E+02  0.51100000000E-03 0. -1.
         11   -1    0    0    0    0 -0.00000000000E+00 -0.00000000000E+00 -0.45593999997E+02  0.45594000000E+02  0.51100000000E-03 0.  1.
         23    2    1    2    0    0  0.35527136788E-14  0.35527136788E-14  0.00000000000E+00  0.91188000000E+02  0.91188000000E+02 0.  0.
    9900012    2    3    3    0    0 -0.11094694699E+02 -0.26267236606E+02 -0.34871958209E+02  0.46142318312E+02  0.10000005028E+02 0.  0.
         12    1    3    3    0    0  0.11094694699E+02  0.26267236606E+02  0.34871958209E+02  0.45045681688E+02  0.00000000000E+00 0. -1.
         11    1    4    4    0    0 -0.42671491025E+01 -0.32034811897E+01 -0.35598738791E+01  0.64143242428E+01  0.51100000000E-03 0. -1.
        -11    1    4    4    0    0 -0.67066493904E+01 -0.22798216535E+02 -0.29445796420E+02  0.37839037386E+02  0.51100000000E-03 0.  1.
        -12    1    4    4    0    0 -0.12089620615E+00 -0.26553888081E+00 -0.18662879098E+01  0.18889566835E+01  0.00000000000E+00 0.  1.
</event>
<event>
 8    1  0.2882335E-009  0.9118800E+02  0.7816164E-02  0.1184000E+00
        -11   -1    0    0    0    0  0.00000000000E+00  0.00000000000E+00  0.45593999997E+02  0.45594000000E+02  0.51100000000E-03 0. -1.
         11   -1    0    0    0    0 -0.00000000000E+00 -0.00000000000E+00 -0.45593999997E+02  0.45594000000E+02  0.51100000000E-03 0.  1.
         23    2    1    2    0    0  0.00000000000E+00  0.00000000000E+00  0.35527136788E-14  0.91188000000E+02  0.91188000000E+02 0.  0.
    9900012    2    3    3    0    0 -0.31301574739E+02 -0.21911567304E+02 -0.23858082856E+02  0.46142317850E+02  0.10000000806E+02 0.  0.
         12    1    3    3    0    0  0.31301574739E+02  0.21911567304E+02  0.23858082856E+02  0.45045682150E+02  0.00000000000E+00 0. -1.
         11    1    4    4    0    0 -0.55654331724E+01 -0.84921289912E+01 -0.64136517387E+01  0.12009380920E+02  0.51100000000E-03 0. -1.
        -11    1    4    4    0    0 -0.14852120093E+02 -0.97244115461E+01 -0.92579923271E+01  0.20021490288E+02  0.51100000000E-03 0.  1.
         12    1    4    4    0    0 -0.10884021473E+02 -0.36950267667E+01 -0.81864387903E+01  0.14111446641E+02  0.00000000000E+00 0. -1.
</event>
<event>
 8    1  0.2882335E-009  0.9118800E+02  0.7816164E-02  0.1184000E+00
        -11   -1    0    0    0    0  0.00000000000E+00  0.00000000000E+00  0.45593999997E+02  0.45594000000E+02  0.51100000000E-03 0. -1.
         11   -1    0    0    0    0 -0.00000000000E+00 -0.00000000000E+00 -0.45593999997E+02  0.45594000000E+02  0.51100000000E-03 0.  1.
         23    2    1    2    0    0  0.35527136788E-14  0.00000000000E+00  0.00000000000E+00  0.91188000000E+02  0.91188000000E+02 0.  0.
    9900012    2    3    3    0    0  0.24191197748E+02 -0.19984255464E+02 -0.32319173564E+02  0.46142317690E+02  0.99999993499E+01 0.  0.
         12    1    3    3    0    0 -0.24191197748E+02  0.19984255464E+02  0.32319173564E+02  0.45045682310E+02  0.00000000000E+00 0. -1.
         11    1    4    4    0    0  0.37279445053E+01 -0.72038720449E+01 -0.57437011914E+01  0.99389861813E+01  0.51100000000E-03 0. -1.
        -11    1    4    4    0    0  0.17372179681E+02 -0.12341385005E+02 -0.21698465172E+02  0.30412592816E+02  0.51100000000E-03 0.  1.
         12    1    4    4    0    0  0.30910735619E+01 -0.43899841412E+00 -0.48770072007E+01  0.57907386928E+01  0.00000000000E+00 0. -1.
</event>
<event>
 8    1  0.2882335E-009  0.9118800E+02  0.7816164E-02  0.1184000E+00
        -11   -1    0    0    0    0  0.00000000000E+00  0.00000000000E+00  0.45593999997E+02  0.45594000000E+02  0.51100000000E-03 0. -1.
         11   -1    0    0    0    0 -0.00000000000E+00 -0.00000000000E+00 -0.45593999997E+02  0.45594000000E+02  0.51100000000E-03 0.  1.
         23    2    1    2    0    0  0.00000000000E+00  0.00000000000E+00  0.00000000000E+00  0.91188000000E+02  0.91188000000E+02 0.  0.
    9900012    2    3    3    0    0  0.32266396752E+01 -0.21142092490E+01 -0.44880200842E+02  0.46142317500E+02  0.99999976164E+01 0.  0.
         12    1    3    3    0    0 -0.32266396752E+01  0.21142092490E+01  0.44880200842E+02  0.45045682500E+02  0.00000000000E+00 0. -1.
         11    1    4    4    0    0  0.84852413778E+00 -0.12384445278E+01 -0.90416786727E+01  0.91654618837E+01  0.51100000000E-03 0.  1.
        -11    1    4    4    0    0  0.26964453366E+01  0.20486691533E+01 -0.52514321870E+01  0.62486320926E+01  0.51100000000E-03 0. -1.
        -12    1    4    4    0    0 -0.31832979915E+00 -0.29244338745E+01 -0.30587089982E+02  0.30728223523E+02  0.00000000000E+00 0.  1.
</event>
<event>
 8    1  0.2882335E-009  0.9118800E+02  0.7816164E-02  0.1184000E+00
        -11   -1    0    0    0    0  0.00000000000E+00  0.00000000000E+00  0.45593999997E+02  0.45594000000E+02  0.51100000000E-03 0. -1.
         11   -1    0    0    0    0 -0.00000000000E+00 -0.00000000000E+00 -0.45593999997E+02  0.45594000000E+02  0.51100000000E-03 0.  1.
         23    2    1    2    0    0  0.00000000000E+00  0.00000000000E+00  0.00000000000E+00  0.91188000000E+02  0.91188000000E+02 0.  0.
    9900012    2    3    3    0    0 -0.32495367689E+01 -0.37591146229E+02 -0.24606090886E+02  0.46142317935E+02  0.10000001583E+02 0.  0.
         12    1    3    3    0    0  0.32495367689E+01  0.37591146229E+02  0.24606090886E+02  0.45045682065E+02  0.00000000000E+00 0. -1.
         11    1    4    4    0    0 -0.18010496334E-01 -0.19794545255E+02 -0.10373798374E+02  0.22348155163E+02  0.51100000000E-03 0. -1.
        -11    1    4    4    0    0 -0.33416506384E+01 -0.18253530355E+02 -0.13602837433E+02  0.23008589394E+02  0.51100000000E-03 0.  1.
         12    1    4    4    0    0  0.11012436580E+00  0.45692938088E+00 -0.62945507885E+00  0.78557337744E+00  0.00000000000E+00 0. -1.
</event>
<event>
 8    1  0.2882335E-009  0.9118800E+02  0.7816164E-02  0.1184000E+00
        -11   -1    0    0    0    0  0.00000000000E+00  0.00000000000E+00  0.45593999997E+02  0.45594000000E+02  0.51100000000E-03 0. -1.
         11   -1    0    0    0    0 -0.00000000000E+00 -0.00000000000E+00 -0.45593999997E+02  0.45594000000E+02  0.51100000000E-03 0.  1.
         23    2    1    2    0    0  0.00000000000E+00  0.00000000000E+00  0.00000000000E+00  0.91188000000E+02  0.91188000000E+02 0.  0.
    9900012    2    3    3    0    0  0.17388344130E+02 -0.18109631906E+02  0.37400537785E+02  0.46142317566E+02  0.99999982164E+01 0.  0.
        -12    1    3    3    0    0 -0.17388344130E+02  0.18109631906E+02 -0.37400537785E+02  0.45045682434E+02  0.00000000000E+00 0.  1.
         11    1    4    4    0    0  0.52931696003E+01 -0.59993701894E+01  0.17830846570E+02  0.19543520071E+02  0.51100000000E-03 0. -1.
        -11    1    4    4    0    0  0.26084638590E+01 -0.19398967139E+01  0.10056662497E+01  0.34027412231E+01  0.51100000000E-03 0.  1.
        -12    1    4    4    0    0  0.94867106710E+01 -0.10170365002E+02  0.18564024965E+02  0.23196056272E+02  0.00000000000E+00 0.  1.
</event>
<event>
 8    1  0.2882335E-009  0.9118800E+02  0.7816164E-02  0.1184000E+00
        -11   -1    0    0    0    0  0.00000000000E+00  0.00000000000E+00  0.45593999997E+02  0.45594000000E+02  0.51100000000E-03 0.  1.
         11   -1    0    0    0    0 -0.00000000000E+00 -0.00000000000E+00 -0.45593999997E+02  0.45594000000E+02  0.51100000000E-03 0. -1.
         23    2    1    2    0    0 -0.71054273576E-14  0.00000000000E+00  0.00000000000E+00  0.91188000000E+02  0.91188000000E+02 0.  0.
    9900012    2    3    3    0    0  0.39548252611E+02  0.15986207990E+02 -0.14473787509E+02  0.46142315908E+02  0.99999831034E+01 0.  0.
         12    1    3    3    0    0 -0.39548252611E+02 -0.15986207990E+02  0.14473787509E+02  0.45045684092E+02  0.00000000000E+00 0. -1.
         11    1    4    4    0    0  0.93944454673E+01  0.16166105151E+01 -0.66085107145E+01  0.11599200374E+02  0.51100000000E-03 0. -1.
        -11    1    4    4    0    0  0.13465328938E+02  0.46646544234E+01 -0.45210610495E+01  0.14950387205E+02  0.51100000000E-03 0.  1.
         12    1    4    4    0    0  0.16688478205E+02  0.97049430511E+01 -0.33442157455E+01  0.19592728329E+02  0.00000000000E+00 0. -1.
</event>
<event>
 8    1  0.2882335E-009  0.9118800E+02  0.7816164E-02  0.1184000E+00
        -11   -1    0    0    0    0  0.00000000000E+00  0.00000000000E+00  0.45593999997E+02  0.45594000000E+02  0.51100000000E-03 0. -1.
         11   -1    0    0    0    0 -0.00000000000E+00 -0.00000000000E+00 -0.45593999997E+02  0.45594000000E+02  0.51100000000E-03 0.  1.
         23    2    1    2    0    0  0.00000000000E+00  0.00000000000E+00  0.00000000000E+00  0.91188000000E+02  0.91188000000E+02 0.  0.
    9900012    2    3    3    0    0  0.11941365827E+02 -0.38101469950E+02  0.20851745583E+02  0.46142317365E+02  0.99999963863E+01 0.  0.
        -12    1    3    3    0    0 -0.11941365827E+02  0.38101469950E+02 -0.20851745583E+02  0.45045682635E+02  0.00000000000E+00 0.  1.
         11    1    4    4    0    0  0.26214460824E+00 -0.48983013391E+01  0.51857490488E+01  0.71382119093E+01  0.51100000000E-03 0. -1.
        -11    1    4    4    0    0  0.47081435037E+01 -0.97634494192E+01  0.21067986316E+01  0.11042199081E+02  0.51100000000E-03 0.  1.
        -12    1    4    4    0    0  0.69710777155E+01 -0.23439719192E+02  0.13559197903E+02  0.27961906374E+02  0.00000000000E+00 0.  1.
</event>
<event>
 8    1  0.2882335E-009  0.9118800E+02  0.7816164E-02  0.1184000E+00
        -11   -1    0    0    0    0  0.00000000000E+00  0.00000000000E+00  0.45593999997E+02  0.45594000000E+02  0.51100000000E-03 0. -1.
         11   -1    0    0    0    0 -0.00000000000E+00 -0.00000000000E+00 -0.45593999997E+02  0.45594000000E+02  0.51100000000E-03 0.  1.
         23    2    1    2    0    0  0.00000000000E+00 -0.17763568394E-14 -0.71054273576E-14  0.91188000000E+02  0.91188000000E+02 0.  0.
    9900012    2    3    3    0    0  0.15808443804E+02  0.12061689145E+02  0.40419331578E+02  0.46142316458E+02  0.99999881202E+01 0.  0.
        -12    1    3    3    0    0 -0.15808443804E+02 -0.12061689145E+02 -0.40419331578E+02  0.45045683542E+02  0.00000000000E+00 0.  1.
         11    1    4    4    0    0  0.95788298781E+01  0.12722106620E+01  0.17722946612E+02  0.20186018396E+02  0.51100000000E-03 0. -1.
        -11    1    4    4    0    0  0.50780816761E+01  0.73248899733E+01  0.16890261349E+02  0.19097692408E+02  0.51100000000E-03 0.  1.
         12    1    4    4    0    0  0.11515322495E+01  0.34645885094E+01  0.58061236168E+01  0.68586056538E+01  0.00000000000E+00 0. -1.
</event>
<event>
 8    1  0.2882335E-009  0.9118800E+02  0.7816164E-02  0.1184000E+00
        -11   -1    0    0    0    0  0.00000000000E+00  0.00000000000E+00  0.45593999997E+02  0.45594000000E+02  0.51100000000E-03 0. -1.
         11   -1    0    0    0    0 -0.00000000000E+00 -0.00000000000E+00 -0.45593999997E+02  0.45594000000E+02  0.51100000000E-03 0.  1.
         23    2    1    2    0    0  0.00000000000E+00  0.00000000000E+00  0.00000000000E+00  0.91188000000E+02  0.91188000000E+02 0.  0.
    9900012    2    3    3    0    0 -0.39800071312E+02 -0.11765122039E+02  0.17511415266E+02  0.46142318324E+02  0.10000005137E+02 0.  0.
        -12    1    3    3    0    0  0.39800071312E+02  0.11765122039E+02 -0.17511415266E+02  0.45045681676E+02  0.00000000000E+00 0.  1.
         11    1    4    4    0    0 -0.70077575987E+01 -0.15283115380E+01  0.66244725177E+01  0.97636078945E+01  0.51100000000E-03 0.  1.
        -11    1    4    4    0    0 -0.15012933456E+02 -0.63798510678E+01  0.71272796123E+01  0.17801370327E+02  0.51100000000E-03 0. -1.
         12    1    4    4    0    0 -0.17779380257E+02 -0.38569594329E+01  0.37596631356E+01  0.18577340103E+02  0.00000000000E+00 0. -1.
</event>
<event>
 8    1  0.2882335E-009  0.9118800E+02  0.7816164E-02  0.1184000E+00
        -11   -1    0    0    0    0  0.00000000000E+00  0.00000000000E+00  0.45593999997E+02  0.45594000000E+02  0.51100000000E-03 0. -1.
         11   -1    0    0    0    0 -0.00000000000E+00 -0.00000000000E+00 -0.45593999997E+02  0.45594000000E+02  0.51100000000E-03 0.  1.
         23    2    1    2    0    0 -0.71054273576E-14  0.00000000000E+00  0.35527136788E-14  0.91188000000E+02  0.91188000000E+02 0.  0.
    9900012    2    3    3    0    0 -0.38987043538E+02  0.16498525812E+02  0.15392289163E+02  0.46142317815E+02  0.10000000491E+02 0.  0.
        -12    1    3    3    0    0  0.38987043538E+02 -0.16498525812E+02 -0.15392289163E+02  0.45045682185E+02  0.00000000000E+00 0.  1.
         11    1    4    4    0    0 -0.29842365932E+02  0.85418319212E+01  0.11314830061E+02  0.33038690600E+02  0.51100000000E-03 0. -1.
        -11    1    4    4    0    0 -0.60230172592E+01  0.68184868498E+01  0.34019236419E+01  0.97129596185E+01  0.51100000000E-03 0.  1.
        -12    1    4    4    0    0 -0.31216603473E+01  0.11382070411E+01  0.67553546035E+00  0.33906675965E+01  0.00000000000E+00 0.  1.
</event>
<event>
 8    1  0.2882335E-009  0.9118800E+02  0.7816164E-02  0.1184000E+00
        -11   -1    0    0    0    0  0.00000000000E+00  0.00000000000E+00  0.45593999997E+02  0.45594000000E+02  0.51100000000E-03 0. -1.
         11   -1    0    0    0    0 -0.00000000000E+00 -0.00000000000E+00 -0.45593999997E+02  0.45594000000E+02  0.51100000000E-03 0.  1.
         23    2    1    2    0    0 -0.35527136788E-14  0.00000000000E+00  0.00000000000E+00  0.91188000000E+02  0.91188000000E+02 0.  0.
    9900012    2    3    3    0    0 -0.20452970427E+02 -0.33175683563E+02  0.22586797690E+02  0.46142318641E+02  0.10000008028E+02 0.  0.
        -12    1    3    3    0    0  0.20452970427E+02  0.33175683563E+02 -0.22586797690E+02  0.45045681359E+02  0.00000000000E+00 0.  1.
         11    1    4    4    0    0 -0.28648706172E+01 -0.17354836878E+01  0.99289631430E+00  0.34935985224E+01  0.51100000000E-03 0. -1.
        -11    1    4    4    0    0 -0.70477098955E+01 -0.79233147266E+01  0.35260638111E+01  0.11175073033E+02  0.51100000000E-03 0.  1.
         12    1    4    4    0    0 -0.10540389914E+02 -0.23516885149E+02  0.18067837565E+02  0.31473647086E+02  0.00000000000E+00 0. -1.
</event>
<event>
 8    1  0.2882335E-009  0.9118800E+02  0.7816164E-02  0.1184000E+00
        -11   -1    0    0    0    0  0.00000000000E+00  0.00000000000E+00  0.45593999997E+02  0.45594000000E+02  0.51100000000E-03 0. -1.
         11   -1    0    0    0    0 -0.00000000000E+00 -0.00000000000E+00 -0.45593999997E+02  0.45594000000E+02  0.51100000000E-03 0.  1.
         23    2    1    2    0    0  0.00000000000E+00  0.00000000000E+00  0.00000000000E+00  0.91188000000E+02  0.91188000000E+02 0.  0.
    9900012    2    3    3    0    0  0.86013594795E+01 -0.90006061711E+01 -0.43291099699E+02  0.46142316417E+02  0.99999877415E+01 0.  0.
         12    1    3    3    0    0 -0.86013594795E+01  0.90006061711E+01  0.43291099699E+02  0.45045683583E+02  0.00000000000E+00 0. -1.
         11    1    4    4    0    0  0.26718772552E+01 -0.14896966698E+01 -0.70334821787E+01  0.76699410724E+01  0.51100000000E-03 0. -1.
        -11    1    4    4    0    0  0.71651161719E+01 -0.29258447432E+01 -0.26715361437E+02  0.27813845369E+02  0.51100000000E-03 0.  1.
        -12    1    4    4    0    0 -0.12356339476E+01 -0.45850647582E+01 -0.95422560831E+01  0.10658529976E+02  0.00000000000E+00 0.  1.
</event>
<event>
 8    1  0.2882335E-009  0.9118800E+02  0.7816164E-02  0.1184000E+00
        -11   -1    0    0    0    0  0.00000000000E+00  0.00000000000E+00  0.45593999997E+02  0.45594000000E+02  0.51100000000E-03 0. -1.
         11   -1    0    0    0    0 -0.00000000000E+00 -0.00000000000E+00 -0.45593999997E+02  0.45594000000E+02  0.51100000000E-03 0.  1.
         23    2    1    2    0    0  0.71054273576E-14  0.17763568394E-14  0.17763568394E-14  0.91188000000E+02  0.91188000000E+02 0.  0.
    9900012    2    3    3    0    0  0.42691194670E+02  0.13008064355E+02  0.61127790881E+01  0.46142313094E+02  0.99999574442E+01 0.  0.
         12    1    3    3    0    0 -0.42691194670E+02 -0.13008064355E+02 -0.61127790881E+01  0.45045686906E+02  0.00000000000E+00 0. -1.
         11    1    4    4    0    0  0.64597590077E+01  0.54373213640E+01  0.24068880040E+01  0.87798667518E+01  0.51100000000E-03 0. -1.
        -11    1    4    4    0    0  0.31672800919E+02  0.62082749566E+01  0.43266877286E+01  0.32564232264E+02  0.51100000000E-03 0.  1.
        -12    1    4    4    0    0  0.45586347433E+01  0.13624680339E+01 -0.62079664445E+00  0.47982140781E+01  0.00000000000E+00 0.  1.
</event>
<event>
 8    1  0.2882335E-009  0.9118800E+02  0.7816164E-02  0.1184000E+00
        -11   -1    0    0    0    0  0.00000000000E+00  0.00000000000E+00  0.45593999997E+02  0.45594000000E+02  0.51100000000E-03 0. -1.
         11   -1    0    0    0    0 -0.00000000000E+00 -0.00000000000E+00 -0.45593999997E+02  0.45594000000E+02  0.51100000000E-03 0.  1.
         23    2    1    2    0    0  0.00000000000E+00  0.00000000000E+00  0.71054273576E-14  0.91188000000E+02  0.91188000000E+02 0.  0.
    9900012    2    3    3    0    0 -0.18777346665E+02  0.21994056607E+02 -0.34536738182E+02  0.46142316987E+02  0.99999929432E+01 0.  0.
         12    1    3    3    0    0  0.18777346665E+02 -0.21994056607E+02  0.34536738182E+02  0.45045683013E+02  0.00000000000E+00 0. -1.
         11    1    4    4    0    0 -0.50186186671E+01  0.13926006379E+01 -0.65857119237E+01  0.83962772504E+01  0.51100000000E-03 0. -1.
        -11    1    4    4    0    0 -0.21172495054E+01  0.49326396723E+01 -0.93566651562E+01  0.10787069236E+02  0.51100000000E-03 0.  1.
        -12    1    4    4    0    0 -0.11641478492E+02  0.15668816297E+02 -0.18594361103E+02  0.26958970500E+02  0.00000000000E+00 0.  1.
</event>
<event>
 8    1  0.2882335E-009  0.9118800E+02  0.7816164E-02  0.1184000E+00
        -11   -1    0    0    0    0  0.00000000000E+00  0.00000000000E+00  0.45593999997E+02  0.45594000000E+02  0.51100000000E-03 0.  1.
         11   -1    0    0    0    0 -0.00000000000E+00 -0.00000000000E+00 -0.45593999997E+02  0.45594000000E+02  0.51100000000E-03 0. -1.
         23    2    1    2    0    0  0.88817841970E-15  0.71054273576E-14  0.00000000000E+00  0.91188000000E+02  0.91188000000E+02 0.  0.
    9900012    2    3    3    0    0 -0.75717926550E+01  0.41366068250E+02  0.16144038548E+02  0.46142316221E+02  0.99999859587E+01 0.  0.
        -12    1    3    3    0    0  0.75717926550E+01 -0.41366068250E+02 -0.16144038548E+02  0.45045683779E+02  0.00000000000E+00 0.  1.
         11    1    4    4    0    0 -0.89564854720E+01  0.27513653631E+02  0.10650612768E+02  0.30832698888E+02  0.51100000000E-03 0. -1.
        -11    1    4    4    0    0  0.10528018888E+01  0.41598851486E+01  0.28301606848E+00  0.43003644756E+01  0.51100000000E-03 0.  1.
         12    1    4    4    0    0  0.33189092819E+00  0.96925294705E+01  0.52104097119E+01  0.11009252858E+02  0.00000000000E+00 0. -1.
</event>
<event>
 8    1  0.2882335E-009  0.9118800E+02  0.7816164E-02  0.1184000E+00
        -11   -1    0    0    0    0  0.00000000000E+00  0.00000000000E+00  0.45593999997E+02  0.45594000000E+02  0.51100000000E-03 0. -1.
         11   -1    0    0    0    0 -0.00000000000E+00 -0.00000000000E+00 -0.45593999997E+02  0.45594000000E+02  0.51100000000E-03 0.  1.
         23    2    1    2    0    0  0.00000000000E+00  0.35527136788E-14  0.35527136788E-14  0.91188000000E+02  0.91188000000E+02 0.  0.
    9900012    2    3    3    0    0 -0.34612689476E+02  0.23278877515E+02  0.17004976514E+02  0.46142316108E+02  0.99999849221E+01 0.  0.
        -12    1    3    3    0    0  0.34612689476E+02 -0.23278877515E+02 -0.17004976514E+02  0.45045683892E+02  0.00000000000E+00 0.  1.
         11    1    4    4    0    0 -0.15425808812E+02  0.97252870963E+01  0.80545527474E+01  0.19935210228E+02  0.51100000000E-03 0. -1.
        -11    1    4    4    0    0 -0.26865809650E+01  0.32036753346E+01 -0.10518013277E+01  0.43113268520E+01  0.51100000000E-03 0.  1.
        -12    1    4    4    0    0 -0.16500299699E+02  0.10349915084E+02  0.10002225094E+02  0.21895779028E+02  0.00000000000E+00 0.  1.
</event>
<event>
 8    1  0.2882335E-009  0.9118800E+02  0.7816164E-02  0.1184000E+00
        -11   -1    0    0    0    0  0.00000000000E+00  0.00000000000E+00  0.45593999997E+02  0.45594000000E+02  0.51100000000E-03 0.  1.
         11   -1    0    0    0    0 -0.00000000000E+00 -0.00000000000E+00 -0.45593999997E+02  0.45594000000E+02  0.51100000000E-03 0. -1.
         23    2    1    2    0    0  0.00000000000E+00  0.00000000000E+00  0.00000000000E+00  0.91188000000E+02  0.91188000000E+02 0.  0.
    9900012    2    3    3    0    0  0.22930403418E+02 -0.37436297813E+02 -0.10091265576E+02  0.46142318345E+02  0.10000005325E+02 0.  0.
        -12    1    3    3    0    0 -0.22930403418E+02  0.37436297813E+02  0.10091265576E+02  0.45045681655E+02  0.00000000000E+00 0.  1.
         11    1    4    4    0    0  0.61676385490E+01 -0.87769813756E+01 -0.37924726842E+01  0.11377961885E+02  0.51100000000E-03 0. -1.
        -11    1    4    4    0    0  0.88331694154E+01 -0.11292253404E+02  0.88951636828E+00  0.14364230174E+02  0.51100000000E-03 0.  1.
        -12    1    4    4    0    0  0.79295954531E+01 -0.17367063034E+02 -0.71883092604E+01  0.20400126286E+02  0.00000000000E+00 0.  1.
</event>
<event>
 8    1  0.2882335E-009  0.9118800E+02  0.7816164E-02  0.1184000E+00
        -11   -1    0    0    0    0  0.00000000000E+00  0.00000000000E+00  0.45593999997E+02  0.45594000000E+02  0.51100000000E-03 0. -1.
         11   -1    0    0    0    0 -0.00000000000E+00 -0.00000000000E+00 -0.45593999997E+02  0.45594000000E+02  0.51100000000E-03 0.  1.
         23    2    1    2    0    0  0.00000000000E+00  0.00000000000E+00  0.00000000000E+00  0.91188000000E+02  0.91188000000E+02 0.  0.
    9900012    2    3    3    0    0  0.30533662838E+01 -0.71265755568E+01  0.44373443006E+02  0.46142316866E+02  0.99999918355E+01 0.  0.
        -12    1    3    3    0    0 -0.30533662838E+01  0.71265755568E+01 -0.44373443006E+02  0.45045683134E+02  0.00000000000E+00 0.  1.
         11    1    4    4    0    0  0.14005975454E+01 -0.23633651245E+01  0.29655698017E+02  0.29782672703E+02  0.51100000000E-03 0. -1.
        -11    1    4    4    0    0 -0.15517290761E+01 -0.11544500936E+01  0.21230045766E+01  0.28718925532E+01  0.51100000000E-03 0.  1.
        -12    1    4    4    0    0  0.32044978146E+01 -0.36087603387E+01  0.12594740412E+02  0.13487751610E+02  0.00000000000E+00 0.  1.
</event>
<event>
 8    1  0.2882335E-009  0.9118800E+02  0.7816164E-02  0.1184000E+00
        -11   -1    0    0    0    0  0.00000000000E+00  0.00000000000E+00  0.45593999997E+02  0.45594000000E+02  0.51100000000E-03 0. -1.
         11   -1    0    0    0    0 -0.00000000000E+00 -0.00000000000E+00 -0.45593999997E+02  0.45594000000E+02  0.51100000000E-03 0.  1.
         23    2    1    2    0    0  0.35527136788E-14  0.00000000000E+00 -0.71054273576E-14  0.91188000000E+02  0.91188000000E+02 0.  0.
    9900012    2    3    3    0    0 -0.16024561522E+02  0.91360899044E+01  0.41095727062E+02  0.46142317704E+02  0.99999994811E+01 0.  0.
        -12    1    3    3    0    0  0.16024561522E+02 -0.91360899044E+01 -0.41095727062E+02  0.45045682296E+02  0.00000000000E+00 0.  1.
         11    1    4    4    0    0 -0.61610627363E+01  0.30975296821E+01  0.22847064434E+02  0.23865073595E+02  0.51100000000E-03 0. -1.
        -11    1    4    4    0    0 -0.14279866695E+01  0.31278530332E+00  0.10531967313E+00  0.14656306045E+01  0.51100000000E-03 0.  1.
        -12    1    4    4    0    0 -0.84355121165E+01  0.57257749189E+01  0.18143342955E+02  0.20811613505E+02  0.00000000000E+00 0.  1.
</event>
<event>
 8    1  0.2924493E-009  0.9118800E+02  0.7816164E-02  0.1184000E+00
        -11   -1    0    0    0    0  0.00000000000E+00  0.00000000000E+00  0.45593999997E+02  0.45594000000E+02  0.51100000000E-03 0. -1.
         11   -1    0    0    0    0 -0.00000000000E+00 -0.00000000000E+00 -0.45593999997E+02  0.45594000000E+02  0.51100000000E-03 0.  1.
         23    2    1    2    0    0 -0.17763568394E-14 -0.35527136788E-14  0.71054273576E-14  0.91188000000E+02  0.91188000000E+02 0.  0.
    9900012    2    3    3    0    0 -0.77200188714E+01 -0.27800987009E+02  0.34592195088E+02  0.46142317287E+02  0.99999956778E+01 0.  0.
        -12    1    3    3    0    0  0.77200188714E+01  0.27800987009E+02 -0.34592195088E+02  0.45045682713E+02  0.00000000000E+00 0.  1.
         11    1    4    4    0    0 -0.78027586985E+01 -0.12385497046E+02  0.14941698899E+02  0.20917407742E+02  0.51100000000E-03 0. -1.
        -11    1    4    4    0    0  0.10035607411E+01 -0.16431185281E+01  0.16113301019E+01  0.25106488438E+01  0.51100000000E-03 0.  1.
         12    1    4    4    0    0 -0.92082091395E+00 -0.13772371435E+02  0.18039166087E+02  0.22714260702E+02  0.00000000000E+00 0. -1.
</event>
<event>
 8    1  0.2882335E-009  0.9118800E+02  0.7816164E-02  0.1184000E+00
        -11   -1    0    0    0    0  0.00000000000E+00  0.00000000000E+00  0.45593999997E+02  0.45594000000E+02  0.51100000000E-03 0. -1.
         11   -1    0    0    0    0 -0.00000000000E+00 -0.00000000000E+00 -0.45593999997E+02  0.45594000000E+02  0.51100000000E-03 0.  1.
         23    2    1    2    0    0 -0.11102230246E-15  0.00000000000E+00  0.71054273576E-14  0.91188000000E+02  0.91188000000E+02 0.  0.
    9900012    2    3    3    0    0 -0.55166574259E+00 -0.23139998497E+02  0.38643882829E+02  0.46142317125E+02  0.99999942020E+01 0.  0.
        -12    1    3    3    0    0  0.55166574259E+00  0.23139998497E+02 -0.38643882829E+02  0.45045682875E+02  0.00000000000E+00 0.  1.
         11    1    4    4    0    0  0.13830855916E+01 -0.73409246596E+01  0.10895863298E+02  0.13210675148E+02  0.51100000000E-03 0. -1.
        -11    1    4    4    0    0 -0.30246879533E+01 -0.38327196069E+01  0.13133342725E+02  0.14011536968E+02  0.51100000000E-03 0.  1.
        -12    1    4    4    0    0  0.10899366191E+01 -0.11966354231E+02  0.14614676806E+02  0.18920105009E+02  0.00000000000E+00 0.  1.
</event>
<event>
 8    1  0.2882335E-009  0.9118800E+02  0.7816164E-02  0.1184000E+00
        -11   -1    0    0    0    0  0.00000000000E+00  0.00000000000E+00  0.45593999997E+02  0.45594000000E+02  0.51100000000E-03 0. -1.
         11   -1    0    0    0    0 -0.00000000000E+00 -0.00000000000E+00 -0.45593999997E+02  0.45594000000E+02  0.51100000000E-03 0.  1.
         23    2    1    2    0    0 -0.44408920985E-15  0.00000000000E+00  0.00000000000E+00  0.91188000000E+02  0.91188000000E+02 0.  0.
    9900012    2    3    3    0    0  0.31892554699E+01  0.15610307046E+02 -0.42133839423E+02  0.46142318065E+02  0.10000002769E+02 0.  0.
         12    1    3    3    0    0 -0.31892554699E+01 -0.15610307046E+02  0.42133839423E+02  0.45045681935E+02  0.00000000000E+00 0. -1.
         11    1    4    4    0    0  0.24605488948E+01  0.10153908721E+02 -0.20535318462E+02  0.23040300948E+02  0.51100000000E-03 0. -1.
        -11    1    4    4    0    0  0.14857534104E+01  0.42419432698E+01 -0.21120124494E+02  0.21593082336E+02  0.51100000000E-03 0.  1.
         12    1    4    4    0    0 -0.75704683530E+00  0.12144550554E+01 -0.47839646739E+00  0.15089347807E+01  0.00000000000E+00 0. -1.
</event>
<event>
 8    1  0.2882335E-009  0.9118800E+02  0.7816164E-02  0.1184000E+00
        -11   -1    0    0    0    0  0.00000000000E+00  0.00000000000E+00  0.45593999997E+02  0.45594000000E+02  0.51100000000E-03 0.  1.
         11   -1    0    0    0    0 -0.00000000000E+00 -0.00000000000E+00 -0.45593999997E+02  0.45594000000E+02  0.51100000000E-03 0. -1.
         23    2    1    2    0    0  0.00000000000E+00  0.00000000000E+00  0.17763568394E-14  0.91188000000E+02  0.91188000000E+02 0.  0.
    9900012    2    3    3    0    0 -0.95553701645E+01  0.41955322471E+02 -0.13325144383E+02  0.46142315906E+02  0.99999830830E+01 0.  0.
        -12    1    3    3    0    0  0.95553701645E+01 -0.41955322471E+02  0.13325144383E+02  0.45045684094E+02  0.00000000000E+00 0.  1.
         11    1    4    4    0    0 -0.10028351870E+02  0.22574484025E+02 -0.89058123953E+01  0.26258116172E+02  0.51100000000E-03 0. -1.
        -11    1    4    4    0    0  0.41331694866E+00  0.17919230147E+02 -0.40736142987E+01  0.18381076510E+02  0.51100000000E-03 0.  1.
         12    1    4    4    0    0  0.59664757031E-01  0.14616082995E+01 -0.34571768943E+00  0.15031232236E+01  0.00000000000E+00 0. -1.
</event>
<event>
 8    1  0.2882335E-009  0.9118800E+02  0.7816164E-02  0.1184000E+00
        -11   -1    0    0    0    0  0.00000000000E+00  0.00000000000E+00  0.45593999997E+02  0.45594000000E+02  0.51100000000E-03 0. -1.
         11   -1    0    0    0    0 -0.00000000000E+00 -0.00000000000E+00 -0.45593999997E+02  0.45594000000E+02  0.51100000000E-03 0.  1.
         23    2    1    2    0    0  0.00000000000E+00  0.00000000000E+00  0.00000000000E+00  0.91188000000E+02  0.91188000000E+02 0.  0.
    9900012    2    3    3    0    0 -0.34315031512E+02 -0.14614610746E+02 -0.25258764823E+02  0.46142318350E+02  0.10000005371E+02 0.  0.
         12    1    3    3    0    0  0.34315031512E+02  0.14614610746E+02  0.25258764823E+02  0.45045681650E+02  0.00000000000E+00 0. -1.
         11    1    4    4    0    0 -0.11145337440E+02 -0.21471781720E+01 -0.11741242367E+02  0.16330514178E+02  0.51100000000E-03 0. -1.
        -11    1    4    4    0    0 -0.16709231072E+02 -0.10142929361E+02 -0.85373408031E+01  0.21329875932E+02  0.51100000000E-03 0.  1.
        -12    1    4    4    0    0 -0.64604629995E+01 -0.23245032130E+01 -0.49801816537E+01  0.84819282394E+01  0.00000000000E+00 0.  1.
</event>
<event>
 8    1  0.2882335E-009  0.9118800E+02  0.7816164E-02  0.1184000E+00
        -11   -1    0    0    0    0  0.00000000000E+00  0.00000000000E+00  0.45593999997E+02  0.45594000000E+02  0.51100000000E-03 0. -1.
         11   -1    0    0    0    0 -0.00000000000E+00 -0.00000000000E+00 -0.45593999997E+02  0.45594000000E+02  0.51100000000E-03 0.  1.
         23    2    1    2    0    0 -0.17763568394E-14  0.35527136788E-14 -0.71054273576E-14  0.91188000000E+02  0.91188000000E+02 0.  0.
    9900012    2    3    3    0    0  0.76894954134E+01 -0.12101619377E+02  0.42702877772E+02  0.46142319838E+02  0.10000018937E+02 0.  0.
        -12    1    3    3    0    0 -0.76894954134E+01  0.12101619377E+02 -0.42702877772E+02  0.45045680162E+02  0.00000000000E+00 0.  1.
         11    1    4    4    0    0  0.83042985267E+01 -0.55470578327E+01  0.27321312885E+02  0.29089265419E+02  0.51100000000E-03 0. -1.
        -11    1    4    4    0    0 -0.36592463673E-01 -0.54559895297E+01  0.87906452472E+01  0.10346236266E+02  0.51100000000E-03 0.  1.
         12    1    4    4    0    0 -0.57821064959E+00 -0.10985720147E+01  0.65909196398E+01  0.67068181521E+01  0.00000000000E+00 0. -1.
</event>
<event>
 8    1  0.2882335E-009  0.9118800E+02  0.7816164E-02  0.1184000E+00
        -11   -1    0    0    0    0  0.00000000000E+00  0.00000000000E+00  0.45593999997E+02  0.45594000000E+02  0.51100000000E-03 0. -1.
         11   -1    0    0    0    0 -0.00000000000E+00 -0.00000000000E+00 -0.45593999997E+02  0.45594000000E+02  0.51100000000E-03 0.  1.
         23    2    1    2    0    0  0.71054273576E-14 -0.35527136788E-14 -0.35527136788E-14  0.91188000000E+02  0.91188000000E+02 0.  0.
    9900012    2    3    3    0    0 -0.21451847501E+02  0.23401581911E+02  0.31957737630E+02  0.46142325495E+02  0.10000070526E+02 0.  0.
        -12    1    3    3    0    0  0.21451847501E+02 -0.23401581911E+02 -0.31957737630E+02  0.45045674505E+02  0.00000000000E+00 0.  1.
         11    1    4    4    0    0 -0.14333898621E+02  0.14449526605E+02  0.26281384266E+02  0.33240948061E+02  0.51100000000E-03 0. -1.
        -11    1    4    4    0    0 -0.28925324601E+01  0.51182071826E+01  0.29669596555E+01  0.65852591942E+01  0.51100000000E-03 0.  1.
         12    1    4    4    0    0 -0.42254164198E+01  0.38338481237E+01  0.27093937086E+01  0.63161182402E+01  0.00000000000E+00 0. -1.
</event>
<event>
 8    1  0.2882335E-009  0.9118800E+02  0.7816164E-02  0.1184000E+00
        -11   -1    0    0    0    0  0.00000000000E+00  0.00000000000E+00  0.45593999997E+02  0.45594000000E+02  0.51100000000E-03 0. -1.
         11   -1    0    0    0    0 -0.00000000000E+00 -0.00000000000E+00 -0.45593999997E+02  0.45594000000E+02  0.51100000000E-03 0.  1.
         23    2    1    2    0    0  0.00000000000E+00  0.00000000000E+00  0.00000000000E+00  0.91188000000E+02  0.91188000000E+02 0.  0.
    9900012    2    3    3    0    0 -0.48080201418E+01  0.49434963570E+00 -0.44785624259E+02  0.46142316749E+02  0.99999907737E+01 0.  0.
         12    1    3    3    0    0  0.48080201418E+01 -0.49434963570E+00  0.44785624259E+02  0.45045683251E+02  0.00000000000E+00 0. -1.
         11    1    4    4    0    0 -0.14988476252E+01  0.36407607634E+01 -0.16858759381E+02  0.17312407437E+02  0.51100000000E-03 0. -1.
        -11    1    4    4    0    0  0.10385419851E+01 -0.13242857257E+01 -0.14543998087E+02  0.14641044456E+02  0.51100000000E-03 0.  1.
         12    1    4    4    0    0 -0.43477145017E+01 -0.18221254021E+01 -0.13382866791E+02  0.14188864856E+02  0.00000000000E+00 0. -1.
</event>
<event>
 8    1  0.2882335E-009  0.9118800E+02  0.7816164E-02  0.1184000E+00
        -11   -1    0    0    0    0  0.00000000000E+00  0.00000000000E+00  0.45593999997E+02  0.45594000000E+02  0.51100000000E-03 0. -1.
         11   -1    0    0    0    0 -0.00000000000E+00 -0.00000000000E+00 -0.45593999997E+02  0.45594000000E+02  0.51100000000E-03 0.  1.
         23    2    1    2    0    0  0.17763568394E-14  0.88817841970E-15  0.00000000000E+00  0.91188000000E+02  0.91188000000E+02 0.  0.
    9900012    2    3    3    0    0  0.15748065399E+02  0.36366650530E+01 -0.42046243012E+02  0.46142318210E+02  0.10000004091E+02 0.  0.
         12    1    3    3    0    0 -0.15748065399E+02 -0.36366650530E+01  0.42046243012E+02  0.45045681790E+02  0.00000000000E+00 0. -1.
         11    1    4    4    0    0  0.18157998008E+01  0.38179238532E+00 -0.96287173996E+00  0.20904584642E+01  0.51100000000E-03 0. -1.
        -11    1    4    4    0    0  0.14312685152E+02  0.39948440516E+01 -0.36772406173E+02  0.39661336227E+02  0.51100000000E-03 0.  1.
        -12    1    4    4    0    0 -0.38041955372E+00 -0.73997138386E+00 -0.43109650986E+01  0.43905235185E+01  0.00000000000E+00 0.  1.
</event>
<event>
 8    1  0.2882335E-009  0.9118800E+02  0.7816164E-02  0.1184000E+00
        -11   -1    0    0    0    0  0.00000000000E+00  0.00000000000E+00  0.45593999997E+02  0.45594000000E+02  0.51100000000E-03 0. -1.
         11   -1    0    0    0    0 -0.00000000000E+00 -0.00000000000E+00 -0.45593999997E+02  0.45594000000E+02  0.51100000000E-03 0.  1.
         23    2    1    2    0    0  0.00000000000E+00  0.00000000000E+00  0.00000000000E+00  0.91188000000E+02  0.91188000000E+02 0.  0.
    9900012    2    3    3    0    0  0.17458804668E+02  0.95204264636E+01  0.40418622860E+02  0.46142318138E+02  0.10000003439E+02 0.  0.
        -12    1    3    3    0    0 -0.17458804668E+02 -0.95204264636E+01 -0.40418622860E+02  0.45045681862E+02  0.00000000000E+00 0.  1.
         11    1    4    4    0    0  0.45366419618E+01  0.24683019488E+01  0.19019473702E+02  0.19708222014E+02  0.51100000000E-03 0. -1.
        -11    1    4    4    0    0  0.12081882452E+02  0.77954392213E+01  0.20164766345E+02  0.24766076763E+02  0.51100000000E-03 0.  1.
        -12    1    4    4    0    0  0.84028025392E+00 -0.74331470654E+00  0.12343828135E+01  0.16680193609E+01  0.00000000000E+00 0.  1.
</event>
<event>
 8    1  0.2882335E-009  0.9118800E+02  0.7816164E-02  0.1184000E+00
        -11   -1    0    0    0    0  0.00000000000E+00  0.00000000000E+00  0.45593999997E+02  0.45594000000E+02  0.51100000000E-03 0. -1.
         11   -1    0    0    0    0 -0.00000000000E+00 -0.00000000000E+00 -0.45593999997E+02  0.45594000000E+02  0.51100000000E-03 0.  1.
         23    2    1    2    0    0  0.35527136788E-14  0.00000000000E+00  0.00000000000E+00  0.91188000000E+02  0.91188000000E+02 0.  0.
    9900012    2    3    3    0    0  0.30994010609E+02  0.10821674462E+02  0.30844381559E+02  0.46142320900E+02  0.10000028627E+02 0.  0.
        -12    1    3    3    0    0 -0.30994010609E+02 -0.10821674462E+02 -0.30844381559E+02  0.45045679100E+02  0.00000000000E+00 0.  1.
         11    1    4    4    0    0  0.29189424099E+01  0.42432503584E+01  0.42472897701E+01  0.66756924022E+01  0.51100000000E-03 0.  1.
        -11    1    4    4    0    0  0.12298696443E+02  0.23292284115E+01  0.87634416931E+01  0.15280089979E+02  0.51100000000E-03 0. -1.
        -12    1    4    4    0    0  0.15776371755E+02  0.42491956924E+01  0.17833650096E+02  0.24186538519E+02  0.00000000000E+00 0.  1.
</event>
<event>
 8    1  0.2882335E-009  0.9118800E+02  0.7816164E-02  0.1184000E+00
        -11   -1    0    0    0    0  0.00000000000E+00  0.00000000000E+00  0.45593999997E+02  0.45594000000E+02  0.51100000000E-03 0.  1.
         11   -1    0    0    0    0 -0.00000000000E+00 -0.00000000000E+00 -0.45593999997E+02  0.45594000000E+02  0.51100000000E-03 0. -1.
         23    2    1    2    0    0  0.44408920985E-15  0.71054273576E-14  0.88817841970E-15  0.91188000000E+02  0.91188000000E+02 0.  0.
    9900012    2    3    3    0    0 -0.24803780732E+01 -0.44767922693E+02 -0.43351777464E+01  0.46142323807E+02  0.10000055127E+02 0.  0.
         12    1    3    3    0    0  0.24803780732E+01  0.44767922693E+02  0.43351777464E+01  0.45045676193E+02  0.00000000000E+00 0. -1.
         11    1    4    4    0    0  0.31524684488E+00 -0.88036382770E+01 -0.13259050667E+01  0.89085044757E+01  0.51100000000E-03 0. -1.
        -11    1    4    4    0    0 -0.28880112387E+01 -0.35604289569E+02 -0.15790665875E+01  0.35756111312E+02  0.51100000000E-03 0.  1.
        -12    1    4    4    0    0  0.92386320663E-01 -0.35999484709E+00 -0.14302060922E+01  0.14777080186E+01  0.00000000000E+00 0.  1.
</event>
<event>
 8    1  0.2882335E-009  0.9118800E+02  0.7816164E-02  0.1184000E+00
        -11   -1    0    0    0    0  0.00000000000E+00  0.00000000000E+00  0.45593999997E+02  0.45594000000E+02  0.51100000000E-03 0. -1.
         11   -1    0    0    0    0 -0.00000000000E+00 -0.00000000000E+00 -0.45593999997E+02  0.45594000000E+02  0.51100000000E-03 0.  1.
         23    2    1    2    0    0  0.00000000000E+00  0.00000000000E+00  0.00000000000E+00  0.91188000000E+02  0.91188000000E+02 0.  0.
    9900012    2    3    3    0    0  0.19267829740E+02  0.21174369014E+02 -0.34778015242E+02  0.46142317519E+02  0.99999977886E+01 0.  0.
         12    1    3    3    0    0 -0.19267829740E+02 -0.21174369014E+02  0.34778015242E+02  0.45045682481E+02  0.00000000000E+00 0. -1.
         11    1    4    4    0    0  0.13543247808E+02  0.18242717868E+02 -0.25388280740E+02  0.34070237974E+02  0.51100000000E-03 0.  1.
        -11    1    4    4    0    0  0.29252677797E+01  0.80080448710E+00 -0.74747134968E+01  0.80665867336E+01  0.51100000000E-03 0. -1.
         12    1    4    4    0    0  0.27993141526E+01  0.21308466592E+01 -0.19150210045E+01  0.40054928108E+01  0.00000000000E+00 0. -1.
</event>
<event>
 8    1  0.2882335E-009  0.9118800E+02  0.7816164E-02  0.1184000E+00
        -11   -1    0    0    0    0  0.00000000000E+00  0.00000000000E+00  0.45593999997E+02  0.45594000000E+02  0.51100000000E-03 0.  1.
         11   -1    0    0    0    0 -0.00000000000E+00 -0.00000000000E+00 -0.45593999997E+02  0.45594000000E+02  0.51100000000E-03 0. -1.
         23    2    1    2    0    0 -0.71054273576E-14  0.17763568394E-14 -0.22204460493E-15  0.91188000000E+02  0.91188000000E+02 0.  0.
    9900012    2    3    3    0    0  0.43540658291E+02 -0.11482285096E+02 -0.12172791883E+01  0.46142316921E+02  0.99999923388E+01 0.  0.
        -12    1    3    3    0    0 -0.43540658291E+02  0.11482285096E+02  0.12172791883E+01  0.45045683079E+02  0.00000000000E+00 0.  1.
         11    1    4    4    0    0  0.16454703527E+02 -0.28867150236E+01 -0.45937805711E+01  0.17326084728E+02  0.51100000000E-03 0. -1.
        -11    1    4    4    0    0  0.15621139964E+02 -0.64900752084E+01  0.11998869104E+01  0.16958208008E+02  0.51100000000E-03 0.  1.
         12    1    4    4    0    0  0.11464814800E+02 -0.21054948645E+01  0.21766144724E+01  0.11858024186E+02  0.00000000000E+00 0. -1.
</event>
<event>
 8    1  0.4212580E-009  0.9118800E+02  0.7816164E-02  0.1184000E+00
        -11   -1    0    0    0    0  0.00000000000E+00  0.00000000000E+00  0.45593999997E+02  0.45594000000E+02  0.51100000000E-03 0. -1.
         11   -1    0    0    0    0 -0.00000000000E+00 -0.00000000000E+00 -0.45593999997E+02  0.45594000000E+02  0.51100000000E-03 0.  1.
         23    2    1    2    0    0  0.00000000000E+00  0.00000000000E+00  0.00000000000E+00  0.91188000000E+02  0.91188000000E+02 0.  0.
    9900012    2    3    3    0    0  0.64088704632E+00  0.59929906853E+00  0.45037134496E+02  0.46142318973E+02  0.10000011049E+02 0.  0.
        -12    1    3    3    0    0 -0.64088704632E+00 -0.59929906853E+00 -0.45037134496E+02  0.45045681027E+02  0.00000000000E+00 0.  1.
         11    1    4    4    0    0 -0.55836978855E+00 -0.14224651183E+00  0.44593715158E+02  0.44597437626E+02  0.51100000000E-03 0. -1.
        -11    1    4    4    0    0  0.84513218240E+00  0.74358308178E+00  0.33121040330E+00  0.11733988229E+01  0.51100000000E-03 0.  1.
         12    1    4    4    0    0  0.35412465247E+00 -0.20375014147E-02  0.11220893460E+00  0.37148252436E+00  0.00000000000E+00 0. -1.
</event>
<event>
 8    1  0.2966048E-009  0.9118800E+02  0.7816164E-02  0.1184000E+00
        -11   -1    0    0    0    0  0.00000000000E+00  0.00000000000E+00  0.45593999997E+02  0.45594000000E+02  0.51100000000E-03 0. -1.
         11   -1    0    0    0    0 -0.00000000000E+00 -0.00000000000E+00 -0.45593999997E+02  0.45594000000E+02  0.51100000000E-03 0.  1.
         23    2    1    2    0    0  0.44408920985E-15 -0.44408920985E-15  0.00000000000E+00  0.91188000000E+02  0.91188000000E+02 0.  0.
    9900012    2    3    3    0    0 -0.26071113245E+01 -0.22495244173E+01  0.44913874303E+02  0.46142317693E+02  0.99999993803E+01 0.  0.
        -12    1    3    3    0    0  0.26071113245E+01  0.22495244173E+01 -0.44913874303E+02  0.45045682307E+02  0.00000000000E+00 0.  1.
         11    1    4    4    0    0 -0.22108171882E+01 -0.36032908381E+01  0.43143476533E+02  0.43350097867E+02  0.51100000000E-03 0. -1.
        -11    1    4    4    0    0 -0.81018633688E+00  0.13281378142E+01  0.17967583992E+01  0.23766979110E+01  0.51100000000E-03 0.  1.
         12    1    4    4    0    0  0.41389220052E+00  0.25628606559E-01 -0.26360628621E-01  0.41552191502E+00  0.00000000000E+00 0. -1.
</event>
<event>
 8    1  0.2882335E-009  0.9118800E+02  0.7816164E-02  0.1184000E+00
        -11   -1    0    0    0    0  0.00000000000E+00  0.00000000000E+00  0.45593999997E+02  0.45594000000E+02  0.51100000000E-03 0. -1.
         11   -1    0    0    0    0 -0.00000000000E+00 -0.00000000000E+00 -0.45593999997E+02  0.45594000000E+02  0.51100000000E-03 0.  1.
         23    2    1    2    0    0  0.00000000000E+00 -0.17763568394E-14  0.00000000000E+00  0.91188000000E+02  0.91188000000E+02 0.  0.
    9900012    2    3    3    0    0 -0.23606500080E+02  0.14340940034E+02  0.35583478222E+02  0.46142319525E+02  0.10000016085E+02 0.  0.
        -12    1    3    3    0    0  0.23606500080E+02 -0.14340940034E+02 -0.35583478222E+02  0.45045680475E+02  0.00000000000E+00 0.  1.
         11    1    4    4    0    0 -0.19464026750E+02  0.11436839261E+02  0.31540292420E+02  0.38787107082E+02  0.51100000000E-03 0. -1.
        -11    1    4    4    0    0 -0.29058830950E+01  0.36720456951E+01  0.32190655830E+01  0.56824695017E+01  0.51100000000E-03 0.  1.
         12    1    4    4    0    0 -0.12365902353E+01 -0.76794492169E+00  0.82412021878E+00  0.16727429413E+01  0.00000000000E+00 0. -1.
</event>
<event>
 8    1  0.2882335E-009  0.9118800E+02  0.7816164E-02  0.1184000E+00
        -11   -1    0    0    0    0  0.00000000000E+00  0.00000000000E+00  0.45593999997E+02  0.45594000000E+02  0.51100000000E-03 0. -1.
         11   -1    0    0    0    0 -0.00000000000E+00 -0.00000000000E+00 -0.45593999997E+02  0.45594000000E+02  0.51100000000E-03 0.  1.
         23    2    1    2    0    0 -0.71054273576E-14  0.00000000000E+00  0.17763568394E-14  0.91188000000E+02  0.91188000000E+02 0.  0.
    9900012    2    3    3    0    0 -0.24328975589E+02 -0.36091970419E+02  0.11601034503E+02  0.46142318925E+02  0.10000010616E+02 0.  0.
        -12    1    3    3    0    0  0.24328975589E+02  0.36091970419E+02 -0.11601034503E+02  0.45045681075E+02  0.00000000000E+00 0.  1.
         11    1    4    4    0    0 -0.62899960249E+01 -0.15396647792E+02  0.36539452430E+01  0.17028568035E+02  0.51100000000E-03 0. -1.
        -11    1    4    4    0    0 -0.16343493614E+02 -0.17375320075E+02  0.50259136892E+01  0.24377681184E+02  0.51100000000E-03 0.  1.
        -12    1    4    4    0    0 -0.16954859507E+01 -0.33200025522E+01  0.29211755704E+01  0.47360697069E+01  0.00000000000E+00 0.  1.
</event>
<event>
 8    1  0.3019108E-009  0.9118800E+02  0.7816164E-02  0.1184000E+00
        -11   -1    0    0    0    0  0.00000000000E+00  0.00000000000E+00  0.45593999997E+02  0.45594000000E+02  0.51100000000E-03 0. -1.
         11   -1    0    0    0    0 -0.00000000000E+00 -0.00000000000E+00 -0.45593999997E+02  0.45594000000E+02  0.51100000000E-03 0.  1.
         23    2    1    2    0    0  0.17763568394E-14  0.00000000000E+00  0.71054273576E-14  0.91188000000E+02  0.91188000000E+02 0.  0.
    9900012    2    3    3    0    0 -0.13341758739E+02  0.68538485795E+01 -0.42475119554E+02  0.46142317103E+02  0.99999939967E+01 0.  0.
         12    1    3    3    0    0  0.13341758739E+02 -0.68538485795E+01  0.42475119554E+02  0.45045682897E+02  0.00000000000E+00 0. -1.
         11    1    4    4    0    0  0.13253834004E+01 -0.63039663908E-02 -0.39310798767E+01  0.41485021581E+01  0.51100000000E-03 0. -1.
        -11    1    4    4    0    0 -0.14532343958E+02  0.63523030514E+01 -0.35190722504E+02  0.38599581936E+02  0.51100000000E-03 0.  1.
        -12    1    4    4    0    0 -0.13479818064E+00  0.50784949448E+00 -0.33533171724E+01  0.33942330087E+01  0.00000000000E+00 0.  1.
</event>
<event>
 8    1  0.2882335E-009  0.9118800E+02  0.7816164E-02  0.1184000E+00
        -11   -1    0    0    0    0  0.00000000000E+00  0.00000000000E+00  0.45593999997E+02  0.45594000000E+02  0.51100000000E-03 0. -1.
         11   -1    0    0    0    0 -0.00000000000E+00 -0.00000000000E+00 -0.45593999997E+02  0.45594000000E+02  0.51100000000E-03 0.  1.
         23    2    1    2    0    0  0.35527136788E-14  0.35527136788E-14  0.00000000000E+00  0.91188000000E+02  0.91188000000E+02 0.  0.
    9900012    2    3    3    0    0  0.21432251349E+02  0.16060988491E+02  0.36219008711E+02  0.46142319395E+02  0.10000014896E+02 0.  0.
        -12    1    3    3    0    0 -0.21432251349E+02 -0.16060988491E+02 -0.36219008711E+02  0.45045680605E+02  0.00000000000E+00 0.  1.
         11    1    4    4    0    0 -0.83373143828E+00  0.39363146080E+00  0.21751250980E+01  0.23624612783E+01  0.51100000000E-03 0. -1.
        -11    1    4    4    0    0  0.15282037481E+02  0.84092785434E+01  0.22166492805E+02  0.28206560207E+02  0.51100000000E-03 0.  1.
         12    1    4    4    0    0  0.69839453064E+01  0.72580784866E+01  0.11877390808E+02  0.15573297909E+02  0.00000000000E+00 0. -1.
</event>
<event>
 8    1  0.2882335E-009  0.9118800E+02  0.7816164E-02  0.1184000E+00
        -11   -1    0    0    0    0  0.00000000000E+00  0.00000000000E+00  0.45593999997E+02  0.45594000000E+02  0.51100000000E-03 0. -1.
         11   -1    0    0    0    0 -0.00000000000E+00 -0.00000000000E+00 -0.45593999997E+02  0.45594000000E+02  0.51100000000E-03 0.  1.
         23    2    1    2    0    0 -0.35527136788E-14  0.00000000000E+00  0.71054273576E-14  0.91188000000E+02  0.91188000000E+02 0.  0.
    9900012    2    3    3    0    0  0.30880554753E+02  0.13192662414E+01 -0.32768338206E+02  0.46142321916E+02  0.10000037885E+02 0.  0.
         12    1    3    3    0    0 -0.30880554753E+02 -0.13192662414E+01  0.32768338206E+02  0.45045678084E+02  0.00000000000E+00 0. -1.
         11    1    4    4    0    0  0.17406507274E+02 -0.14906998785E+01 -0.22502155307E+02  0.28487816261E+02  0.51100000000E-03 0. -1.
        -11    1    4    4    0    0  0.88863357682E+01  0.20772732050E+00 -0.49876238142E+01  0.10192472987E+02  0.51100000000E-03 0.  1.
         12    1    4    4    0    0  0.45877117110E+01  0.26022387994E+01 -0.52785590849E+01  0.74620326671E+01  0.00000000000E+00 0. -1.
</event>
<event>
 8    1  0.2882335E-009  0.9118800E+02  0.7816164E-02  0.1184000E+00
        -11   -1    0    0    0    0  0.00000000000E+00  0.00000000000E+00  0.45593999997E+02  0.45594000000E+02  0.51100000000E-03 0.  1.
         11   -1    0    0    0    0 -0.00000000000E+00 -0.00000000000E+00 -0.45593999997E+02  0.45594000000E+02  0.51100000000E-03 0. -1.
         23    2    1    2    0    0  0.00000000000E+00 -0.17763568394E-14  0.17763568394E-14  0.91188000000E+02  0.91188000000E+02 0.  0.
    9900012    2    3    3    0    0  0.41965033359E+02  0.93802277157E+01 -0.13418669569E+02  0.46142318855E+02  0.10000009972E+02 0.  0.
        -12    1    3    3    0    0 -0.41965033359E+02 -0.93802277157E+01  0.13418669569E+02  0.45045681145E+02  0.00000000000E+00 0.  1.
         11    1    4    4    0    0  0.41631768833E+02  0.86863606172E+01 -0.12671674807E+02  0.44375988773E+02  0.51100000000E-03 0. -1.
        -11    1    4    4    0    0  0.61741004911E+00  0.91027565038E+00 -0.85505768188E+00  0.13931693468E+01  0.51100000000E-03 0.  1.
         12    1    4    4    0    0 -0.28414552249E+00 -0.21640855190E+00  0.10806291992E+00  0.37316073474E+00  0.00000000000E+00 0. -1.
</event>
<event>
 8    1  0.2882335E-009  0.9118800E+02  0.7816164E-02  0.1184000E+00
        -11   -1    0    0    0    0  0.00000000000E+00  0.00000000000E+00  0.45593999997E+02  0.45594000000E+02  0.51100000000E-03 0. -1.
         11   -1    0    0    0    0 -0.00000000000E+00 -0.00000000000E+00 -0.45593999997E+02  0.45594000000E+02  0.51100000000E-03 0.  1.
         23    2    1    2    0    0  0.35527136788E-14 -0.22204460493E-15  0.00000000000E+00  0.91188000000E+02  0.91188000000E+02 0.  0.
    9900012    2    3    3    0    0 -0.25345591388E+02 -0.16752662861E+01 -0.37200907239E+02  0.46142322967E+02  0.10000047474E+02 0.  0.
         12    1    3    3    0    0  0.25345591388E+02  0.16752662861E+01  0.37200907239E+02  0.45045677033E+02  0.00000000000E+00 0. -1.
         11    1    4    4    0    0 -0.32462431313E+01  0.27465019963E+00 -0.17897273879E+01  0.37170756764E+01  0.51100000000E-03 0. -1.
        -11    1    4    4    0    0 -0.64255511478E+01  0.26659243767E+01 -0.91185920513E+01  0.11469245032E+02  0.51100000000E-03 0.  1.
        -12    1    4    4    0    0 -0.15673797109E+02 -0.46158408624E+01 -0.26292587800E+02  0.30956002259E+02  0.00000000000E+00 0.  1.
</event>
<event>
 8    1  0.2882335E-009  0.9118800E+02  0.7816164E-02  0.1184000E+00
        -11   -1    0    0    0    0  0.00000000000E+00  0.00000000000E+00  0.45593999997E+02  0.45594000000E+02  0.51100000000E-03 0. -1.
         11   -1    0    0    0    0 -0.00000000000E+00 -0.00000000000E+00 -0.45593999997E+02  0.45594000000E+02  0.51100000000E-03 0.  1.
         23    2    1    2    0    0  0.00000000000E+00  0.17763568394E-14 -0.71054273576E-14  0.91188000000E+02  0.91188000000E+02 0.  0.
    9900012    2    3    3    0    0  0.27506069240E+02 -0.15440230139E+02  0.32157874980E+02  0.46142317909E+02  0.10000001348E+02 0.  0.
        -12    1    3    3    0    0 -0.27506069240E+02  0.15440230139E+02 -0.32157874980E+02  0.45045682091E+02  0.00000000000E+00 0.  1.
         11    1    4    4    0    0  0.15537819130E+02 -0.49796262764E+01  0.13494446408E+02  0.21173582250E+02  0.51100000000E-03 0. -1.
        -11    1    4    4    0    0  0.90101999597E+01 -0.97398412924E+01  0.13210361479E+02  0.18723297316E+02  0.51100000000E-03 0.  1.
        -12    1    4    4    0    0  0.29580501508E+01 -0.72076257060E+00  0.54530670929E+01  0.62454383431E+01  0.00000000000E+00 0.  1.
</event>
<event>
 8    1  0.2882335E-009  0.9118800E+02  0.7816164E-02  0.1184000E+00
        -11   -1    0    0    0    0  0.00000000000E+00  0.00000000000E+00  0.45593999997E+02  0.45594000000E+02  0.51100000000E-03 0. -1.
         11   -1    0    0    0    0 -0.00000000000E+00 -0.00000000000E+00 -0.45593999997E+02  0.45594000000E+02  0.51100000000E-03 0.  1.
         23    2    1    2    0    0  0.00000000000E+00 -0.35527136788E-14  0.35527136788E-14  0.91188000000E+02  0.91188000000E+02 0.  0.
    9900012    2    3    3    0    0 -0.26751724327E+02  0.23463262167E+02 -0.27621260385E+02  0.46142318174E+02  0.10000003761E+02 0.  0.
         12    1    3    3    0    0  0.26751724327E+02 -0.23463262167E+02  0.27621260385E+02  0.45045681826E+02  0.00000000000E+00 0. -1.
         11    1    4    4    0    0 -0.25060185098E+01  0.56228673464E+01 -0.62329383734E+01  0.87604958190E+01  0.51100000000E-03 0. -1.
        -11    1    4    4    0    0 -0.16439546945E+02  0.11722001136E+02 -0.17532535973E+02  0.26740490502E+02  0.51100000000E-03 0.  1.
         12    1    4    4    0    0 -0.78061588727E+01  0.61183936847E+01 -0.38557860379E+01  0.10641331853E+02  0.00000000000E+00 0. -1.
</event>
<event>
 8    1  0.2882335E-009  0.9118800E+02  0.7816164E-02  0.1184000E+00
        -11   -1    0    0    0    0  0.00000000000E+00  0.00000000000E+00  0.45593999997E+02  0.45594000000E+02  0.51100000000E-03 0. -1.
         11   -1    0    0    0    0 -0.00000000000E+00 -0.00000000000E+00 -0.45593999997E+02  0.45594000000E+02  0.51100000000E-03 0.  1.
         23    2    1    2    0    0  0.00000000000E+00 -0.44408920985E-15  0.00000000000E+00  0.91188000000E+02  0.91188000000E+02 0.  0.
    9900012    2    3    3    0    0  0.37735866410E+02  0.26055388753E+01 -0.24460777798E+02  0.46142311005E+02  0.99999383921E+01 0.  0.
         12    1    3    3    0    0 -0.37735866410E+02 -0.26055388753E+01  0.24460777798E+02  0.45045688995E+02  0.00000000000E+00 0. -1.
         11    1    4    4    0    0  0.61767599960E+01 -0.10836581031E+01 -0.44610678968E+01  0.76959603672E+01  0.51100000000E-03 0.  1.
        -11    1    4    4    0    0  0.78865980304E+01 -0.26643837397E+01 -0.51160530240E+01  0.97709450930E+01  0.51100000000E-03 0. -1.
        -12    1    4    4    0    0  0.23672508384E+02  0.63535807181E+01 -0.14883656878E+02  0.28675405545E+02  0.00000000000E+00 0.  1.
</event>
<event>
 8    1  0.2882335E-009  0.9118800E+02  0.7816164E-02  0.1184000E+00
        -11   -1    0    0    0    0  0.00000000000E+00  0.00000000000E+00  0.45593999997E+02  0.45594000000E+02  0.51100000000E-03 0. -1.
         11   -1    0    0    0    0 -0.00000000000E+00 -0.00000000000E+00 -0.45593999997E+02  0.45594000000E+02  0.51100000000E-03 0.  1.
         23    2    1    2    0    0  0.88817841970E-15  0.00000000000E+00  0.71054273576E-14  0.91188000000E+02  0.91188000000E+02 0.  0.
    9900012    2    3    3    0    0  0.75805610961E+01 -0.33817112959E+01  0.44274287765E+02  0.46142318354E+02  0.10000005406E+02 0.  0.
        -12    1    3    3    0    0 -0.75805610961E+01  0.33817112959E+01 -0.44274287765E+02  0.45045681646E+02  0.00000000000E+00 0.  1.
         11    1    4    4    0    0  0.12202911723E+01 -0.42500846317E+01  0.23895055644E+02  0.24300741026E+02  0.51100000000E-03 0. -1.
        -11    1    4    4    0    0  0.57839272931E+01  0.52323560216E+00  0.11005629614E+02  0.12443933216E+02  0.51100000000E-03 0.  1.
        -12    1    4    4    0    0  0.57634263066E+00  0.34513773364E+00  0.93736025079E+01  0.93976441122E+01  0.00000000000E+00 0.  1.
</event>
<event>
 8    1  0.2882335E-009  0.9118800E+02  0.7816164E-02  0.1184000E+00
        -11   -1    0    0    0    0  0.00000000000E+00  0.00000000000E+00  0.45593999997E+02  0.45594000000E+02  0.51100000000E-03 0. -1.
         11   -1    0    0    0    0 -0.00000000000E+00 -0.00000000000E+00 -0.45593999997E+02  0.45594000000E+02  0.51100000000E-03 0.  1.
         23    2    1    2    0    0  0.00000000000E+00 -0.22204460493E-15 -0.71054273576E-14  0.91188000000E+02  0.91188000000E+02 0.  0.
    9900012    2    3    3    0    0 -0.32016999123E+01  0.18444805700E+01 -0.44893879963E+02  0.46142318198E+02  0.10000003984E+02 0.  0.
         12    1    3    3    0    0  0.32016999123E+01 -0.18444805700E+01  0.44893879963E+02  0.45045681802E+02  0.00000000000E+00 0. -1.
         11    1    4    4    0    0 -0.18643613891E+01  0.49358236672E+01 -0.31815592514E+02  0.32250118232E+02  0.51100000000E-03 0. -1.
        -11    1    4    4    0    0 -0.54136755352E-01 -0.33642497663E+01 -0.97785324760E+01  0.10341218735E+02  0.51100000000E-03 0.  1.
         12    1    4    4    0    0 -0.12832017679E+01  0.27290666907E+00 -0.32997549724E+01  0.35509812312E+01  0.00000000000E+00 0. -1.
</event>
<event>
 8    1  0.2882335E-009  0.9118800E+02  0.7816164E-02  0.1184000E+00
        -11   -1    0    0    0    0  0.00000000000E+00  0.00000000000E+00  0.45593999997E+02  0.45594000000E+02  0.51100000000E-03 0. -1.
         11   -1    0    0    0    0 -0.00000000000E+00 -0.00000000000E+00 -0.45593999997E+02  0.45594000000E+02  0.51100000000E-03 0.  1.
         23    2    1    2    0    0  0.00000000000E+00  0.35527136788E-14  0.35527136788E-14  0.91188000000E+02  0.91188000000E+02 0.  0.
    9900012    2    3    3    0    0 -0.33405265699E+02 -0.19825770294E+02 -0.22806588591E+02  0.46142318439E+02  0.10000006177E+02 0.  0.
         12    1    3    3    0    0  0.33405265699E+02  0.19825770294E+02  0.22806588591E+02  0.45045681561E+02  0.00000000000E+00 0. -1.
         11    1    4    4    0    0 -0.14044330186E+01 -0.72838274039E-01 -0.35681449426E+01  0.38352830548E+01  0.51100000000E-03 0. -1.
        -11    1    4    4    0    0 -0.24397717585E+02 -0.14388015120E+02 -0.15410244676E+02  0.32244987885E+02  0.51100000000E-03 0.  1.
         12    1    4    4    0    0 -0.76031150953E+01 -0.53649169002E+01 -0.38281989718E+01  0.10062047499E+02  0.00000000000E+00 0. -1.
</event>
<event>
 8    1  0.2882335E-009  0.9118800E+02  0.7816164E-02  0.1184000E+00
        -11   -1    0    0    0    0  0.00000000000E+00  0.00000000000E+00  0.45593999997E+02  0.45594000000E+02  0.51100000000E-03 0. -1.
         11   -1    0    0    0    0 -0.00000000000E+00 -0.00000000000E+00 -0.45593999997E+02  0.45594000000E+02  0.51100000000E-03 0.  1.
         23    2    1    2    0    0  0.00000000000E+00  0.00000000000E+00  0.00000000000E+00  0.91188000000E+02  0.91188000000E+02 0.  0.
    9900012    2    3    3    0    0 -0.23834456565E+02  0.16480750494E+02 -0.34487926200E+02  0.46142317520E+02  0.99999977976E+01 0.  0.
         12    1    3    3    0    0  0.23834456565E+02 -0.16480750494E+02  0.34487926200E+02  0.45045682480E+02  0.00000000000E+00 0. -1.
         11    1    4    4    0    0 -0.47947268865E+01  0.33192478004E+01 -0.27960131843E+01  0.64671865494E+01  0.51100000000E-03 0. -1.
        -11    1    4    4    0    0 -0.15864620188E+02  0.13007027576E+02 -0.28919703150E+02  0.35457272465E+02  0.51100000000E-03 0.  1.
         12    1    4    4    0    0 -0.31751094903E+01  0.15447511749E+00 -0.27722098651E+01  0.42178585056E+01  0.00000000000E+00 0. -1.
</event>
<event>
 8    1  0.2882335E-009  0.9118800E+02  0.7816164E-02  0.1184000E+00
        -11   -1    0    0    0    0  0.00000000000E+00  0.00000000000E+00  0.45593999997E+02  0.45594000000E+02  0.51100000000E-03 0. -1.
         11   -1    0    0    0    0 -0.00000000000E+00 -0.00000000000E+00 -0.45593999997E+02  0.45594000000E+02  0.51100000000E-03 0.  1.
         23    2    1    2    0    0  0.88817841970E-15  0.00000000000E+00 -0.71054273576E-14  0.91188000000E+02  0.91188000000E+02 0.  0.
    9900012    2    3    3    0    0 -0.72404041497E+01  0.26707943493E+02  0.35543997778E+02  0.46142317899E+02  0.10000001261E+02 0.  0.
        -12    1    3    3    0    0  0.72404041497E+01 -0.26707943493E+02 -0.35543997778E+02  0.45045682101E+02  0.00000000000E+00 0.  1.
         11    1    4    4    0    0 -0.23470766744E+01  0.92984994219E+01  0.97200719288E+01  0.13654693661E+02  0.51100000000E-03 0. -1.
        -11    1    4    4    0    0 -0.46131985541E+01  0.58971778021E+01  0.61410260579E+01  0.96835173483E+01  0.51100000000E-03 0.  1.
        -12    1    4    4    0    0 -0.28012892120E+00  0.11512266269E+02  0.19682899791E+02  0.22804106890E+02  0.00000000000E+00 0.  1.
</event>
<event>
 8    1  0.2882335E-009  0.9118800E+02  0.7816164E-02  0.1184000E+00
        -11   -1    0    0    0    0  0.00000000000E+00  0.00000000000E+00  0.45593999997E+02  0.45594000000E+02  0.51100000000E-03 0. -1.
         11   -1    0    0    0    0 -0.00000000000E+00 -0.00000000000E+00 -0.45593999997E+02  0.45594000000E+02  0.51100000000E-03 0.  1.
         23    2    1    2    0    0  0.00000000000E+00  0.69388939039E-16  0.00000000000E+00  0.91188000000E+02  0.91188000000E+02 0.  0.
    9900012    2    3    3    0    0 -0.26850983266E+02  0.10788076862E+00 -0.36168032206E+02  0.46142317696E+02  0.99999994050E+01 0.  0.
         12    1    3    3    0    0  0.26850983266E+02 -0.10788076862E+00  0.36168032206E+02  0.45045682304E+02  0.00000000000E+00 0. -1.
         11    1    4    4    0    0 -0.15004757755E+02 -0.14480536553E+01 -0.13598203370E+02  0.20301496246E+02  0.51100000000E-03 0.  1.
        -11    1    4    4    0    0 -0.47947385695E+00 -0.80059262061E+00 -0.11843793735E+01  0.15078456437E+01  0.51100000000E-03 0. -1.
         12    1    4    4    0    0 -0.11366751654E+02  0.23565270445E+01 -0.21385449463E+02  0.24332975806E+02  0.00000000000E+00 0. -1.
</event>
<event>
 8    1  0.2882335E-009  0.9118800E+02  0.7816164E-02  0.1184000E+00
        -11   -1    0    0    0    0  0.00000000000E+00  0.00000000000E+00  0.45593999997E+02  0.45594000000E+02  0.51100000000E-03 0.  1.
         11   -1    0    0    0    0 -0.00000000000E+00 -0.00000000000E+00 -0.45593999997E+02  0.45594000000E+02  0.51100000000E-03 0. -1.
         23    2    1    2    0    0  0.00000000000E+00  0.00000000000E+00  0.00000000000E+00  0.91188000000E+02  0.91188000000E+02 0.  0.
    9900012    2    3    3    0    0 -0.42467699128E+02  0.10433324692E+02  0.10805265366E+02  0.46142317710E+02  0.99999995358E+01 0.  0.
        -12    1    3    3    0    0  0.42467699128E+02 -0.10433324692E+02 -0.10805265366E+02  0.45045682290E+02  0.00000000000E+00 0.  1.
         11    1    4    4    0    0 -0.13940975979E+02  0.29905435065E+01  0.53169835219E+00  0.14268036484E+02  0.51100000000E-03 0. -1.
        -11    1    4    4    0    0 -0.11106613985E+02  0.53869640876E+01  0.20960475825E+01  0.12520769626E+02  0.51100000000E-03 0.  1.
        -12    1    4    4    0    0 -0.17420109163E+02  0.20558170979E+01  0.81775194318E+01  0.19353511600E+02  0.00000000000E+00 0.  1.
</event>
<event>
 8    1  0.2882335E-009  0.9118800E+02  0.7816164E-02  0.1184000E+00
        -11   -1    0    0    0    0  0.00000000000E+00  0.00000000000E+00  0.45593999997E+02  0.45594000000E+02  0.51100000000E-03 0. -1.
         11   -1    0    0    0    0 -0.00000000000E+00 -0.00000000000E+00 -0.45593999997E+02  0.45594000000E+02  0.51100000000E-03 0.  1.
         23    2    1    2    0    0  0.35527136788E-14  0.35527136788E-14  0.00000000000E+00  0.91188000000E+02  0.91188000000E+02 0.  0.
    9900012    2    3    3    0    0 -0.29995009847E+02  0.20301195073E+02  0.26781979674E+02  0.46142316829E+02  0.99999914982E+01 0.  0.
        -12    1    3    3    0    0  0.29995009847E+02 -0.20301195073E+02 -0.26781979674E+02  0.45045683171E+02  0.00000000000E+00 0.  1.
         11    1    4    4    0    0 -0.61941282159E+01  0.22826541578E+01  0.33926056792E+01  0.74220959246E+01  0.51100000000E-03 0. -1.
        -11    1    4    4    0    0 -0.24312787458E+02  0.17714147043E+02  0.23420590467E+02  0.38123833720E+02  0.51100000000E-03 0.  1.
        -12    1    4    4    0    0  0.51190582709E+00  0.30439387159E+00 -0.31216471988E-01  0.59638718380E+00  0.00000000000E+00 0.  1.
</event>
<event>
 8    1  0.2882335E-009  0.9118800E+02  0.7816164E-02  0.1184000E+00
        -11   -1    0    0    0    0  0.00000000000E+00  0.00000000000E+00  0.45593999997E+02  0.45594000000E+02  0.51100000000E-03 0. -1.
         11   -1    0    0    0    0 -0.00000000000E+00 -0.00000000000E+00 -0.45593999997E+02  0.45594000000E+02  0.51100000000E-03 0.  1.
         23    2    1    2    0    0  0.00000000000E+00  0.00000000000E+00  0.00000000000E+00  0.91188000000E+02  0.91188000000E+02 0.  0.
    9900012    2    3    3    0    0 -0.98452200275E+01 -0.21371271245E+02  0.38411632811E+02  0.46142321770E+02  0.10000036555E+02 0.  0.
        -12    1    3    3    0    0  0.98452200275E+01  0.21371271245E+02 -0.38411632811E+02  0.45045678230E+02  0.00000000000E+00 0.  1.
         11    1    4    4    0    0 -0.64259801078E+01 -0.79951340825E+01  0.13975565756E+02  0.17335853824E+02  0.51100000000E-03 0. -1.
        -11    1    4    4    0    0 -0.80953245531E+00 -0.77620308779E+01  0.19101270878E+02  0.20634025675E+02  0.51100000000E-03 0.  1.
         12    1    4    4    0    0 -0.26097074644E+01 -0.56141062846E+01  0.53347961774E+01  0.81724422714E+01  0.00000000000E+00 0. -1.
</event>
<event>
 8    1  0.2882335E-009  0.9118800E+02  0.7816164E-02  0.1184000E+00
        -11   -1    0    0    0    0  0.00000000000E+00  0.00000000000E+00  0.45593999997E+02  0.45594000000E+02  0.51100000000E-03 0. -1.
         11   -1    0    0    0    0 -0.00000000000E+00 -0.00000000000E+00 -0.45593999997E+02  0.45594000000E+02  0.51100000000E-03 0.  1.
         23    2    1    2    0    0  0.00000000000E+00  0.00000000000E+00  0.00000000000E+00  0.91188000000E+02  0.91188000000E+02 0.  0.
    9900012    2    3    3    0    0 -0.42209832243E+02  0.47709719901E+01 -0.14989374141E+02  0.46142318199E+02  0.10000003996E+02 0.  0.
         12    1    3    3    0    0  0.42209832243E+02 -0.47709719901E+01  0.14989374141E+02  0.45045681801E+02  0.00000000000E+00 0. -1.
         11    1    4    4    0    0 -0.24879292852E+02  0.19125463630E+01 -0.98947374922E+01  0.26842929734E+02  0.51100000000E-03 0. -1.
        -11    1    4    4    0    0 -0.17664566461E+02  0.32307608344E+01 -0.53502418118E+01  0.18737657578E+02  0.51100000000E-03 0.  1.
         12    1    4    4    0    0  0.33402706964E+00 -0.37233520724E+00  0.25560516296E+00  0.56173088675E+00  0.00000000000E+00 0. -1.
</event>
<event>
 8    1  0.2882335E-009  0.9118800E+02  0.7816164E-02  0.1184000E+00
        -11   -1    0    0    0    0  0.00000000000E+00  0.00000000000E+00  0.45593999997E+02  0.45594000000E+02  0.51100000000E-03 0. -1.
         11   -1    0    0    0    0 -0.00000000000E+00 -0.00000000000E+00 -0.45593999997E+02  0.45594000000E+02  0.51100000000E-03 0.  1.
         23    2    1    2    0    0  0.00000000000E+00 -0.17763568394E-14  0.00000000000E+00  0.91188000000E+02  0.91188000000E+02 0.  0.
    9900012    2    3    3    0    0 -0.31896955209E+02  0.15885653136E+02  0.27556192934E+02  0.46142317674E+02  0.99999992101E+01 0.  0.
        -12    1    3    3    0    0  0.31896955209E+02 -0.15885653136E+02 -0.27556192934E+02  0.45045682326E+02  0.00000000000E+00 0.  1.
         11    1    4    4    0    0 -0.20258270235E+02  0.11817919569E+02  0.22657059135E+02  0.32609861465E+02  0.51100000000E-03 0. -1.
        -11    1    4    4    0    0 -0.72859901677E+01  0.13952840129E+01  0.36816241099E+01  0.82817164011E+01  0.51100000000E-03 0.  1.
        -12    1    4    4    0    0 -0.43526948058E+01  0.26724495541E+01  0.12175096894E+01  0.52507398084E+01  0.00000000000E+00 0.  1.
</event>
<event>
 8    1  0.2882335E-009  0.9118800E+02  0.7816164E-02  0.1184000E+00
        -11   -1    0    0    0    0  0.00000000000E+00  0.00000000000E+00  0.45593999997E+02  0.45594000000E+02  0.51100000000E-03 0. -1.
         11   -1    0    0    0    0 -0.00000000000E+00 -0.00000000000E+00 -0.45593999997E+02  0.45594000000E+02  0.51100000000E-03 0.  1.
         23    2    1    2    0    0  0.00000000000E+00  0.17763568394E-14 -0.71054273576E-14  0.91188000000E+02  0.91188000000E+02 0.  0.
    9900012    2    3    3    0    0  0.38504940291E+01 -0.12959865808E+02  0.42968930647E+02  0.46142318442E+02  0.10000006209E+02 0.  0.
        -12    1    3    3    0    0 -0.38504940291E+01  0.12959865808E+02 -0.42968930647E+02  0.45045681558E+02  0.00000000000E+00 0.  1.
         11    1    4    4    0    0  0.20122508494E+01 -0.72835010693E+01  0.11610598833E+02  0.13852961663E+02  0.51100000000E-03 0. -1.
        -11    1    4    4    0    0  0.62969356257E-01 -0.51174694805E+01  0.27865680745E+02  0.28331759964E+02  0.51100000000E-03 0.  1.
        -12    1    4    4    0    0  0.17752738235E+01 -0.55889525834E+00  0.34926510694E+01  0.39575968151E+01  0.00000000000E+00 0.  1.
</event>
<event>
 8    1  0.2882335E-009  0.9118800E+02  0.7816164E-02  0.1184000E+00
        -11   -1    0    0    0    0  0.00000000000E+00  0.00000000000E+00  0.45593999997E+02  0.45594000000E+02  0.51100000000E-03 0. -1.
         11   -1    0    0    0    0 -0.00000000000E+00 -0.00000000000E+00 -0.45593999997E+02  0.45594000000E+02  0.51100000000E-03 0.  1.
         23    2    1    2    0    0  0.00000000000E+00  0.00000000000E+00  0.00000000000E+00  0.91188000000E+02  0.91188000000E+02 0.  0.
    9900012    2    3    3    0    0 -0.12741562493E+02 -0.60756487372E+01 -0.42776776299E+02  0.46142317489E+02  0.99999975191E+01 0.  0.
         12    1    3    3    0    0  0.12741562493E+02  0.60756487372E+01  0.42776776299E+02  0.45045682511E+02  0.00000000000E+00 0. -1.
         11    1    4    4    0    0 -0.27016732967E+01 -0.34058000602E+01 -0.11416291107E+02  0.12215981972E+02  0.51100000000E-03 0. -1.
        -11    1    4    4    0    0  0.28596020359E+00 -0.20543997363E+01 -0.23903523238E+01  0.31648247989E+01  0.51100000000E-03 0.  1.
        -12    1    4    4    0    0 -0.10325849400E+02 -0.61544894063E+00 -0.28970132869E+02  0.30761510718E+02  0.00000000000E+00 0.  1.
</event>
<event>
 8    1  0.2882335E-009  0.9118800E+02  0.7816164E-02  0.1184000E+00
        -11   -1    0    0    0    0  0.00000000000E+00  0.00000000000E+00  0.45593999997E+02  0.45594000000E+02  0.51100000000E-03 0. -1.
         11   -1    0    0    0    0 -0.00000000000E+00 -0.00000000000E+00 -0.45593999997E+02  0.45594000000E+02  0.51100000000E-03 0.  1.
         23    2    1    2    0    0  0.00000000000E+00  0.00000000000E+00  0.00000000000E+00  0.91188000000E+02  0.91188000000E+02 0.  0.
    9900012    2    3    3    0    0  0.25204479189E+01  0.31597513753E+02 -0.32005592532E+02  0.46142317783E+02  0.10000000197E+02 0.  0.
         12    1    3    3    0    0 -0.25204479189E+01 -0.31597513753E+02  0.32005592532E+02  0.45045682217E+02  0.00000000000E+00 0. -1.
         11    1    4    4    0    0  0.20009283941E+01  0.39990118351E+01 -0.21420529110E+01  0.49582457614E+01  0.51100000000E-03 0. -1.
        -11    1    4    4    0    0 -0.12455323267E+01  0.94598107324E+01 -0.14448098118E+02  0.17314355586E+02  0.51100000000E-03 0.  1.
        -12    1    4    4    0    0  0.17650518515E+01  0.18138691185E+02 -0.15415441503E+02  0.23869716435E+02  0.00000000000E+00 0.  1.
</event>
<event>
 8    1  0.3318045E-009  0.9118800E+02  0.7816164E-02  0.1184000E+00
        -11   -1    0    0    0    0  0.00000000000E+00  0.00000000000E+00  0.45593999997E+02  0.45594000000E+02  0.51100000000E-03 0. -1.
         11   -1    0    0    0    0 -0.00000000000E+00 -0.00000000000E+00 -0.45593999997E+02  0.45594000000E+02  0.51100000000E-03 0.  1.
         23    2    1    2    0    0  0.00000000000E+00  0.00000000000E+00 -0.35527136788E-14  0.91188000000E+02  0.91188000000E+02 0.  0.
    9900012    2    3    3    0    0 -0.20884331232E+02  0.24891693211E+02 -0.31198747157E+02  0.46142317565E+02  0.99999982073E+01 0.  0.
         12    1    3    3    0    0  0.20884331232E+02 -0.24891693211E+02  0.31198747157E+02  0.45045682435E+02  0.00000000000E+00 0. -1.
         11    1    4    4    0    0 -0.22036758581E+01  0.62211631362E+01 -0.86437072449E+01  0.10875326811E+02  0.51100000000E-03 0. -1.
        -11    1    4    4    0    0 -0.17118363894E+02  0.17312224239E+02 -0.18045534630E+02  0.30304996467E+02  0.51100000000E-03 0.  1.
        -12    1    4    4    0    0 -0.15622914797E+01  0.13583058363E+01 -0.45095052819E+01  0.49619942866E+01  0.00000000000E+00 0.  1.
</event>
<event>
 8    1  0.2882335E-009  0.9118800E+02  0.7816164E-02  0.1184000E+00
        -11   -1    0    0    0    0  0.00000000000E+00  0.00000000000E+00  0.45593999997E+02  0.45594000000E+02  0.51100000000E-03 0.  1.
         11   -1    0    0    0    0 -0.00000000000E+00 -0.00000000000E+00 -0.45593999997E+02  0.45594000000E+02  0.51100000000E-03 0. -1.
         23    2    1    2    0    0  0.71054273576E-14  0.00000000000E+00  0.00000000000E+00  0.91188000000E+02  0.91188000000E+02 0.  0.
    9900012    2    3    3    0    0  0.37935951334E+02 -0.18561981852E+02 -0.15666198006E+02  0.46142319476E+02  0.10000015637E+02 0.  0.
         12    1    3    3    0    0 -0.37935951334E+02  0.18561981852E+02  0.15666198006E+02  0.45045680524E+02  0.00000000000E+00 0. -1.
         11    1    4    4    0    0  0.85265679358E+00 -0.29502243047E+01 -0.18177518680E+01  0.35686228675E+01  0.51100000000E-03 0. -1.
        -11    1    4    4    0    0  0.12296796233E+02 -0.45284679972E+01 -0.47384690624E+01  0.13934536566E+02  0.51100000000E-03 0.  1.
         12    1    4    4    0    0  0.24786498308E+02 -0.11083289550E+02 -0.91099770756E+01  0.28639160042E+02  0.00000000000E+00 0. -1.
</event>
<event>
 8    1  0.2882335E-009  0.9118800E+02  0.7816164E-02  0.1184000E+00
        -11   -1    0    0    0    0  0.00000000000E+00  0.00000000000E+00  0.45593999997E+02  0.45594000000E+02  0.51100000000E-03 0. -1.
         11   -1    0    0    0    0 -0.00000000000E+00 -0.00000000000E+00 -0.45593999997E+02  0.45594000000E+02  0.51100000000E-03 0.  1.
         23    2    1    2    0    0  0.00000000000E+00  0.00000000000E+00  0.71054273576E-14  0.91188000000E+02  0.91188000000E+02 0.  0.
    9900012    2    3    3    0    0  0.57711208306E+01 -0.98142817006E+01 -0.43583111439E+02  0.46142316925E+02  0.99999923774E+01 0.  0.
         12    1    3    3    0    0 -0.57711208306E+01  0.98142817006E+01  0.43583111439E+02  0.45045683075E+02  0.00000000000E+00 0. -1.
         11    1    4    4    0    0 -0.15601374335E+01 -0.61973875152E+00 -0.42712369726E+01  0.45892886670E+01  0.51100000000E-03 0. -1.
        -11    1    4    4    0    0 -0.21639425783E+00  0.84624959572E+00 -0.32841201681E+01  0.33982952186E+01  0.51100000000E-03 0.  1.
        -12    1    4    4    0    0  0.75476525219E+01 -0.10040792545E+02 -0.36027754299E+02  0.38154733040E+02  0.00000000000E+00 0.  1.
</event>
<event>
 8    1  0.2882335E-009  0.9118800E+02  0.7816164E-02  0.1184000E+00
        -11   -1    0    0    0    0  0.00000000000E+00  0.00000000000E+00  0.45593999997E+02  0.45594000000E+02  0.51100000000E-03 0. -1.
         11   -1    0    0    0    0 -0.00000000000E+00 -0.00000000000E+00 -0.45593999997E+02  0.45594000000E+02  0.51100000000E-03 0.  1.
         23    2    1    2    0    0  0.00000000000E+00  0.00000000000E+00  0.00000000000E+00  0.91188000000E+02  0.91188000000E+02 0.  0.
    9900012    2    3    3    0    0  0.24914426649E+02  0.22471696413E+02 -0.30056741384E+02  0.46142317659E+02  0.99999990733E+01 0.  0.
         12    1    3    3    0    0 -0.24914426649E+02 -0.22471696413E+02  0.30056741384E+02  0.45045682341E+02  0.00000000000E+00 0. -1.
         11    1    4    4    0    0  0.92594915885E+01  0.50793665064E+01 -0.94419936927E+01  0.14166488405E+02  0.51100000000E-03 0. -1.
        -11    1    4    4    0    0 -0.66404610500E+00  0.55369173663E+00 -0.20458504437E+00  0.88847457492E+00  0.51100000000E-03 0.  1.
        -12    1    4    4    0    0  0.16318981165E+02  0.16838638170E+02 -0.20410162647E+02  0.31087354679E+02  0.00000000000E+00 0.  1.
</event>
<event>
 8    1  0.2882335E-009  0.9118800E+02  0.7816164E-02  0.1184000E+00
        -11   -1    0    0    0    0  0.00000000000E+00  0.00000000000E+00  0.45593999997E+02  0.45594000000E+02  0.51100000000E-03 0. -1.
         11   -1    0    0    0    0 -0.00000000000E+00 -0.00000000000E+00 -0.45593999997E+02  0.45594000000E+02  0.51100000000E-03 0.  1.
         23    2    1    2    0    0 -0.35527136788E-14  0.17763568394E-14  0.00000000000E+00  0.91188000000E+02  0.91188000000E+02 0.  0.
    9900012    2    3    3    0    0 -0.16549764875E+02  0.14714363651E+02 -0.39226345773E+02  0.46142318545E+02  0.10000007148E+02 0.  0.
         12    1    3    3    0    0  0.16549764875E+02 -0.14714363651E+02  0.39226345773E+02  0.45045681455E+02  0.00000000000E+00 0. -1.
         11    1    4    4    0    0 -0.33973940911E+01  0.64259841480E+01 -0.19490572299E+02  0.20801874139E+02  0.51100000000E-03 0. -1.
        -11    1    4    4    0    0 -0.11233447236E+02  0.67025436165E+01 -0.18207499843E+02  0.22419354998E+02  0.51100000000E-03 0.  1.
        -12    1    4    4    0    0 -0.19189235479E+01  0.15858358861E+01 -0.15282736309E+01  0.29210894083E+01  0.00000000000E+00 0.  1.
</event>
<event>
 8    1  0.2882335E-009  0.9118800E+02  0.7816164E-02  0.1184000E+00
        -11   -1    0    0    0    0  0.00000000000E+00  0.00000000000E+00  0.45593999997E+02  0.45594000000E+02  0.51100000000E-03 0. -1.
         11   -1    0    0    0    0 -0.00000000000E+00 -0.00000000000E+00 -0.45593999997E+02  0.45594000000E+02  0.51100000000E-03 0.  1.
         23    2    1    2    0    0  0.00000000000E+00 -0.88817841970E-15  0.71054273576E-14  0.91188000000E+02  0.91188000000E+02 0.  0.
    9900012    2    3    3    0    0 -0.28858939627E+02  0.58026345723E+01 -0.34096986608E+02  0.46142318075E+02  0.10000002864E+02 0.  0.
         12    1    3    3    0    0  0.28858939627E+02 -0.58026345723E+01  0.34096986608E+02  0.45045681925E+02  0.00000000000E+00 0. -1.
         11    1    4    4    0    0 -0.74854952351E+01  0.15203086848E+01 -0.41275153264E+01  0.86821863861E+01  0.51100000000E-03 0. -1.
        -11    1    4    4    0    0 -0.21519504994E+02  0.46938567583E+01 -0.29200503971E+02  0.36575822874E+02  0.51100000000E-03 0.  1.
         12    1    4    4    0    0  0.14606060235E+00 -0.41153087076E+00 -0.76896731001E+00  0.88430881541E+00  0.00000000000E+00 0. -1.
</event>
<event>
 8    1  0.2882335E-009  0.9118800E+02  0.7816164E-02  0.1184000E+00
        -11   -1    0    0    0    0  0.00000000000E+00  0.00000000000E+00  0.45593999997E+02  0.45594000000E+02  0.51100000000E-03 0. -1.
         11   -1    0    0    0    0 -0.00000000000E+00 -0.00000000000E+00 -0.45593999997E+02  0.45594000000E+02  0.51100000000E-03 0.  1.
         23    2    1    2    0    0 -0.44408920985E-15  0.17763568394E-14  0.00000000000E+00  0.91188000000E+02  0.91188000000E+02 0.  0.
    9900012    2    3    3    0    0  0.13229774193E+01 -0.10361263281E+02  0.43817889781E+02  0.46142317511E+02  0.99999977210E+01 0.  0.
        -12    1    3    3    0    0 -0.13229774193E+01  0.10361263281E+02 -0.43817889781E+02  0.45045682489E+02  0.00000000000E+00 0.  1.
         11    1    4    4    0    0 -0.23090172659E+01 -0.32395873928E+01  0.19816298565E+02  0.20211684153E+02  0.51100000000E-03 0. -1.
        -11    1    4    4    0    0  0.43965562186E+01 -0.75240652928E+01  0.19673559982E+02  0.21517207713E+02  0.51100000000E-03 0.  1.
        -12    1    4    4    0    0 -0.76456153342E+00  0.40238940473E+00  0.43280312338E+01  0.44134256459E+01  0.00000000000E+00 0.  1.
</event>
<event>
 8    1  0.2882335E-009  0.9118800E+02  0.7816164E-02  0.1184000E+00
        -11   -1    0    0    0    0  0.00000000000E+00  0.00000000000E+00  0.45593999997E+02  0.45594000000E+02  0.51100000000E-03 0. -1.
         11   -1    0    0    0    0 -0.00000000000E+00 -0.00000000000E+00 -0.45593999997E+02  0.45594000000E+02  0.51100000000E-03 0.  1.
         23    2    1    2    0    0  0.00000000000E+00  0.35527136788E-14  0.00000000000E+00  0.91188000000E+02  0.91188000000E+02 0.  0.
    9900012    2    3    3    0    0 -0.15939628492E+02  0.21268773922E+02  0.36368681954E+02  0.46142317324E+02  0.99999960172E+01 0.  0.
        -12    1    3    3    0    0  0.15939628492E+02 -0.21268773922E+02 -0.36368681954E+02  0.45045682676E+02  0.00000000000E+00 0.  1.
         11    1    4    4    0    0 -0.13778169613E+02  0.11788444478E+02  0.25221417023E+02  0.31063246096E+02  0.51100000000E-03 0. -1.
        -11    1    4    4    0    0  0.78186487714E-01  0.47512465402E+01  0.66870465429E+01  0.82034778320E+01  0.51100000000E-03 0.  1.
         12    1    4    4    0    0 -0.22396453673E+01  0.47290829042E+01  0.44602183882E+01  0.68755933967E+01  0.00000000000E+00 0. -1.
</event>
<event>
 8    1  0.2882335E-009  0.9118800E+02  0.7816164E-02  0.1184000E+00
        -11   -1    0    0    0    0  0.00000000000E+00  0.00000000000E+00  0.45593999997E+02  0.45594000000E+02  0.51100000000E-03 0. -1.
         11   -1    0    0    0    0 -0.00000000000E+00 -0.00000000000E+00 -0.45593999997E+02  0.45594000000E+02  0.51100000000E-03 0.  1.
         23    2    1    2    0    0  0.00000000000E+00  0.88817841970E-15  0.00000000000E+00  0.91188000000E+02  0.91188000000E+02 0.  0.
    9900012    2    3    3    0    0  0.42526577585E+02  0.57770074167E+01  0.13683176567E+02  0.46142323884E+02  0.10000055836E+02 0.  0.
        -12    1    3    3    0    0 -0.42526577585E+02 -0.57770074167E+01 -0.13683176567E+02  0.45045676116E+02  0.00000000000E+00 0.  1.
         11    1    4    4    0    0  0.97469773035E+01  0.51913244817E+01  0.40721307678E+01  0.11770117488E+02  0.51100000000E-03 0. -1.
        -11    1    4    4    0    0  0.26813019641E+02  0.17103930173E+01  0.70105880369E+01  0.27767099442E+02  0.51100000000E-03 0.  1.
         12    1    4    4    0    0  0.59665806400E+01 -0.11247100823E+01  0.26004577620E+01  0.66051069540E+01  0.00000000000E+00 0. -1.
</event>
<event>
 8    1  0.2882335E-009  0.9118800E+02  0.7816164E-02  0.1184000E+00
        -11   -1    0    0    0    0  0.00000000000E+00  0.00000000000E+00  0.45593999997E+02  0.45594000000E+02  0.51100000000E-03 0. -1.
         11   -1    0    0    0    0 -0.00000000000E+00 -0.00000000000E+00 -0.45593999997E+02  0.45594000000E+02  0.51100000000E-03 0.  1.
         23    2    1    2    0    0 -0.71054273576E-14  0.00000000000E+00 -0.44408920985E-15  0.91188000000E+02  0.91188000000E+02 0.  0.
    9900012    2    3    3    0    0  0.44454815506E+02  0.67110087573E+01  0.28009848115E+01  0.46142314567E+02  0.99999708776E+01 0.  0.
         12    1    3    3    0    0 -0.44454815506E+02 -0.67110087573E+01 -0.28009848115E+01  0.45045685433E+02  0.00000000000E+00 0. -1.
         11    1    4    4    0    0  0.29227930145E+01  0.37751651588E+00  0.63980817588E+00  0.30157242062E+01  0.51100000000E-03 0. -1.
        -11    1    4    4    0    0  0.23569017049E+02  0.57205990234E+01 -0.29713587235E+01  0.24434663713E+02  0.51100000000E-03 0.  1.
        -12    1    4    4    0    0  0.17963005442E+02  0.61289321807E+00  0.51325353591E+01  0.18691926648E+02  0.00000000000E+00 0.  1.
</event>
<event>
 8    1  0.2882335E-009  0.9118800E+02  0.7816164E-02  0.1184000E+00
        -11   -1    0    0    0    0  0.00000000000E+00  0.00000000000E+00  0.45593999997E+02  0.45594000000E+02  0.51100000000E-03 0. -1.
         11   -1    0    0    0    0 -0.00000000000E+00 -0.00000000000E+00 -0.45593999997E+02  0.45594000000E+02  0.51100000000E-03 0.  1.
         23    2    1    2    0    0  0.00000000000E+00  0.35527136788E-14  0.35527136788E-14  0.91188000000E+02  0.91188000000E+02 0.  0.
    9900012    2    3    3    0    0 -0.11310993283E+02  0.30722397634E+02  0.30940412599E+02  0.46142318551E+02  0.10000007199E+02 0.  0.
        -12    1    3    3    0    0  0.11310993283E+02 -0.30722397634E+02 -0.30940412599E+02  0.45045681449E+02  0.00000000000E+00 0.  1.
         11    1    4    4    0    0 -0.31456605705E+01  0.23508451944E+01  0.11752659083E+01  0.40991345146E+01  0.51100000000E-03 0. -1.
        -11    1    4    4    0    0 -0.28855761770E+01  0.61259573221E+01  0.79338859545E+01  0.10430745399E+02  0.51100000000E-03 0.  1.
         12    1    4    4    0    0 -0.52797565354E+01  0.22245595118E+02  0.21831260737E+02  0.31612438637E+02  0.00000000000E+00 0. -1.
</event>
<event>
 8    1  0.2882335E-009  0.9118800E+02  0.7816164E-02  0.1184000E+00
        -11   -1    0    0    0    0  0.00000000000E+00  0.00000000000E+00  0.45593999997E+02  0.45594000000E+02  0.51100000000E-03 0. -1.
         11   -1    0    0    0    0 -0.00000000000E+00 -0.00000000000E+00 -0.45593999997E+02  0.45594000000E+02  0.51100000000E-03 0.  1.
         23    2    1    2    0    0  0.35527136788E-14  0.00000000000E+00  0.00000000000E+00  0.91188000000E+02  0.91188000000E+02 0.  0.
    9900012    2    3    3    0    0  0.17956225697E+02  0.38578857741E+02  0.14776981904E+02  0.46142317631E+02  0.99999988160E+01 0.  0.
        -12    1    3    3    0    0 -0.17956225697E+02 -0.38578857741E+02 -0.14776981904E+02  0.45045682369E+02  0.00000000000E+00 0.  1.
         11    1    4    4    0    0  0.12648249074E+02  0.23410794121E+02  0.55304575608E+01  0.27177738079E+02  0.51100000000E-03 0. -1.
        -11    1    4    4    0    0  0.41715919870E+01  0.10902806001E+02  0.86089268785E+01  0.14504722702E+02  0.51100000000E-03 0.  1.
        -12    1    4    4    0    0  0.11363846363E+01  0.42652576187E+01  0.63759746501E+00  0.44598568500E+01  0.00000000000E+00 0.  1.
</event>
<event>
 8    1  0.2882335E-009  0.9118800E+02  0.7816164E-02  0.1184000E+00
        -11   -1    0    0    0    0  0.00000000000E+00  0.00000000000E+00  0.45593999997E+02  0.45594000000E+02  0.51100000000E-03 0. -1.
         11   -1    0    0    0    0 -0.00000000000E+00 -0.00000000000E+00 -0.45593999997E+02  0.45594000000E+02  0.51100000000E-03 0.  1.
         23    2    1    2    0    0  0.11102230246E-15  0.00000000000E+00  0.00000000000E+00  0.91188000000E+02  0.91188000000E+02 0.  0.
    9900012    2    3    3    0    0 -0.77834882621E+00  0.21174328245E+02  0.39751169819E+02  0.46142317571E+02  0.99999982692E+01 0.  0.
        -12    1    3    3    0    0  0.77834882621E+00 -0.21174328245E+02 -0.39751169819E+02  0.45045682429E+02  0.00000000000E+00 0.  1.
         11    1    4    4    0    0 -0.37788547507E+01  0.31475180908E+01  0.10096465219E+02  0.11230548675E+02  0.51100000000E-03 0.  1.
        -11    1    4    4    0    0  0.92519624954E+00  0.34903895626E+01  0.76255707160E+01  0.84373062292E+01  0.51100000000E-03 0. -1.
         12    1    4    4    0    0  0.20753096749E+01  0.14536420591E+02  0.22029133884E+02  0.26474462667E+02  0.00000000000E+00 0. -1.
</event>
<event>
 8    1  0.2882335E-009  0.9118800E+02  0.7816164E-02  0.1184000E+00
        -11   -1    0    0    0    0  0.00000000000E+00  0.00000000000E+00  0.45593999997E+02  0.45594000000E+02  0.51100000000E-03 0. -1.
         11   -1    0    0    0    0 -0.00000000000E+00 -0.00000000000E+00 -0.45593999997E+02  0.45594000000E+02  0.51100000000E-03 0.  1.
         23    2    1    2    0    0  0.00000000000E+00  0.17763568394E-14 -0.71054273576E-14  0.91188000000E+02  0.91188000000E+02 0.  0.
    9900012    2    3    3    0    0  0.21050949825E+02 -0.15609489450E+02 -0.36637614405E+02  0.46142318312E+02  0.10000005023E+02 0.  0.
         12    1    3    3    0    0 -0.21050949825E+02  0.15609489450E+02  0.36637614405E+02  0.45045681688E+02  0.00000000000E+00 0. -1.
         11    1    4    4    0    0  0.54784411294E+01 -0.94710895405E+01 -0.16771859908E+02  0.20025237560E+02  0.51100000000E-03 0. -1.
        -11    1    4    4    0    0  0.15133749904E+02 -0.61818511665E+01 -0.18530071986E+02  0.24710508657E+02  0.51100000000E-03 0.  1.
         12    1    4    4    0    0  0.43875879193E+00  0.43451257038E-01 -0.13356825106E+01  0.14065720950E+01  0.00000000000E+00 0. -1.
</event>
<event>
 8    1  0.2882335E-009  0.9118800E+02  0.7816164E-02  0.1184000E+00
        -11   -1    0    0    0    0  0.00000000000E+00  0.00000000000E+00  0.45593999997E+02  0.45594000000E+02  0.51100000000E-03 0. -1.
         11   -1    0    0    0    0 -0.00000000000E+00 -0.00000000000E+00 -0.45593999997E+02  0.45594000000E+02  0.51100000000E-03 0.  1.
         23    2    1    2    0    0 -0.35527136788E-14  0.00000000000E+00 -0.35527136788E-14  0.91188000000E+02  0.91188000000E+02 0.  0.
    9900012    2    3    3    0    0  0.29988426099E+02 -0.19723509544E+02 -0.27217473952E+02  0.46142318554E+02  0.10000007227E+02 0.  0.
         12    1    3    3    0    0 -0.29988426099E+02  0.19723509544E+02  0.27217473952E+02  0.45045681446E+02  0.00000000000E+00 0. -1.
         11    1    4    4    0    0  0.60750665478E+01 -0.42476809853E+01 -0.93273650483E+01  0.11914233770E+02  0.51100000000E-03 0. -1.
        -11    1    4    4    0    0  0.17506205376E+02 -0.14428248209E+02 -0.14099695483E+02  0.26710353536E+02  0.51100000000E-03 0.  1.
        -12    1    4    4    0    0  0.64071541752E+01 -0.10475803499E+01 -0.37904134209E+01  0.75177312478E+01  0.00000000000E+00 0.  1.
</event>
<event>
 8    1  0.2882335E-009  0.9118800E+02  0.7816164E-02  0.1184000E+00
        -11   -1    0    0    0    0  0.00000000000E+00  0.00000000000E+00  0.45593999997E+02  0.45594000000E+02  0.51100000000E-03 0. -1.
         11   -1    0    0    0    0 -0.00000000000E+00 -0.00000000000E+00 -0.45593999997E+02  0.45594000000E+02  0.51100000000E-03 0.  1.
         23    2    1    2    0    0  0.00000000000E+00  0.44408920985E-15  0.00000000000E+00  0.91188000000E+02  0.91188000000E+02 0.  0.
    9900012    2    3    3    0    0 -0.30487464144E+02 -0.18269773754E+01  0.33110272175E+02  0.46142318301E+02  0.10000004923E+02 0.  0.
        -12    1    3    3    0    0  0.30487464144E+02  0.18269773754E+01 -0.33110272175E+02  0.45045681699E+02  0.00000000000E+00 0.  1.
         11    1    4    4    0    0 -0.12562739524E+02 -0.34802759926E+01  0.16136865959E+02  0.20744473688E+02  0.51100000000E-03 0. -1.
        -11    1    4    4    0    0 -0.15457109068E+02  0.10587413673E+01  0.11281000543E+02  0.19165180081E+02  0.51100000000E-03 0.  1.
        -12    1    4    4    0    0 -0.24676155515E+01  0.59455724988E+00  0.56924056720E+01  0.62326645320E+01  0.00000000000E+00 0.  1.
</event>
<event>
 8    1  0.2882335E-009  0.9118800E+02  0.7816164E-02  0.1184000E+00
        -11   -1    0    0    0    0  0.00000000000E+00  0.00000000000E+00  0.45593999997E+02  0.45594000000E+02  0.51100000000E-03 0. -1.
         11   -1    0    0    0    0 -0.00000000000E+00 -0.00000000000E+00 -0.45593999997E+02  0.45594000000E+02  0.51100000000E-03 0.  1.
         23    2    1    2    0    0  0.00000000000E+00  0.35527136788E-14  0.00000000000E+00  0.91188000000E+02  0.91188000000E+02 0.  0.
    9900012    2    3    3    0    0 -0.30682688478E+01  0.20546598804E+02 -0.39969194504E+02  0.46142317572E+02  0.99999982756E+01 0.  0.
         12    1    3    3    0    0  0.30682688478E+01 -0.20546598804E+02  0.39969194504E+02  0.45045682428E+02  0.00000000000E+00 0. -1.
         11    1    4    4    0    0 -0.33466367060E+01  0.46529130083E+01 -0.10571907021E+02  0.12025589176E+02  0.51100000000E-03 0. -1.
        -11    1    4    4    0    0 -0.80037654917E+00  0.16134962284E+02 -0.28096149482E+02  0.32409431135E+02  0.51100000000E-03 0.  1.
        -12    1    4    4    0    0  0.10787444074E+01 -0.24127648862E+00 -0.13011380012E+01  0.17072972613E+01  0.00000000000E+00 0.  1.
</event>
<event>
 8    1  0.2882335E-009  0.9118800E+02  0.7816164E-02  0.1184000E+00
        -11   -1    0    0    0    0  0.00000000000E+00  0.00000000000E+00  0.45593999997E+02  0.45594000000E+02  0.51100000000E-03 0. -1.
         11   -1    0    0    0    0 -0.00000000000E+00 -0.00000000000E+00 -0.45593999997E+02  0.45594000000E+02  0.51100000000E-03 0.  1.
         23    2    1    2    0    0  0.00000000000E+00  0.44408920985E-15  0.00000000000E+00  0.91188000000E+02  0.91188000000E+02 0.  0.
    9900012    2    3    3    0    0 -0.11536569252E+02 -0.39285613806E+01 -0.43365741050E+02  0.46142317394E+02  0.99999966554E+01 0.  0.
         12    1    3    3    0    0  0.11536569252E+02  0.39285613806E+01  0.43365741050E+02  0.45045682606E+02  0.00000000000E+00 0. -1.
         11    1    4    4    0    0 -0.68388346311E+01  0.78760644583E+00 -0.26535805055E+02  0.27414210425E+02  0.51100000000E-03 0. -1.
        -11    1    4    4    0    0 -0.48032717153E+01 -0.51181907017E+01 -0.16906331152E+02  0.18305499952E+02  0.51100000000E-03 0.  1.
        -12    1    4    4    0    0  0.10553709491E+00  0.40202287532E+00  0.76395157481E-01  0.42260701694E+00  0.00000000000E+00 0.  1.
</event>
<event>
 8    1  0.2882335E-009  0.9118800E+02  0.7816164E-02  0.1184000E+00
        -11   -1    0    0    0    0  0.00000000000E+00  0.00000000000E+00  0.45593999997E+02  0.45594000000E+02  0.51100000000E-03 0. -1.
         11   -1    0    0    0    0 -0.00000000000E+00 -0.00000000000E+00 -0.45593999997E+02  0.45594000000E+02  0.51100000000E-03 0.  1.
         23    2    1    2    0    0  0.00000000000E+00  0.00000000000E+00  0.00000000000E+00  0.91188000000E+02  0.91188000000E+02 0.  0.
    9900012    2    3    3    0    0  0.32473022581E+02 -0.14176287008E+02 -0.27814550990E+02  0.46142317014E+02  0.99999931879E+01 0.  0.
         12    1    3    3    0    0 -0.32473022581E+02  0.14176287008E+02  0.27814550990E+02  0.45045682986E+02  0.00000000000E+00 0. -1.
         11    1    4    4    0    0  0.11104916775E+02 -0.44003283079E+00 -0.69645607378E+01  0.13115559920E+02  0.51100000000E-03 0. -1.
        -11    1    4    4    0    0  0.19045440968E+02 -0.12514048480E+02 -0.19837872570E+02  0.30213762086E+02  0.51100000000E-03 0.  1.
        -12    1    4    4    0    0  0.23226648374E+01 -0.12222056974E+01 -0.10121176830E+01  0.28129950085E+01  0.00000000000E+00 0.  1.
</event>
<event>
 8    1  0.2882335E-009  0.9118800E+02  0.7816164E-02  0.1184000E+00
        -11   -1    0    0    0    0  0.00000000000E+00  0.00000000000E+00  0.45593999997E+02  0.45594000000E+02  0.51100000000E-03 0. -1.
         11   -1    0    0    0    0 -0.00000000000E+00 -0.00000000000E+00 -0.45593999997E+02  0.45594000000E+02  0.51100000000E-03 0.  1.
         23    2    1    2    0    0  0.00000000000E+00  0.00000000000E+00  0.00000000000E+00  0.91188000000E+02  0.91188000000E+02 0.  0.
    9900012    2    3    3    0    0  0.38798011724E+01 -0.39184799443E+01  0.44706888819E+02  0.46142320406E+02  0.10000024117E+02 0.  0.
        -12    1    3    3    0    0 -0.38798011724E+01  0.39184799443E+01 -0.44706888819E+02  0.45045679594E+02  0.00000000000E+00 0.  1.
         11    1    4    4    0    0 -0.12237389345E+01  0.12809630112E+01  0.86499983204E+01  0.88295455387E+01  0.51100000000E-03 0. -1.
        -11    1    4    4    0    0  0.42945921946E+01 -0.29074923558E+01  0.11258942103E+02  0.12395999817E+02  0.51100000000E-03 0.  1.
         12    1    4    4    0    0  0.80894791234E+00 -0.22919505997E+01  0.24797948396E+02  0.24916775051E+02  0.00000000000E+00 0. -1.
</event>
<event>
 8    1  0.2882335E-009  0.9118800E+02  0.7816164E-02  0.1184000E+00
        -11   -1    0    0    0    0  0.00000000000E+00  0.00000000000E+00  0.45593999997E+02  0.45594000000E+02  0.51100000000E-03 0. -1.
         11   -1    0    0    0    0 -0.00000000000E+00 -0.00000000000E+00 -0.45593999997E+02  0.45594000000E+02  0.51100000000E-03 0.  1.
         23    2    1    2    0    0  0.00000000000E+00  0.35527136788E-14 -0.71054273576E-14  0.91188000000E+02  0.91188000000E+02 0.  0.
    9900012    2    3    3    0    0 -0.45939665528E+01  0.22759577208E+02 -0.38600651336E+02  0.46142321329E+02  0.10000032536E+02 0.  0.
         12    1    3    3    0    0  0.45939665528E+01 -0.22759577208E+02  0.38600651336E+02  0.45045678671E+02  0.00000000000E+00 0. -1.
         11    1    4    4    0    0 -0.81428798543E+00  0.27213001421E+01 -0.85512014761E+01  0.90106373988E+01  0.51100000000E-03 0. -1.
        -11    1    4    4    0    0 -0.50350570197E+01  0.13128568640E+02 -0.15205945685E+02  0.20710671118E+02  0.51100000000E-03 0.  1.
        -12    1    4    4    0    0  0.12553784523E+01  0.69097084254E+01 -0.14843504175E+02  0.16421012812E+02  0.00000000000E+00 0.  1.
</event>
<event>
 8    1  0.2882335E-009  0.9118800E+02  0.7816164E-02  0.1184000E+00
        -11   -1    0    0    0    0  0.00000000000E+00  0.00000000000E+00  0.45593999997E+02  0.45594000000E+02  0.51100000000E-03 0. -1.
         11   -1    0    0    0    0 -0.00000000000E+00 -0.00000000000E+00 -0.45593999997E+02  0.45594000000E+02  0.51100000000E-03 0.  1.
         23    2    1    2    0    0  0.00000000000E+00  0.17763568394E-14  0.00000000000E+00  0.91188000000E+02  0.91188000000E+02 0.  0.
    9900012    2    3    3    0    0 -0.18153434797E+02 -0.10818812168E+02 -0.39780899935E+02  0.46142313289E+02  0.99999592167E+01 0.  0.
         12    1    3    3    0    0  0.18153434797E+02  0.10818812168E+02  0.39780899935E+02  0.45045686711E+02  0.00000000000E+00 0. -1.
         11    1    4    4    0    0  0.55851266225E+00 -0.12880575504E+01 -0.47602203170E+01  0.49629352579E+01  0.51100000000E-03 0. -1.
        -11    1    4    4    0    0 -0.80425564806E+01 -0.65377290688E+01 -0.14029206057E+02  0.17442569735E+02  0.51100000000E-03 0.  1.
         12    1    4    4    0    0 -0.10669390978E+02 -0.29930255487E+01 -0.20991473561E+02  0.23736808296E+02  0.00000000000E+00 0. -1.
</event>
<event>
 8    1  0.2882335E-009  0.9118800E+02  0.7816164E-02  0.1184000E+00
        -11   -1    0    0    0    0  0.00000000000E+00  0.00000000000E+00  0.45593999997E+02  0.45594000000E+02  0.51100000000E-03 0. -1.
         11   -1    0    0    0    0 -0.00000000000E+00 -0.00000000000E+00 -0.45593999997E+02  0.45594000000E+02  0.51100000000E-03 0.  1.
         23    2    1    2    0    0 -0.71054273576E-14  0.00000000000E+00 -0.35527136788E-14  0.91188000000E+02  0.91188000000E+02 0.  0.
    9900012    2    3    3    0    0  0.35932353623E+02 -0.11210566927E+02  0.24744746501E+02  0.46142319550E+02  0.10000016316E+02 0.  0.
        -12    1    3    3    0    0 -0.35932353623E+02  0.11210566927E+02 -0.24744746501E+02  0.45045680450E+02  0.00000000000E+00 0.  1.
         11    1    4    4    0    0  0.19132012526E+02 -0.25805813853E+01  0.91675426510E+01  0.21371409455E+02  0.51100000000E-03 0. -1.
        -11    1    4    4    0    0  0.12662978427E+02 -0.79844636172E+01  0.11068169108E+02  0.18617385680E+02  0.51100000000E-03 0.  1.
         12    1    4    4    0    0  0.41373626705E+01 -0.64552192493E+00  0.45090347423E+01  0.61535244153E+01  0.00000000000E+00 0. -1.
</event>
<event>
 8    1  0.4032528E-009  0.9118800E+02  0.7816164E-02  0.1184000E+00
        -11   -1    0    0    0    0  0.00000000000E+00  0.00000000000E+00  0.45593999997E+02  0.45594000000E+02  0.51100000000E-03 0. -1.
         11   -1    0    0    0    0 -0.00000000000E+00 -0.00000000000E+00 -0.45593999997E+02  0.45594000000E+02  0.51100000000E-03 0.  1.
         23    2    1    2    0    0  0.00000000000E+00  0.00000000000E+00  0.00000000000E+00  0.91188000000E+02  0.91188000000E+02 0.  0.
    9900012    2    3    3    0    0  0.13788774980E+01 -0.33392741795E+02 -0.30201605714E+02  0.46142317682E+02  0.99999992829E+01 0.  0.
         12    1    3    3    0    0 -0.13788774980E+01  0.33392741795E+02  0.30201605714E+02  0.45045682318E+02  0.00000000000E+00 0. -1.
         11    1    4    4    0    0 -0.31630636459E+00 -0.44307845096E+01 -0.73860849451E+00  0.45030482848E+01  0.51100000000E-03 0.  1.
        -11    1    4    4    0    0  0.20555223725E+01 -0.14720465170E+02 -0.18072314055E+02  0.23399269275E+02  0.51100000000E-03 0. -1.
        -12    1    4    4    0    0 -0.36033850987E+00 -0.14241492115E+02 -0.11390683165E+02  0.18240000123E+02  0.00000000000E+00 0.  1.
</event>
<event>
 8    1  0.2882335E-009  0.9118800E+02  0.7816164E-02  0.1184000E+00
        -11   -1    0    0    0    0  0.00000000000E+00  0.00000000000E+00  0.45593999997E+02  0.45594000000E+02  0.51100000000E-03 0. -1.
         11   -1    0    0    0    0 -0.00000000000E+00 -0.00000000000E+00 -0.45593999997E+02  0.45594000000E+02  0.51100000000E-03 0.  1.
         23    2    1    2    0    0 -0.71054273576E-14  0.00000000000E+00  0.00000000000E+00  0.91188000000E+02  0.91188000000E+02 0.  0.
    9900012    2    3    3    0    0 -0.29993334569E+02 -0.32478312865E+02  0.86413266315E+01  0.46142318175E+02  0.10000003771E+02 0.  0.
        -12    1    3    3    0    0  0.29993334569E+02  0.32478312865E+02 -0.86413266315E+01  0.45045681825E+02  0.00000000000E+00 0.  1.
         11    1    4    4    0    0 -0.12714467614E+02 -0.19040183299E+02  0.40255210142E+01  0.23246313395E+02  0.51100000000E-03 0. -1.
        -11    1    4    4    0    0 -0.16205737524E+02 -0.12165264519E+02  0.55190562231E+01  0.21001894471E+02  0.51100000000E-03 0.  1.
        -12    1    4    4    0    0 -0.10731294315E+01 -0.12728650473E+01 -0.90325060575E+00  0.18941103088E+01  0.00000000000E+00 0.  1.
</event>
<event>
 8    1  0.2882335E-009  0.9118800E+02  0.7816164E-02  0.1184000E+00
        -11   -1    0    0    0    0  0.00000000000E+00  0.00000000000E+00  0.45593999997E+02  0.45594000000E+02  0.51100000000E-03 0. -1.
         11   -1    0    0    0    0 -0.00000000000E+00 -0.00000000000E+00 -0.45593999997E+02  0.45594000000E+02  0.51100000000E-03 0.  1.
         23    2    1    2    0    0  0.00000000000E+00  0.88817841970E-15  0.00000000000E+00  0.91188000000E+02  0.91188000000E+02 0.  0.
    9900012    2    3    3    0    0  0.22450165603E+02 -0.40520640022E+01  0.38841786897E+02  0.46142316881E+02  0.99999919772E+01 0.  0.
        -12    1    3    3    0    0 -0.22450165603E+02  0.40520640022E+01 -0.38841786897E+02  0.45045683119E+02  0.00000000000E+00 0.  1.
         11    1    4    4    0    0  0.14119602414E+02 -0.62337068314E+01  0.23678972711E+02  0.28265102549E+02  0.51100000000E-03 0. -1.
        -11    1    4    4    0    0  0.26549863470E+00  0.65454550799E+00  0.87073264310E-01  0.71168909049E+00  0.51100000000E-03 0.  1.
         12    1    4    4    0    0  0.80650645546E+01  0.15270973213E+01  0.15075740922E+02  0.17165525242E+02  0.00000000000E+00 0. -1.
</event>
<event>
 8    1  0.4495496E-009  0.9118800E+02  0.7816164E-02  0.1184000E+00
        -11   -1    0    0    0    0  0.00000000000E+00  0.00000000000E+00  0.45593999997E+02  0.45594000000E+02  0.51100000000E-03 0. -1.
         11   -1    0    0    0    0 -0.00000000000E+00 -0.00000000000E+00 -0.45593999997E+02  0.45594000000E+02  0.51100000000E-03 0.  1.
         23    2    1    2    0    0 -0.44408920985E-15 -0.22204460493E-15  0.00000000000E+00  0.91188000000E+02  0.91188000000E+02 0.  0.
    9900012    2    3    3    0    0  0.35353970931E+01 -0.55964254904E+00  0.44903242442E+02  0.46142318584E+02  0.10000007504E+02 0.  0.
        -12    1    3    3    0    0 -0.35353970931E+01  0.55964254904E+00 -0.44903242442E+02  0.45045681416E+02  0.00000000000E+00 0.  1.
         11    1    4    4    0    0 -0.99121810312E+00 -0.20001778047E+01  0.28327989461E+02  0.28415809187E+02  0.51100000000E-03 0. -1.
        -11    1    4    4    0    0  0.65981930310E+00 -0.65870830709E+00  0.49585527088E+00  0.10559975650E+01  0.51100000000E-03 0.  1.
         12    1    4    4    0    0  0.38667958931E+01  0.20992435627E+01  0.16079397710E+02  0.16670511832E+02  0.00000000000E+00 0. -1.
</event>
<event>
 8    1  0.2882335E-009  0.9118800E+02  0.7816164E-02  0.1184000E+00
        -11   -1    0    0    0    0  0.00000000000E+00  0.00000000000E+00  0.45593999997E+02  0.45594000000E+02  0.51100000000E-03 0. -1.
         11   -1    0    0    0    0 -0.00000000000E+00 -0.00000000000E+00 -0.45593999997E+02  0.45594000000E+02  0.51100000000E-03 0.  1.
         23    2    1    2    0    0  0.35527136788E-14  0.00000000000E+00 -0.71054273576E-14  0.91188000000E+02  0.91188000000E+02 0.  0.
    9900012    2    3    3    0    0  0.24472776386E+02 -0.42317583356E+01 -0.37580431497E+02  0.46142318807E+02  0.10000009538E+02 0.  0.
         12    1    3    3    0    0 -0.24472776386E+02  0.42317583356E+01  0.37580431497E+02  0.45045681193E+02  0.00000000000E+00 0. -1.
         11    1    4    4    0    0  0.10501626486E+02  0.18988516954E+01 -0.15987291090E+02  0.19221947697E+02  0.51100000000E-03 0. -1.
        -11    1    4    4    0    0  0.13388173089E+02 -0.42295556658E+01 -0.19549790066E+02  0.24069204634E+02  0.51100000000E-03 0.  1.
         12    1    4    4    0    0  0.58297681058E+00 -0.19010543652E+01 -0.20433503400E+01  0.28511664759E+01  0.00000000000E+00 0. -1.
</event>
<event>
 8    1  0.2882335E-009  0.9118800E+02  0.7816164E-02  0.1184000E+00
        -11   -1    0    0    0    0  0.00000000000E+00  0.00000000000E+00  0.45593999997E+02  0.45594000000E+02  0.51100000000E-03 0. -1.
         11   -1    0    0    0    0 -0.00000000000E+00 -0.00000000000E+00 -0.45593999997E+02  0.45594000000E+02  0.51100000000E-03 0.  1.
         23    2    1    2    0    0  0.00000000000E+00  0.00000000000E+00 -0.35527136788E-14  0.91188000000E+02  0.91188000000E+02 0.  0.
    9900012    2    3    3    0    0  0.36655203436E+02  0.86516725998E+01 -0.24711497007E+02  0.46142318054E+02  0.10000002669E+02 0.  0.
         12    1    3    3    0    0 -0.36655203436E+02 -0.86516725998E+01  0.24711497007E+02  0.45045681946E+02  0.00000000000E+00 0. -1.
         11    1    4    4    0    0  0.43376564439E+01  0.12656705573E+01 -0.16642504820E+00  0.45216018116E+01  0.51100000000E-03 0. -1.
        -11    1    4    4    0    0  0.14160429123E+02  0.60163778315E+01 -0.11932364980E+02  0.19470384933E+02  0.51100000000E-03 0.  1.
         12    1    4    4    0    0  0.18157117869E+02  0.13696242111E+01 -0.12612706978E+02  0.22150331309E+02  0.00000000000E+00 0. -1.
</event>
<event>
 8    1  0.2882335E-009  0.9118800E+02  0.7816164E-02  0.1184000E+00
        -11   -1    0    0    0    0  0.00000000000E+00  0.00000000000E+00  0.45593999997E+02  0.45594000000E+02  0.51100000000E-03 0. -1.
         11   -1    0    0    0    0 -0.00000000000E+00 -0.00000000000E+00 -0.45593999997E+02  0.45594000000E+02  0.51100000000E-03 0.  1.
         23    2    1    2    0    0  0.00000000000E+00  0.00000000000E+00 -0.17763568394E-14  0.91188000000E+02  0.91188000000E+02 0.  0.
    9900012    2    3    3    0    0 -0.34477914614E+02  0.25112648490E+02  0.14482457101E+02  0.46142320141E+02  0.10000021699E+02 0.  0.
        -12    1    3    3    0    0  0.34477914614E+02 -0.25112648490E+02 -0.14482457101E+02  0.45045679859E+02  0.00000000000E+00 0.  1.
         11    1    4    4    0    0 -0.10543996807E+02  0.25251045798E+01  0.30646223231E+01  0.11266939782E+02  0.51100000000E-03 0. -1.
        -11    1    4    4    0    0 -0.87611385390E+01  0.92689540608E+01  0.48411220857E+01  0.13642123046E+02  0.51100000000E-03 0.  1.
         12    1    4    4    0    0 -0.15172779268E+02  0.13318589849E+02  0.65767126923E+01  0.21233257313E+02  0.00000000000E+00 0. -1.
</event>
<event>
 8    1  0.2882335E-009  0.9118800E+02  0.7816164E-02  0.1184000E+00
        -11   -1    0    0    0    0  0.00000000000E+00  0.00000000000E+00  0.45593999997E+02  0.45594000000E+02  0.51100000000E-03 0. -1.
         11   -1    0    0    0    0 -0.00000000000E+00 -0.00000000000E+00 -0.45593999997E+02  0.45594000000E+02  0.51100000000E-03 0.  1.
         23    2    1    2    0    0 -0.17763568394E-14  0.22204460493E-15 -0.71054273576E-14  0.91188000000E+02  0.91188000000E+02 0.  0.
    9900012    2    3    3    0    0 -0.94275425212E+01  0.19870042026E+01 -0.44003256521E+02  0.46142319539E+02  0.10000016214E+02 0.  0.
         12    1    3    3    0    0  0.94275425212E+01 -0.19870042026E+01  0.44003256521E+02  0.45045680461E+02  0.00000000000E+00 0. -1.
         11    1    4    4    0    0 -0.37850041471E+01  0.37643931056E+01 -0.21873128240E+02  0.22515120500E+02  0.51100000000E-03 0. -1.
        -11    1    4    4    0    0 -0.33171150118E+01  0.11375690236E+01 -0.16539042729E+02  0.16906722034E+02  0.51100000000E-03 0.  1.
         12    1    4    4    0    0 -0.23254233623E+01 -0.29149579266E+01 -0.55910855521E+01  0.67204770053E+01  0.00000000000E+00 0. -1.
</event>
<event>
 8    1  0.2882335E-009  0.9118800E+02  0.7816164E-02  0.1184000E+00
        -11   -1    0    0    0    0  0.00000000000E+00  0.00000000000E+00  0.45593999997E+02  0.45594000000E+02  0.51100000000E-03 0.  1.
         11   -1    0    0    0    0 -0.00000000000E+00 -0.00000000000E+00 -0.45593999997E+02  0.45594000000E+02  0.51100000000E-03 0. -1.
         23    2    1    2    0    0  0.00000000000E+00  0.00000000000E+00 -0.11102230246E-15  0.91188000000E+02  0.91188000000E+02 0.  0.
    9900012    2    3    3    0    0  0.24386744796E+02 -0.37868535152E+02 -0.61173761777E+00  0.46142317641E+02  0.99999989009E+01 0.  0.
         12    1    3    3    0    0 -0.24386744796E+02  0.37868535152E+02  0.61173761777E+00  0.45045682359E+02  0.00000000000E+00 0. -1.
         11    1    4    4    0    0  0.21095124797E+02 -0.27562781873E+02 -0.34259829678E+00  0.34710641144E+02  0.51100000000E-03 0. -1.
        -11    1    4    4    0    0  0.39028844074E+01 -0.94650946375E+01  0.30794765338E+00  0.10242819691E+02  0.51100000000E-03 0.  1.
         12    1    4    4    0    0 -0.61126440852E+00 -0.84065864172E+00 -0.57708697436E+00  0.11888568059E+01  0.00000000000E+00 0. -1.
</event>
<event>
 8    1  0.2882335E-009  0.9118800E+02  0.7816164E-02  0.1184000E+00
        -11   -1    0    0    0    0  0.00000000000E+00  0.00000000000E+00  0.45593999997E+02  0.45594000000E+02  0.51100000000E-03 0.  1.
         11   -1    0    0    0    0 -0.00000000000E+00 -0.00000000000E+00 -0.45593999997E+02  0.45594000000E+02  0.51100000000E-03 0. -1.
         23    2    1    2    0    0  0.00000000000E+00 -0.35527136788E-14  0.00000000000E+00  0.91188000000E+02  0.91188000000E+02 0.  0.
    9900012    2    3    3    0    0  0.31995047947E+02  0.31463849388E+02  0.39315001959E+01  0.46142316464E+02  0.99999881741E+01 0.  0.
        -12    1    3    3    0    0 -0.31995047947E+02 -0.31463849388E+02 -0.39315001959E+01  0.45045683536E+02  0.00000000000E+00 0.  1.
         11    1    4    4    0    0  0.12612020958E+02  0.14084466780E+02  0.17843488029E+00  0.18906800798E+02  0.51100000000E-03 0. -1.
        -11    1    4    4    0    0  0.82184043070E+01  0.11753202901E+02  0.33464299084E+01  0.14726796705E+02  0.51100000000E-03 0.  1.
         12    1    4    4    0    0  0.11164622682E+02  0.56261797060E+01  0.40663540713E+00  0.12508718962E+02  0.00000000000E+00 0. -1.
</event>
<event>
 8    1  0.2882335E-009  0.9118800E+02  0.7816164E-02  0.1184000E+00
        -11   -1    0    0    0    0  0.00000000000E+00  0.00000000000E+00  0.45593999997E+02  0.45594000000E+02  0.51100000000E-03 0. -1.
         11   -1    0    0    0    0 -0.00000000000E+00 -0.00000000000E+00 -0.45593999997E+02  0.45594000000E+02  0.51100000000E-03 0.  1.
         23    2    1    2    0    0  0.00000000000E+00  0.00000000000E+00 -0.35527136788E-14  0.91188000000E+02  0.91188000000E+02 0.  0.
    9900012    2    3    3    0    0 -0.36168473110E+02  0.17831612675E+02  0.20074576248E+02  0.46142317973E+02  0.10000001935E+02 0.  0.
        -12    1    3    3    0    0  0.36168473110E+02 -0.17831612675E+02 -0.20074576248E+02  0.45045682027E+02  0.00000000000E+00 0.  1.
         11    1    4    4    0    0 -0.10785374913E+02  0.54200423901E+01  0.91220206254E+01  0.15129852348E+02  0.51100000000E-03 0. -1.
        -11    1    4    4    0    0 -0.48734936580E+01  0.21955716644E+01 -0.55140752335E+00  0.53735952477E+01  0.51100000000E-03 0.  1.
        -12    1    4    4    0    0 -0.20509604539E+02  0.10215998620E+02  0.11503963146E+02  0.25638870377E+02  0.00000000000E+00 0.  1.
</event>
<event>
 8    1  0.2882335E-009  0.9118800E+02  0.7816164E-02  0.1184000E+00
        -11   -1    0    0    0    0  0.00000000000E+00  0.00000000000E+00  0.45593999997E+02  0.45594000000E+02  0.51100000000E-03 0.  1.
         11   -1    0    0    0    0 -0.00000000000E+00 -0.00000000000E+00 -0.45593999997E+02  0.45594000000E+02  0.51100000000E-03 0. -1.
         23    2    1    2    0    0  0.35527136788E-14  0.00000000000E+00  0.00000000000E+00  0.91188000000E+02  0.91188000000E+02 0.  0.
    9900012    2    3    3    0    0  0.20360759144E+02  0.39625355034E+02 -0.66621458658E+01  0.46142318053E+02  0.10000002665E+02 0.  0.
         12    1    3    3    0    0 -0.20360759144E+02 -0.39625355034E+02  0.66621458658E+01  0.45045681947E+02  0.00000000000E+00 0. -1.
         11    1    4    4    0    0  0.18726334941E+02  0.33280332692E+02 -0.64149362750E+01  0.38722184495E+02  0.51100000000E-03 0. -1.
        -11    1    4    4    0    0 -0.61897905389E+00  0.43396497908E+01  0.92547289769E-01  0.43845479400E+01  0.51100000000E-03 0.  1.
        -12    1    4    4    0    0  0.22534032565E+01  0.20053725513E+01 -0.33975688052E+00  0.30355856179E+01  0.00000000000E+00 0.  1.
</event>
<event>
 8    1  0.2882335E-009  0.9118800E+02  0.7816164E-02  0.1184000E+00
        -11   -1    0    0    0    0  0.00000000000E+00  0.00000000000E+00  0.45593999997E+02  0.45594000000E+02  0.51100000000E-03 0. -1.
         11   -1    0    0    0    0 -0.00000000000E+00 -0.00000000000E+00 -0.45593999997E+02  0.45594000000E+02  0.51100000000E-03 0.  1.
         23    2    1    2    0    0  0.00000000000E+00 -0.71054273576E-14  0.00000000000E+00  0.91188000000E+02  0.91188000000E+02 0.  0.
    9900012    2    3    3    0    0 -0.58469934306E+01 -0.43685478513E+02  0.93007817019E+01  0.46142324232E+02  0.10000059007E+02 0.  0.
        -12    1    3    3    0    0  0.58469934306E+01  0.43685478513E+02 -0.93007817019E+01  0.45045675768E+02  0.00000000000E+00 0.  1.
         11    1    4    4    0    0  0.72256363615E+00 -0.15187540299E+02 -0.39123046925E+00  0.15209751480E+02  0.51100000000E-03 0. -1.
        -11    1    4    4    0    0  0.43398588779E-01 -0.45936682863E+00  0.53034662677E+00  0.70297163982E+00  0.51100000000E-03 0.  1.
         12    1    4    4    0    0 -0.66129556555E+01 -0.28038571386E+02  0.91616655444E+01  0.30229601112E+02  0.00000000000E+00 0. -1.
</event>
<event>
 8    1  0.2882335E-009  0.9118800E+02  0.7816164E-02  0.1184000E+00
        -11   -1    0    0    0    0  0.00000000000E+00  0.00000000000E+00  0.45593999997E+02  0.45594000000E+02  0.51100000000E-03 0. -1.
         11   -1    0    0    0    0 -0.00000000000E+00 -0.00000000000E+00 -0.45593999997E+02  0.45594000000E+02  0.51100000000E-03 0.  1.
         23    2    1    2    0    0  0.00000000000E+00  0.00000000000E+00  0.00000000000E+00  0.91188000000E+02  0.91188000000E+02 0.  0.
    9900012    2    3    3    0    0 -0.17154560068E+02  0.50897266330E+01 -0.41339197570E+02  0.46142317587E+02  0.99999984124E+01 0.  0.
         12    1    3    3    0    0  0.17154560068E+02 -0.50897266330E+01  0.41339197570E+02  0.45045682413E+02  0.00000000000E+00 0. -1.
         11    1    4    4    0    0 -0.68440955973E+01  0.22075995969E+01 -0.18750271159E+02  0.20082027022E+02  0.51100000000E-03 0. -1.
        -11    1    4    4    0    0 -0.78074005353E+01  0.22703125677E+00 -0.20305108828E+02  0.21755562302E+02  0.51100000000E-03 0.  1.
         12    1    4    4    0    0 -0.25030639358E+01  0.26550957793E+01 -0.22838175832E+01  0.43047282629E+01  0.00000000000E+00 0. -1.
</event>
<event>
 8    1  0.2882335E-009  0.9118800E+02  0.7816164E-02  0.1184000E+00
        -11   -1    0    0    0    0  0.00000000000E+00  0.00000000000E+00  0.45593999997E+02  0.45594000000E+02  0.51100000000E-03 0. -1.
         11   -1    0    0    0    0 -0.00000000000E+00 -0.00000000000E+00 -0.45593999997E+02  0.45594000000E+02  0.51100000000E-03 0.  1.
         23    2    1    2    0    0  0.00000000000E+00  0.22204460493E-15  0.00000000000E+00  0.91188000000E+02  0.91188000000E+02 0.  0.
    9900012    2    3    3    0    0  0.14195475382E+02  0.12053918669E+01  0.42733465352E+02  0.46142317057E+02  0.99999935759E+01 0.  0.
        -12    1    3    3    0    0 -0.14195475382E+02 -0.12053918669E+01 -0.42733465352E+02  0.45045682943E+02  0.00000000000E+00 0.  1.
         11    1    4    4    0    0  0.51700080167E+01  0.42896606076E+01  0.13236023000E+02  0.14843263662E+02  0.51100000000E-03 0.  1.
        -11    1    4    4    0    0  0.30542282178E+01 -0.20216684373E+01  0.17220269517E+02  0.17605485957E+02  0.51100000000E-03 0. -1.
         12    1    4    4    0    0  0.59712391477E+01 -0.10626003034E+01  0.12277172834E+02  0.13693567437E+02  0.00000000000E+00 0. -1.
</event>
<event>
 8    1  0.2882335E-009  0.9118800E+02  0.7816164E-02  0.1184000E+00
        -11   -1    0    0    0    0  0.00000000000E+00  0.00000000000E+00  0.45593999997E+02  0.45594000000E+02  0.51100000000E-03 0. -1.
         11   -1    0    0    0    0 -0.00000000000E+00 -0.00000000000E+00 -0.45593999997E+02  0.45594000000E+02  0.51100000000E-03 0.  1.
         23    2    1    2    0    0  0.00000000000E+00  0.71054273576E-14  0.71054273576E-14  0.91188000000E+02  0.91188000000E+02 0.  0.
    9900012    2    3    3    0    0  0.85070820144E+01 -0.32097387937E+02 -0.30438474224E+02  0.46142317966E+02  0.10000001868E+02 0.  0.
         12    1    3    3    0    0 -0.85070820144E+01  0.32097387937E+02  0.30438474224E+02  0.45045682034E+02  0.00000000000E+00 0. -1.
         11    1    4    4    0    0 -0.16054795924E+01 -0.26402889630E+01 -0.23588568101E+01  0.38875308669E+01  0.51100000000E-03 0. -1.
        -11    1    4    4    0    0  0.54653428090E+01 -0.16700411985E+02 -0.19225501644E+02  0.26045990982E+02  0.51100000000E-03 0.  1.
        -12    1    4    4    0    0  0.46472187978E+01 -0.12756686990E+02 -0.88541157702E+01  0.16208796117E+02  0.00000000000E+00 0.  1.
</event>
<event>
 8    1  0.2882335E-009  0.9118800E+02  0.7816164E-02  0.1184000E+00
        -11   -1    0    0    0    0  0.00000000000E+00  0.00000000000E+00  0.45593999997E+02  0.45594000000E+02  0.51100000000E-03 0. -1.
         11   -1    0    0    0    0 -0.00000000000E+00 -0.00000000000E+00 -0.45593999997E+02  0.45594000000E+02  0.51100000000E-03 0.  1.
         23    2    1    2    0    0  0.00000000000E+00  0.35527136788E-14 -0.35527136788E-14  0.91188000000E+02  0.91188000000E+02 0.  0.
    9900012    2    3    3    0    0  0.12043865708E+02 -0.31113028082E+02  0.30266123587E+02  0.46142318135E+02  0.10000003414E+02 0.  0.
        -12    1    3    3    0    0 -0.12043865708E+02  0.31113028082E+02 -0.30266123587E+02  0.45045681865E+02  0.00000000000E+00 0.  1.
         11    1    4    4    0    0  0.20831548537E+01 -0.54753229080E+01  0.31022210212E+01  0.66289117220E+01  0.51100000000E-03 0. -1.
        -11    1    4    4    0    0  0.39876398063E+01 -0.11799557110E+02  0.17950010053E+02  0.21847967420E+02  0.51100000000E-03 0.  1.
        -12    1    4    4    0    0  0.59730710479E+01 -0.13838148064E+02  0.92138925128E+01  0.17665438993E+02  0.00000000000E+00 0.  1.
</event>
<event>
 8    1  0.2882335E-009  0.9118800E+02  0.7816164E-02  0.1184000E+00
        -11   -1    0    0    0    0  0.00000000000E+00  0.00000000000E+00  0.45593999997E+02  0.45594000000E+02  0.51100000000E-03 0. -1.
         11   -1    0    0    0    0 -0.00000000000E+00 -0.00000000000E+00 -0.45593999997E+02  0.45594000000E+02  0.51100000000E-03 0.  1.
         23    2    1    2    0    0  0.00000000000E+00  0.00000000000E+00  0.00000000000E+00  0.91188000000E+02  0.91188000000E+02 0.  0.
    9900012    2    3    3    0    0 -0.22388333313E+02  0.31594510574E+02 -0.23014406368E+02  0.46142317994E+02  0.10000002121E+02 0.  0.
         12    1    3    3    0    0  0.22388333313E+02 -0.31594510574E+02  0.23014406368E+02  0.45045682006E+02  0.00000000000E+00 0. -1.
         11    1    4    4    0    0 -0.51883775671E+01  0.24982256147E+01 -0.27837191493E+01  0.63960523422E+01  0.51100000000E-03 0. -1.
        -11    1    4    4    0    0 -0.14880760279E+02  0.24493424679E+02 -0.19182296498E+02  0.34486597080E+02  0.51100000000E-03 0.  1.
         12    1    4    4    0    0 -0.23191954671E+01  0.46028602810E+01 -0.10483907206E+01  0.52596685717E+01  0.00000000000E+00 0. -1.
</event>
<event>
 8    1  0.2882335E-009  0.9118800E+02  0.7816164E-02  0.1184000E+00
        -11   -1    0    0    0    0  0.00000000000E+00  0.00000000000E+00  0.45593999997E+02  0.45594000000E+02  0.51100000000E-03 0. -1.
         11   -1    0    0    0    0 -0.00000000000E+00 -0.00000000000E+00 -0.45593999997E+02  0.45594000000E+02  0.51100000000E-03 0.  1.
         23    2    1    2    0    0  0.00000000000E+00  0.71054273576E-14  0.35527136788E-14  0.91188000000E+02  0.91188000000E+02 0.  0.
    9900012    2    3    3    0    0  0.11177987680E+02 -0.37469794174E+02 -0.22364719341E+02  0.46142317020E+02  0.99999932385E+01 0.  0.
         12    1    3    3    0    0 -0.11177987680E+02  0.37469794174E+02  0.22364719341E+02  0.45045682980E+02  0.00000000000E+00 0. -1.
         11    1    4    4    0    0  0.28691339370E+01 -0.10483279202E+02 -0.14121324106E+01  0.10960163803E+02  0.51100000000E-03 0. -1.
        -11    1    4    4    0    0  0.60831885168E+01 -0.19653973647E+02 -0.14588891393E+02  0.25221411835E+02  0.51100000000E-03 0.  1.
         12    1    4    4    0    0  0.22256652257E+01 -0.73325413248E+01 -0.63636955373E+01  0.99607413815E+01  0.00000000000E+00 0. -1.
</event>
<event>
 8    1  0.2882335E-009  0.9118800E+02  0.7816164E-02  0.1184000E+00
        -11   -1    0    0    0    0  0.00000000000E+00  0.00000000000E+00  0.45593999997E+02  0.45594000000E+02  0.51100000000E-03 0. -1.
         11   -1    0    0    0    0 -0.00000000000E+00 -0.00000000000E+00 -0.45593999997E+02  0.45594000000E+02  0.51100000000E-03 0.  1.
         23    2    1    2    0    0  0.00000000000E+00  0.17763568394E-14 -0.71054273576E-14  0.91188000000E+02  0.91188000000E+02 0.  0.
    9900012    2    3    3    0    0 -0.55048429255E+01 -0.82748672452E+01  0.43935597667E+02  0.46142318011E+02  0.10000002277E+02 0.  0.
        -12    1    3    3    0    0  0.55048429255E+01  0.82748672452E+01 -0.43935597667E+02  0.45045681989E+02  0.00000000000E+00 0.  1.
         11    1    4    4    0    0 -0.28804911490E+01 -0.11926381956E+01  0.30970728449E+01  0.43944824033E+01  0.51100000000E-03 0. -1.
        -11    1    4    4    0    0  0.11145389059E+00 -0.38056646845E+00  0.15564036228E+00  0.42600116212E+00  0.51100000000E-03 0.  1.
         12    1    4    4    0    0 -0.27358056672E+01 -0.67016625811E+01  0.40682884459E+02  0.41321834445E+02  0.00000000000E+00 0. -1.
</event>
<event>
 8    1  0.2882335E-009  0.9118800E+02  0.7816164E-02  0.1184000E+00
        -11   -1    0    0    0    0  0.00000000000E+00  0.00000000000E+00  0.45593999997E+02  0.45594000000E+02  0.51100000000E-03 0. -1.
         11   -1    0    0    0    0 -0.00000000000E+00 -0.00000000000E+00 -0.45593999997E+02  0.45594000000E+02  0.51100000000E-03 0.  1.
         23    2    1    2    0    0  0.17763568394E-14  0.88817841970E-15 -0.71054273576E-14  0.91188000000E+02  0.91188000000E+02 0.  0.
    9900012    2    3    3    0    0  0.10299051311E+02  0.66131163782E+01 -0.43351006828E+02  0.46142316975E+02  0.99999928354E+01 0.  0.
         12    1    3    3    0    0 -0.10299051311E+02 -0.66131163782E+01  0.43351006828E+02  0.45045683025E+02  0.00000000000E+00 0. -1.
         11    1    4    4    0    0  0.23328460047E+01 -0.84527479088E+00 -0.59491198923E+01  0.64458271547E+01  0.51100000000E-03 0. -1.
        -11    1    4    4    0    0  0.82852739550E+01  0.63993060229E+01 -0.37101670663E+02  0.38550367680E+02  0.51100000000E-03 0.  1.
        -12    1    4    4    0    0 -0.31906864919E+00  0.10590851462E+01 -0.30021627342E+00  0.11461221403E+01  0.00000000000E+00 0.  1.
</event>
<event>
 8    1  0.2882335E-009  0.9118800E+02  0.7816164E-02  0.1184000E+00
        -11   -1    0    0    0    0  0.00000000000E+00  0.00000000000E+00  0.45593999997E+02  0.45594000000E+02  0.51100000000E-03 0. -1.
         11   -1    0    0    0    0 -0.00000000000E+00 -0.00000000000E+00 -0.45593999997E+02  0.45594000000E+02  0.51100000000E-03 0.  1.
         23    2    1    2    0    0  0.35527136788E-14  0.00000000000E+00 -0.71054273576E-14  0.91188000000E+02  0.91188000000E+02 0.  0.
    9900012    2    3    3    0    0 -0.25063568084E+02  0.15700193769E+02  0.33976977098E+02  0.46142317608E+02  0.99999986031E+01 0.  0.
        -12    1    3    3    0    0  0.25063568084E+02 -0.15700193769E+02 -0.33976977098E+02  0.45045682392E+02  0.00000000000E+00 0.  1.
         11    1    4    4    0    0 -0.18787884356E+02  0.14227949213E+02  0.30357001596E+02  0.38431324249E+02  0.51100000000E-03 0. -1.
        -11    1    4    4    0    0 -0.29311247006E+01 -0.12349430304E+00  0.76164374738E+00  0.30309807510E+01  0.51100000000E-03 0.  1.
         12    1    4    4    0    0 -0.33445590271E+01  0.15957388587E+01  0.28583317542E+01  0.46800126077E+01  0.00000000000E+00 0. -1.
</event>
<event>
 8    1  0.2882335E-009  0.9118800E+02  0.7816164E-02  0.1184000E+00
        -11   -1    0    0    0    0  0.00000000000E+00  0.00000000000E+00  0.45593999997E+02  0.45594000000E+02  0.51100000000E-03 0. -1.
         11   -1    0    0    0    0 -0.00000000000E+00 -0.00000000000E+00 -0.45593999997E+02  0.45594000000E+02  0.51100000000E-03 0.  1.
         23    2    1    2    0    0 -0.35527136788E-14  0.00000000000E+00  0.00000000000E+00  0.91188000000E+02  0.91188000000E+02 0.  0.
    9900012    2    3    3    0    0  0.30263152908E+02 -0.93240091206E+01 -0.32036194338E+02  0.46142319656E+02  0.10000017277E+02 0.  0.
         12    1    3    3    0    0 -0.30263152908E+02  0.93240091206E+01  0.32036194338E+02  0.45045680344E+02  0.00000000000E+00 0. -1.
         11    1    4    4    0    0  0.13471682964E+02 -0.78874416279E+01 -0.17398132460E+02  0.23375050602E+02  0.51100000000E-03 0. -1.
        -11    1    4    4    0    0  0.20126379922E+01  0.13106788506E+01 -0.18515754881E+01  0.30326428715E+01  0.51100000000E-03 0.  1.
        -12    1    4    4    0    0  0.14778831952E+02 -0.27472463433E+01 -0.12786486390E+02  0.19734626182E+02  0.00000000000E+00 0.  1.
</event>
<event>
 8    1  0.2882335E-009  0.9118800E+02  0.7816164E-02  0.1184000E+00
        -11   -1    0    0    0    0  0.00000000000E+00  0.00000000000E+00  0.45593999997E+02  0.45594000000E+02  0.51100000000E-03 0.  1.
         11   -1    0    0    0    0 -0.00000000000E+00 -0.00000000000E+00 -0.45593999997E+02  0.45594000000E+02  0.51100000000E-03 0. -1.
         23    2    1    2    0    0  0.88817841970E-15  0.71054273576E-14  0.00000000000E+00  0.91188000000E+02  0.91188000000E+02 0.  0.
    9900012    2    3    3    0    0 -0.78139654481E+01  0.34129668890E+02 -0.28341152417E+02  0.46142320131E+02  0.10000021609E+02 0.  0.
         12    1    3    3    0    0  0.78139654481E+01 -0.34129668890E+02  0.28341152417E+02  0.45045679869E+02  0.00000000000E+00 0. -1.
         11    1    4    4    0    0 -0.82236275580E+01  0.16510639082E+02 -0.16939589403E+02  0.25043540934E+02  0.51100000000E-03 0. -1.
        -11    1    4    4    0    0 -0.16048892046E+00  0.16369311762E+02 -0.10333275513E+02  0.19358633922E+02  0.51100000000E-03 0.  1.
         12    1    4    4    0    0  0.57015103038E+00  0.12497180459E+01 -0.10682875008E+01  0.17401452744E+01  0.00000000000E+00 0. -1.
</event>
<event>
 8    1  0.2882335E-009  0.9118800E+02  0.7816164E-02  0.1184000E+00
        -11   -1    0    0    0    0  0.00000000000E+00  0.00000000000E+00  0.45593999997E+02  0.45594000000E+02  0.51100000000E-03 0. -1.
         11   -1    0    0    0    0 -0.00000000000E+00 -0.00000000000E+00 -0.45593999997E+02  0.45594000000E+02  0.51100000000E-03 0.  1.
         23    2    1    2    0    0  0.35527136788E-14  0.17763568394E-14 -0.71054273576E-14  0.91188000000E+02  0.91188000000E+02 0.  0.
    9900012    2    3    3    0    0 -0.19239197490E+02 -0.93096617240E+01  0.39652202188E+02  0.46142315858E+02  0.99999826440E+01 0.  0.
        -12    1    3    3    0    0  0.19239197490E+02  0.93096617240E+01 -0.39652202188E+02  0.45045684142E+02  0.00000000000E+00 0.  1.
         11    1    4    4    0    0 -0.10443760500E+02 -0.34800711828E+01  0.17531675034E+02  0.20701271907E+02  0.51100000000E-03 0. -1.
        -11    1    4    4    0    0 -0.61705894450E+01 -0.68370830147E+01  0.13256217993E+02  0.16141536296E+02  0.51100000000E-03 0.  1.
        -12    1    4    4    0    0 -0.26248475454E+01  0.10074924735E+01  0.88643091613E+01  0.92995076551E+01  0.00000000000E+00 0.  1.
</event>
<event>
 8    1  0.2882335E-009  0.9118800E+02  0.7816164E-02  0.1184000E+00
        -11   -1    0    0    0    0  0.00000000000E+00  0.00000000000E+00  0.45593999997E+02  0.45594000000E+02  0.51100000000E-03 0. -1.
         11   -1    0    0    0    0 -0.00000000000E+00 -0.00000000000E+00 -0.45593999997E+02  0.45594000000E+02  0.51100000000E-03 0.  1.
         23    2    1    2    0    0  0.00000000000E+00 -0.17763568394E-14  0.35527136788E-14  0.91188000000E+02  0.91188000000E+02 0.  0.
    9900012    2    3    3    0    0  0.38263149584E+02 -0.11657414211E+02  0.20715926705E+02  0.46142317172E+02  0.99999946286E+01 0.  0.
        -12    1    3    3    0    0 -0.38263149584E+02  0.11657414211E+02 -0.20715926705E+02  0.45045682828E+02  0.00000000000E+00 0.  1.
         11    1    4    4    0    0  0.73891473837E+01 -0.54118820373E+01  0.21928139132E+01  0.94178765846E+01  0.51100000000E-03 0. -1.
        -11    1    4    4    0    0  0.24940760998E+02 -0.43135982813E+01  0.16275168716E+02  0.30092022303E+02  0.51100000000E-03 0.  1.
        -12    1    4    4    0    0  0.59332412028E+01 -0.19319338929E+01  0.22479440758E+01  0.66324182849E+01  0.00000000000E+00 0.  1.
</event>
<event>
 8    1  0.2882335E-009  0.9118800E+02  0.7816164E-02  0.1184000E+00
        -11   -1    0    0    0    0  0.00000000000E+00  0.00000000000E+00  0.45593999997E+02  0.45594000000E+02  0.51100000000E-03 0. -1.
         11   -1    0    0    0    0 -0.00000000000E+00 -0.00000000000E+00 -0.45593999997E+02  0.45594000000E+02  0.51100000000E-03 0.  1.
         23    2    1    2    0    0  0.00000000000E+00  0.00000000000E+00 -0.71054273576E-14  0.91188000000E+02  0.91188000000E+02 0.  0.
    9900012    2    3    3    0    0 -0.70471099381E+01  0.44525480857E+01  0.44267669399E+02  0.46142317666E+02  0.99999991310E+01 0.  0.
        -12    1    3    3    0    0  0.70471099381E+01 -0.44525480857E+01 -0.44267669399E+02  0.45045682334E+02  0.00000000000E+00 0.  1.
         11    1    4    4    0    0 -0.57977038385E+01  0.68110995260E+01  0.31185948766E+02  0.32443302040E+02  0.51100000000E-03 0. -1.
        -11    1    4    4    0    0 -0.17625326185E+01 -0.28485433064E+01  0.10482922662E+02  0.11005107360E+02  0.51100000000E-03 0.  1.
        -12    1    4    4    0    0  0.51312651885E+00  0.48999186608E+00  0.25987979710E+01  0.26939082663E+01  0.00000000000E+00 0.  1.
</event>
<event>
 8    1  0.2882335E-009  0.9118800E+02  0.7816164E-02  0.1184000E+00
        -11   -1    0    0    0    0  0.00000000000E+00  0.00000000000E+00  0.45593999997E+02  0.45594000000E+02  0.51100000000E-03 0. -1.
         11   -1    0    0    0    0 -0.00000000000E+00 -0.00000000000E+00 -0.45593999997E+02  0.45594000000E+02  0.51100000000E-03 0.  1.
         23    2    1    2    0    0 -0.17763568394E-14  0.00000000000E+00  0.00000000000E+00  0.91188000000E+02  0.91188000000E+02 0.  0.
    9900012    2    3    3    0    0  0.12837695512E+02  0.84843825493E+01 -0.42335827008E+02  0.46142318500E+02  0.10000006741E+02 0.  0.
         12    1    3    3    0    0 -0.12837695512E+02 -0.84843825493E+01  0.42335827008E+02  0.45045681500E+02  0.00000000000E+00 0. -1.
         11    1    4    4    0    0  0.10587010899E+02  0.30300499826E+01 -0.26113986533E+02  0.28340894403E+02  0.51100000000E-03 0. -1.
        -11    1    4    4    0    0  0.35035569052E+01  0.35520050547E+01 -0.12174405331E+02  0.13157043601E+02  0.51100000000E-03 0.  1.
         12    1    4    4    0    0 -0.12528722927E+01  0.19023275120E+01 -0.40474351444E+01  0.46443804961E+01  0.00000000000E+00 0. -1.
</event>
<event>
 8    1  0.2882335E-009  0.9118800E+02  0.7816164E-02  0.1184000E+00
        -11   -1    0    0    0    0  0.00000000000E+00  0.00000000000E+00  0.45593999997E+02  0.45594000000E+02  0.51100000000E-03 0. -1.
         11   -1    0    0    0    0 -0.00000000000E+00 -0.00000000000E+00 -0.45593999997E+02  0.45594000000E+02  0.51100000000E-03 0.  1.
         23    2    1    2    0    0  0.00000000000E+00  0.88817841970E-15  0.00000000000E+00  0.91188000000E+02  0.91188000000E+02 0.  0.
    9900012    2    3    3    0    0 -0.40729710798E+01  0.60581949918E+01  0.44450227418E+02  0.46142317216E+02  0.99999950298E+01 0.  0.
        -12    1    3    3    0    0  0.40729710798E+01 -0.60581949918E+01 -0.44450227418E+02  0.45045682784E+02  0.00000000000E+00 0.  1.
         11    1    4    4    0    0 -0.57905310500E+01 -0.23926986548E+00  0.19551474776E+02  0.20392343320E+02  0.51100000000E-03 0. -1.
        -11    1    4    4    0    0  0.12963162977E+01  0.37810668070E+01  0.16100634664E+02  0.16589374279E+02  0.51100000000E-03 0.  1.
         12    1    4    4    0    0  0.42124367250E+00  0.25163980502E+01  0.87981179785E+01  0.91605996170E+01  0.00000000000E+00 0. -1.
</event>
<event>
 8    1  0.2882335E-009  0.9118800E+02  0.7816164E-02  0.1184000E+00
        -11   -1    0    0    0    0  0.00000000000E+00  0.00000000000E+00  0.45593999997E+02  0.45594000000E+02  0.51100000000E-03 0.  1.
         11   -1    0    0    0    0 -0.00000000000E+00 -0.00000000000E+00 -0.45593999997E+02  0.45594000000E+02  0.51100000000E-03 0. -1.
         23    2    1    2    0    0  0.00000000000E+00 -0.14210854715E-13  0.00000000000E+00  0.91188000000E+02  0.91188000000E+02 0.  0.
    9900012    2    3    3    0    0 -0.58367469192E+01 -0.41872846425E+02 -0.15547043272E+02  0.46142318333E+02  0.10000005217E+02 0.  0.
         12    1    3    3    0    0  0.58367469192E+01  0.41872846425E+02  0.15547043272E+02  0.45045681667E+02  0.00000000000E+00 0. -1.
         11    1    4    4    0    0 -0.13665610045E+01 -0.31431099427E+01  0.91026543686E+00  0.35461546100E+01  0.51100000000E-03 0. -1.
        -11    1    4    4    0    0 -0.41645601146E+01 -0.33213710372E+02 -0.15855337381E+02  0.37038977326E+02  0.51100000000E-03 0.  1.
        -12    1    4    4    0    0 -0.30562580012E+00 -0.55160261097E+01 -0.60197132810E+00  0.55571863971E+01  0.00000000000E+00 0.  1.
</event>
<event>
 8    1  0.2882335E-009  0.9118800E+02  0.7816164E-02  0.1184000E+00
        -11   -1    0    0    0    0  0.00000000000E+00  0.00000000000E+00  0.45593999997E+02  0.45594000000E+02  0.51100000000E-03 0. -1.
         11   -1    0    0    0    0 -0.00000000000E+00 -0.00000000000E+00 -0.45593999997E+02  0.45594000000E+02  0.51100000000E-03 0.  1.
         23    2    1    2    0    0  0.00000000000E+00  0.00000000000E+00  0.71054273576E-14  0.91188000000E+02  0.91188000000E+02 0.  0.
    9900012    2    3    3    0    0  0.21537517058E+02  0.82909459177E+01  0.38684738070E+02  0.46142318911E+02  0.10000010482E+02 0.  0.
        -12    1    3    3    0    0 -0.21537517058E+02 -0.82909459177E+01 -0.38684738070E+02  0.45045681089E+02  0.00000000000E+00 0.  1.
         11    1    4    4    0    0  0.11589163068E+02  0.45510470987E+01  0.14036766440E+02  0.18763036606E+02  0.51100000000E-03 0.  1.
        -11    1    4    4    0    0  0.79594107934E+01  0.14079768553E+01  0.21573700900E+02  0.23038211515E+02  0.51100000000E-03 0. -1.
         12    1    4    4    0    0  0.19889431971E+01  0.23319219637E+01  0.30742707296E+01  0.43410707901E+01  0.00000000000E+00 0. -1.
</event>
<event>
 8    1  0.2882335E-009  0.9118800E+02  0.7816164E-02  0.1184000E+00
        -11   -1    0    0    0    0  0.00000000000E+00  0.00000000000E+00  0.45593999997E+02  0.45594000000E+02  0.51100000000E-03 0. -1.
         11   -1    0    0    0    0 -0.00000000000E+00 -0.00000000000E+00 -0.45593999997E+02  0.45594000000E+02  0.51100000000E-03 0.  1.
         23    2    1    2    0    0 -0.88817841970E-15  0.00000000000E+00  0.00000000000E+00  0.91188000000E+02  0.91188000000E+02 0.  0.
    9900012    2    3    3    0    0  0.32218621613E+01 -0.21840105570E+02  0.39265034572E+02  0.46142317110E+02  0.99999940639E+01 0.  0.
        -12    1    3    3    0    0 -0.32218621613E+01  0.21840105570E+02 -0.39265034572E+02  0.45045682890E+02  0.00000000000E+00 0.  1.
         11    1    4    4    0    0  0.43106853133E+01 -0.85246186955E+01  0.16354783648E+02  0.18940171072E+02  0.51100000000E-03 0. -1.
        -11    1    4    4    0    0 -0.79496471830E+00 -0.64140825678E+01  0.55536187659E+01  0.85214497445E+01  0.51100000000E-03 0.  1.
         12    1    4    4    0    0 -0.29385843369E+00 -0.69014043069E+01  0.17356632157E+02  0.18680696294E+02  0.00000000000E+00 0. -1.
</event>
<event>
 8    1  0.2882335E-009  0.9118800E+02  0.7816164E-02  0.1184000E+00
        -11   -1    0    0    0    0  0.00000000000E+00  0.00000000000E+00  0.45593999997E+02  0.45594000000E+02  0.51100000000E-03 0. -1.
         11   -1    0    0    0    0 -0.00000000000E+00 -0.00000000000E+00 -0.45593999997E+02  0.45594000000E+02  0.51100000000E-03 0.  1.
         23    2    1    2    0    0  0.00000000000E+00  0.35527136788E-14  0.35527136788E-14  0.91188000000E+02  0.91188000000E+02 0.  0.
    9900012    2    3    3    0    0  0.20081220824E+02  0.26024954121E+02  0.30798698195E+02  0.46142317884E+02  0.10000001121E+02 0.  0.
        -12    1    3    3    0    0 -0.20081220824E+02 -0.26024954121E+02 -0.30798698195E+02  0.45045682116E+02  0.00000000000E+00 0.  1.
         11    1    4    4    0    0  0.15498529537E+02  0.17654724174E+02  0.23203587106E+02  0.33019693493E+02  0.51100000000E-03 0. -1.
        -11    1    4    4    0    0  0.11510036285E+01  0.28550543421E+01 -0.65192211586E-01  0.30790249974E+01  0.51100000000E-03 0.  1.
         12    1    4    4    0    0  0.34316876589E+01  0.55151756045E+01  0.76603033003E+01  0.10043599394E+02  0.00000000000E+00 0. -1.
</event>
<event>
 8    1  0.2882335E-009  0.9118800E+02  0.7816164E-02  0.1184000E+00
        -11   -1    0    0    0    0  0.00000000000E+00  0.00000000000E+00  0.45593999997E+02  0.45594000000E+02  0.51100000000E-03 0.  1.
         11   -1    0    0    0    0 -0.00000000000E+00 -0.00000000000E+00 -0.45593999997E+02  0.45594000000E+02  0.51100000000E-03 0. -1.
         23    2    1    2    0    0  0.22204460493E-15  0.71054273576E-14 -0.88817841970E-15  0.91188000000E+02  0.91188000000E+02 0.  0.
    9900012    2    3    3    0    0  0.11265929786E+01 -0.44407438698E+02  0.74715165506E+01  0.46142318930E+02  0.10000010663E+02 0.  0.
        -12    1    3    3    0    0 -0.11265929786E+01  0.44407438698E+02 -0.74715165506E+01  0.45045681070E+02  0.00000000000E+00 0.  1.
         11    1    4    4    0    0 -0.30795105369E+01 -0.25105429513E+02  0.58530442196E+01  0.25961974176E+02  0.51100000000E-03 0. -1.
        -11    1    4    4    0    0  0.40141889704E+01 -0.16383825431E+02  0.26581061188E+01  0.17076562220E+02  0.51100000000E-03 0.  1.
        -12    1    4    4    0    0  0.19191454506E+00 -0.29181837535E+01 -0.10396337878E+01  0.31037825350E+01  0.00000000000E+00 0.  1.
</event>
<event>
 8    1  0.2882335E-009  0.9118800E+02  0.7816164E-02  0.1184000E+00
        -11   -1    0    0    0    0  0.00000000000E+00  0.00000000000E+00  0.45593999997E+02  0.45594000000E+02  0.51100000000E-03 0. -1.
         11   -1    0    0    0    0 -0.00000000000E+00 -0.00000000000E+00 -0.45593999997E+02  0.45594000000E+02  0.51100000000E-03 0.  1.
         23    2    1    2    0    0  0.71054273576E-14  0.00000000000E+00  0.00000000000E+00  0.91188000000E+02  0.91188000000E+02 0.  0.
    9900012    2    3    3    0    0  0.32709536649E+02  0.57606431268E+01 -0.30430490199E+02  0.46142317290E+02  0.99999957072E+01 0.  0.
         12    1    3    3    0    0 -0.32709536649E+02 -0.57606431268E+01  0.30430490199E+02  0.45045682710E+02  0.00000000000E+00 0. -1.
         11    1    4    4    0    0  0.11583977525E+01 -0.44065393227E+00 -0.47119970948E+01  0.48722662205E+01  0.51100000000E-03 0. -1.
        -11    1    4    4    0    0  0.48490592063E+01  0.20016900525E+01 -0.41165413569E+01  0.66682869807E+01  0.51100000000E-03 0.  1.
         12    1    4    4    0    0  0.26702079690E+02  0.41996070066E+01 -0.21601951748E+02  0.34601764089E+02  0.00000000000E+00 0. -1.
</event>
<event>
 8    1  0.2882335E-009  0.9118800E+02  0.7816164E-02  0.1184000E+00
        -11   -1    0    0    0    0  0.00000000000E+00  0.00000000000E+00  0.45593999997E+02  0.45594000000E+02  0.51100000000E-03 0.  1.
         11   -1    0    0    0    0 -0.00000000000E+00 -0.00000000000E+00 -0.45593999997E+02  0.45594000000E+02  0.51100000000E-03 0. -1.
         23    2    1    2    0    0  0.00000000000E+00  0.00000000000E+00 -0.35527136788E-14  0.91188000000E+02  0.91188000000E+02 0.  0.
    9900012    2    3    3    0    0 -0.40342170255E+02  0.52536917517E+01  0.19339636438E+02  0.46142317461E+02  0.99999972600E+01 0.  0.
        -12    1    3    3    0    0  0.40342170255E+02 -0.52536917517E+01 -0.19339636438E+02  0.45045682539E+02  0.00000000000E+00 0.  1.
         11    1    4    4    0    0 -0.27009778996E+02  0.77612321952E+01  0.12577936371E+02  0.30789111228E+02  0.51100000000E-03 0. -1.
        -11    1    4    4    0    0 -0.28899700977E+01 -0.15759812575E+01  0.13890714207E+01  0.35728369348E+01  0.51100000000E-03 0.  1.
         12    1    4    4    0    0 -0.10442421161E+02 -0.93155918602E+00  0.53726286462E+01  0.11780369298E+02  0.00000000000E+00 0. -1.
</event>
<event>
 8    1  0.2882335E-009  0.9118800E+02  0.7816164E-02  0.1184000E+00
        -11   -1    0    0    0    0  0.00000000000E+00  0.00000000000E+00  0.45593999997E+02  0.45594000000E+02  0.51100000000E-03 0. -1.
         11   -1    0    0    0    0 -0.00000000000E+00 -0.00000000000E+00 -0.45593999997E+02  0.45594000000E+02  0.51100000000E-03 0.  1.
         23    2    1    2    0    0  0.00000000000E+00  0.00000000000E+00  0.17763568394E-14  0.91188000000E+02  0.91188000000E+02 0.  0.
    9900012    2    3    3    0    0  0.14857697308E+02 -0.40765400088E+02  0.12105557076E+02  0.46142317346E+02  0.99999962113E+01 0.  0.
        -12    1    3    3    0    0 -0.14857697308E+02  0.40765400088E+02 -0.12105557076E+02  0.45045682654E+02  0.00000000000E+00 0.  1.
         11    1    4    4    0    0  0.42137548180E+01 -0.44567181425E+01  0.11060617887E+01  0.62322900453E+01  0.51100000000E-03 0. -1.
        -11    1    4    4    0    0  0.16594438012E+01 -0.21432953195E+01  0.22320988277E+01  0.35113720956E+01  0.51100000000E-03 0.  1.
        -12    1    4    4    0    0  0.89844986889E+01 -0.34165386626E+02  0.87673964600E+01  0.36398655205E+02  0.00000000000E+00 0.  1.
</event>
<event>
 8    1  0.2882335E-009  0.9118800E+02  0.7816164E-02  0.1184000E+00
        -11   -1    0    0    0    0  0.00000000000E+00  0.00000000000E+00  0.45593999997E+02  0.45594000000E+02  0.51100000000E-03 0. -1.
         11   -1    0    0    0    0 -0.00000000000E+00 -0.00000000000E+00 -0.45593999997E+02  0.45594000000E+02  0.51100000000E-03 0.  1.
         23    2    1    2    0    0  0.00000000000E+00  0.00000000000E+00  0.35527136788E-14  0.91188000000E+02  0.91188000000E+02 0.  0.
    9900012    2    3    3    0    0  0.25410287203E+01  0.33509517596E+02 -0.29996147481E+02  0.46142318074E+02  0.10000002855E+02 0.  0.
         12    1    3    3    0    0 -0.25410287203E+01 -0.33509517596E+02  0.29996147481E+02  0.45045681926E+02  0.00000000000E+00 0. -1.
         11    1    4    4    0    0 -0.87567342441E+00  0.94004699404E+01 -0.10369495546E+02  0.14023625679E+02  0.51100000000E-03 0. -1.
        -11    1    4    4    0    0  0.55871328959E+00  0.21211441055E+02 -0.17620774767E+02  0.27581317877E+02  0.51100000000E-03 0.  1.
        -12    1    4    4    0    0  0.28579888551E+01  0.28976066001E+01 -0.20058771676E+01  0.45373745180E+01  0.00000000000E+00 0.  1.
</event>
<event>
 8    1  0.2882335E-009  0.9118800E+02  0.7816164E-02  0.1184000E+00
        -11   -1    0    0    0    0  0.00000000000E+00  0.00000000000E+00  0.45593999997E+02  0.45594000000E+02  0.51100000000E-03 0. -1.
         11   -1    0    0    0    0 -0.00000000000E+00 -0.00000000000E+00 -0.45593999997E+02  0.45594000000E+02  0.51100000000E-03 0.  1.
         23    2    1    2    0    0  0.00000000000E+00  0.00000000000E+00  0.00000000000E+00  0.91188000000E+02  0.91188000000E+02 0.  0.
    9900012    2    3    3    0    0 -0.22994152863E+02  0.38278895925E+02 -0.59252481904E+01  0.46142317574E+02  0.99999982932E+01 0.  0.
         12    1    3    3    0    0  0.22994152863E+02 -0.38278895925E+02  0.59252481904E+01  0.45045682426E+02  0.00000000000E+00 0. -1.
         11    1    4    4    0    0 -0.65968244473E+01  0.14391306088E+02 -0.24042563594E+01  0.16012752187E+02  0.51100000000E-03 0. -1.
        -11    1    4    4    0    0 -0.10772462343E+02  0.13349102040E+02 -0.55156542601E+01  0.18018515821E+02  0.51100000000E-03 0.  1.
        -12    1    4    4    0    0 -0.56248660725E+01  0.10538487797E+02  0.19946624291E+01  0.12111049566E+02  0.00000000000E+00 0.  1.
</event>
<event>
 8    1  0.2882335E-009  0.9118800E+02  0.7816164E-02  0.1184000E+00
        -11   -1    0    0    0    0  0.00000000000E+00  0.00000000000E+00  0.45593999997E+02  0.45594000000E+02  0.51100000000E-03 0. -1.
         11   -1    0    0    0    0 -0.00000000000E+00 -0.00000000000E+00 -0.45593999997E+02  0.45594000000E+02  0.51100000000E-03 0.  1.
         23    2    1    2    0    0  0.00000000000E+00  0.00000000000E+00 -0.71054273576E-14  0.91188000000E+02  0.91188000000E+02 0.  0.
    9900012    2    3    3    0    0  0.23638827442E+02  0.12558492374E+02 -0.36229869870E+02  0.46142319138E+02  0.10000012558E+02 0.  0.
         12    1    3    3    0    0 -0.23638827442E+02 -0.12558492374E+02  0.36229869870E+02  0.45045680862E+02  0.00000000000E+00 0. -1.
         11    1    4    4    0    0  0.47709885339E+01  0.73104017450E+01 -0.12399501769E+02  0.15164166632E+02  0.51100000000E-03 0. -1.
        -11    1    4    4    0    0  0.10631497310E+02  0.44240772803E+01 -0.13796070809E+02  0.17970330127E+02  0.51100000000E-03 0.  1.
         12    1    4    4    0    0  0.82363415982E+01  0.82401334831E+00 -0.10034297292E+02  0.13007822380E+02  0.00000000000E+00 0. -1.
</event>
<event>
 8    1  0.2882335E-009  0.9118800E+02  0.7816164E-02  0.1184000E+00
        -11   -1    0    0    0    0  0.00000000000E+00  0.00000000000E+00  0.45593999997E+02  0.45594000000E+02  0.51100000000E-03 0. -1.
         11   -1    0    0    0    0 -0.00000000000E+00 -0.00000000000E+00 -0.45593999997E+02  0.45594000000E+02  0.51100000000E-03 0.  1.
         23    2    1    2    0    0  0.00000000000E+00  0.35527136788E-14  0.00000000000E+00  0.91188000000E+02  0.91188000000E+02 0.  0.
    9900012    2    3    3    0    0 -0.41218635998E+02  0.18087392841E+02 -0.17273417219E+01  0.46142318268E+02  0.10000004619E+02 0.  0.
         12    1    3    3    0    0  0.41218635998E+02 -0.18087392841E+02  0.17273417219E+01  0.45045681732E+02  0.00000000000E+00 0. -1.
         11    1    4    4    0    0 -0.73868021084E+01  0.58683521116E+01 -0.81540798234E+00  0.94692815110E+01  0.51100000000E-03 0. -1.
        -11    1    4    4    0    0 -0.17737955073E+02  0.28271408523E+01  0.65191982131E+00  0.17973668944E+02  0.51100000000E-03 0.  1.
        -12    1    4    4    0    0 -0.16093878816E+02  0.93918998768E+01 -0.15638535609E+01  0.18699367813E+02  0.00000000000E+00 0.  1.
</event>
<event>
 8    1  0.2882335E-009  0.9118800E+02  0.7816164E-02  0.1184000E+00
        -11   -1    0    0    0    0  0.00000000000E+00  0.00000000000E+00  0.45593999997E+02  0.45594000000E+02  0.51100000000E-03 0. -1.
         11   -1    0    0    0    0 -0.00000000000E+00 -0.00000000000E+00 -0.45593999997E+02  0.45594000000E+02  0.51100000000E-03 0.  1.
         23    2    1    2    0    0  0.00000000000E+00  0.35527136788E-14  0.00000000000E+00  0.91188000000E+02  0.91188000000E+02 0.  0.
    9900012    2    3    3    0    0  0.33516910306E+02  0.17185811725E+02 -0.24705831412E+02  0.46142317556E+02  0.99999981281E+01 0.  0.
         12    1    3    3    0    0 -0.33516910306E+02 -0.17185811725E+02  0.24705831412E+02  0.45045682444E+02  0.00000000000E+00 0. -1.
         11    1    4    4    0    0 -0.61707399416E-02 -0.10481530470E+00 -0.39382371546E+00  0.40758030633E+00  0.51100000000E-03 0. -1.
        -11    1    4    4    0    0  0.74162276233E+01  0.82690556757E+01 -0.74020843056E+01  0.13347979857E+02  0.51100000000E-03 0.  1.
        -12    1    4    4    0    0  0.26106853423E+02  0.90215713535E+01 -0.16909923391E+02  0.32386757393E+02  0.00000000000E+00 0.  1.
</event>
<event>
 8    1  0.2882335E-009  0.9118800E+02  0.7816164E-02  0.1184000E+00
        -11   -1    0    0    0    0  0.00000000000E+00  0.00000000000E+00  0.45593999997E+02  0.45594000000E+02  0.51100000000E-03 0. -1.
         11   -1    0    0    0    0 -0.00000000000E+00 -0.00000000000E+00 -0.45593999997E+02  0.45594000000E+02  0.51100000000E-03 0.  1.
         23    2    1    2    0    0  0.71054273576E-14 -0.17763568394E-14  0.00000000000E+00  0.91188000000E+02  0.91188000000E+02 0.  0.
    9900012    2    3    3    0    0 -0.32628510011E+02  0.13007140923E+02 -0.28201213777E+02  0.46142313869E+02  0.99999645063E+01 0.  0.
         12    1    3    3    0    0  0.32628510011E+02 -0.13007140923E+02  0.28201213777E+02  0.45045686131E+02  0.00000000000E+00 0. -1.
         11    1    4    4    0    0 -0.32242624344E+01  0.65876022457E+00 -0.47573477231E+01  0.57846513204E+01  0.51100000000E-03 0. -1.
        -11    1    4    4    0    0 -0.27843434558E+02  0.13178464867E+02 -0.20771604095E+02  0.37153577502E+02  0.51100000000E-03 0.  1.
        -12    1    4    4    0    0 -0.15608130183E+01 -0.83008416897E+00 -0.26722619590E+01  0.32040850462E+01  0.00000000000E+00 0.  1.
</event>
<event>
 8    1  0.2882335E-009  0.9118800E+02  0.7816164E-02  0.1184000E+00
        -11   -1    0    0    0    0  0.00000000000E+00  0.00000000000E+00  0.45593999997E+02  0.45594000000E+02  0.51100000000E-03 0. -1.
         11   -1    0    0    0    0 -0.00000000000E+00 -0.00000000000E+00 -0.45593999997E+02  0.45594000000E+02  0.51100000000E-03 0.  1.
         23    2    1    2    0    0  0.00000000000E+00  0.00000000000E+00  0.00000000000E+00  0.91188000000E+02  0.91188000000E+02 0.  0.
    9900012    2    3    3    0    0  0.28580410740E+02 -0.25281571037E+02  0.23939836616E+02  0.46142317750E+02  0.99999999016E+01 0.  0.
        -12    1    3    3    0    0 -0.28580410740E+02  0.25281571037E+02 -0.23939836616E+02  0.45045682250E+02  0.00000000000E+00 0.  1.
         11    1    4    4    0    0  0.14490193896E+02 -0.12319758094E+02  0.15154247862E+02  0.24318581109E+02  0.51100000000E-03 0. -1.
        -11    1    4    4    0    0  0.63032539047E+00 -0.21127693608E+01  0.27229237736E+01  0.35036293479E+01  0.51100000000E-03 0.  1.
         12    1    4    4    0    0  0.13459891453E+02 -0.10849043582E+02  0.60626649808E+01  0.18320107293E+02  0.00000000000E+00 0. -1.
</event>
<event>
 8    1  0.2882335E-009  0.9118800E+02  0.7816164E-02  0.1184000E+00
        -11   -1    0    0    0    0  0.00000000000E+00  0.00000000000E+00  0.45593999997E+02  0.45594000000E+02  0.51100000000E-03 0. -1.
         11   -1    0    0    0    0 -0.00000000000E+00 -0.00000000000E+00 -0.45593999997E+02  0.45594000000E+02  0.51100000000E-03 0.  1.
         23    2    1    2    0    0  0.00000000000E+00  0.00000000000E+00  0.00000000000E+00  0.91188000000E+02  0.91188000000E+02 0.  0.
    9900012    2    3    3    0    0 -0.25482119172E+02 -0.40595012222E+01  0.36922831887E+02  0.46142318051E+02  0.10000002640E+02 0.  0.
        -12    1    3    3    0    0  0.25482119172E+02  0.40595012222E+01 -0.36922831887E+02  0.45045681949E+02  0.00000000000E+00 0.  1.
         11    1    4    4    0    0 -0.58807136683E+01 -0.29092937089E+01  0.13851064500E+02  0.15326407641E+02  0.51100000000E-03 0. -1.
        -11    1    4    4    0    0 -0.13647697486E+02  0.11200289432E+01  0.18296009636E+02  0.22852966555E+02  0.51100000000E-03 0.  1.
        -12    1    4    4    0    0 -0.59537080178E+01 -0.22702364565E+01  0.47757577518E+01  0.79629438547E+01  0.00000000000E+00 0.  1.
</event>
<event>
 8    1  0.2882335E-009  0.9118800E+02  0.7816164E-02  0.1184000E+00
        -11   -1    0    0    0    0  0.00000000000E+00  0.00000000000E+00  0.45593999997E+02  0.45594000000E+02  0.51100000000E-03 0. -1.
         11   -1    0    0    0    0 -0.00000000000E+00 -0.00000000000E+00 -0.45593999997E+02  0.45594000000E+02  0.51100000000E-03 0.  1.
         23    2    1    2    0    0  0.00000000000E+00  0.00000000000E+00  0.00000000000E+00  0.91188000000E+02  0.91188000000E+02 0.  0.
    9900012    2    3    3    0    0 -0.26507311658E+02  0.26707974286E+02  0.24762065624E+02  0.46142319233E+02  0.10000013423E+02 0.  0.
        -12    1    3    3    0    0  0.26507311658E+02 -0.26707974286E+02 -0.24762065624E+02  0.45045680767E+02  0.00000000000E+00 0.  1.
         11    1    4    4    0    0 -0.88220626649E+01  0.60549785204E+01  0.78175054873E+01  0.13251601671E+02  0.51100000000E-03 0. -1.
        -11    1    4    4    0    0  0.42195629207E+00  0.14888489129E+01  0.21778757570E+01  0.26716776138E+01  0.51100000000E-03 0.  1.
         12    1    4    4    0    0 -0.18107205285E+02  0.19164146853E+02  0.14766684379E+02  0.30219039948E+02  0.00000000000E+00 0. -1.
</event>
<event>
 8    1  0.2882335E-009  0.9118800E+02  0.7816164E-02  0.1184000E+00
        -11   -1    0    0    0    0  0.00000000000E+00  0.00000000000E+00  0.45593999997E+02  0.45594000000E+02  0.51100000000E-03 0. -1.
         11   -1    0    0    0    0 -0.00000000000E+00 -0.00000000000E+00 -0.45593999997E+02  0.45594000000E+02  0.51100000000E-03 0.  1.
         23    2    1    2    0    0  0.17763568394E-14 -0.35527136788E-14  0.00000000000E+00  0.91188000000E+02  0.91188000000E+02 0.  0.
    9900012    2    3    3    0    0  0.13854212559E+02  0.17233616147E+02  0.39245085587E+02  0.46142317922E+02  0.10000001467E+02 0.  0.
        -12    1    3    3    0    0 -0.13854212559E+02 -0.17233616147E+02 -0.39245085587E+02  0.45045682078E+02  0.00000000000E+00 0.  1.
         11    1    4    4    0    0 -0.85971205136E+00  0.35115180250E+00  0.26729273602E+01  0.28296560452E+01  0.51100000000E-03 0. -1.
        -11    1    4    4    0    0  0.31733508364E+01  0.80235752927E+01  0.14650945230E+02  0.17002885414E+02  0.51100000000E-03 0.  1.
         12    1    4    4    0    0  0.11540573774E+02  0.88588890523E+01  0.21921212997E+02  0.26309776463E+02  0.00000000000E+00 0. -1.
</event>
<event>
 8    1  0.2882335E-009  0.9118800E+02  0.7816164E-02  0.1184000E+00
        -11   -1    0    0    0    0  0.00000000000E+00  0.00000000000E+00  0.45593999997E+02  0.45594000000E+02  0.51100000000E-03 0. -1.
         11   -1    0    0    0    0 -0.00000000000E+00 -0.00000000000E+00 -0.45593999997E+02  0.45594000000E+02  0.51100000000E-03 0.  1.
         23    2    1    2    0    0 -0.17763568394E-14 -0.88817841970E-15 -0.71054273576E-14  0.91188000000E+02  0.91188000000E+02 0.  0.
    9900012    2    3    3    0    0 -0.90868975342E+01 -0.65499356333E+01 -0.43630723620E+02  0.46142318662E+02  0.10000008217E+02 0.  0.
         12    1    3    3    0    0  0.90868975342E+01  0.65499356333E+01  0.43630723620E+02  0.45045681338E+02  0.00000000000E+00 0. -1.
         11    1    4    4    0    0  0.90105655404E-01 -0.65365416093E+00 -0.79577899293E+00  0.10337539639E+01  0.51100000000E-03 0. -1.
        -11    1    4    4    0    0 -0.10889462308E+02 -0.42051454980E+01 -0.36965966992E+02  0.38765272525E+02  0.51100000000E-03 0.  1.
        -12    1    4    4    0    0  0.17124591187E+01 -0.16911359743E+01 -0.58689776344E+01  0.63432921728E+01  0.00000000000E+00 0.  1.
</event>
<event>
 8    1  0.2882335E-009  0.9118800E+02  0.7816164E-02  0.1184000E+00
        -11   -1    0    0    0    0  0.00000000000E+00  0.00000000000E+00  0.45593999997E+02  0.45594000000E+02  0.51100000000E-03 0. -1.
         11   -1    0    0    0    0 -0.00000000000E+00 -0.00000000000E+00 -0.45593999997E+02  0.45594000000E+02  0.51100000000E-03 0.  1.
         23    2    1    2    0    0  0.00000000000E+00  0.00000000000E+00 -0.71054273576E-14  0.91188000000E+02  0.91188000000E+02 0.  0.
    9900012    2    3    3    0    0 -0.17552996699E+02 -0.22528297169E+02 -0.34835063042E+02  0.46142317814E+02  0.10000000483E+02 0.  0.
         12    1    3    3    0    0  0.17552996699E+02  0.22528297169E+02  0.34835063042E+02  0.45045682186E+02  0.00000000000E+00 0. -1.
         11    1    4    4    0    0 -0.53954912002E+01 -0.54732412568E+01 -0.40006470619E+01  0.86644603018E+01  0.51100000000E-03 0. -1.
        -11    1    4    4    0    0 -0.11858755800E+02 -0.17206969592E+02 -0.29850868523E+02  0.36438773902E+02  0.51100000000E-03 0.  1.
        -12    1    4    4    0    0 -0.29874969922E+00  0.15191367957E+00 -0.98354745665E+00  0.10390836099E+01  0.00000000000E+00 0.  1.
</event>
<event>
 8    1  0.2882335E-009  0.9118800E+02  0.7816164E-02  0.1184000E+00
        -11   -1    0    0    0    0  0.00000000000E+00  0.00000000000E+00  0.45593999997E+02  0.45594000000E+02  0.51100000000E-03 0. -1.
         11   -1    0    0    0    0 -0.00000000000E+00 -0.00000000000E+00 -0.45593999997E+02  0.45594000000E+02  0.51100000000E-03 0.  1.
         23    2    1    2    0    0  0.00000000000E+00  0.00000000000E+00  0.00000000000E+00  0.91188000000E+02  0.91188000000E+02 0.  0.
    9900012    2    3    3    0    0  0.32861681222E+02 -0.29573039445E+02 -0.86405321437E+01  0.46142317071E+02  0.99999937113E+01 0.  0.
         12    1    3    3    0    0 -0.32861681222E+02  0.29573039445E+02  0.86405321437E+01  0.45045682929E+02  0.00000000000E+00 0. -1.
         11    1    4    4    0    0  0.80742815653E+01 -0.12229887851E+02 -0.39154810648E+01  0.15168888288E+02  0.51100000000E-03 0. -1.
        -11    1    4    4    0    0  0.21555767221E+02 -0.16807802272E+02 -0.41373844375E+01  0.27645456552E+02  0.51100000000E-03 0.  1.
        -12    1    4    4    0    0  0.32316324357E+01 -0.53534932165E+00 -0.58766664144E+00  0.33279722320E+01  0.00000000000E+00 0.  1.
</event>
<event>
 8    1  0.2882335E-009  0.9118800E+02  0.7816164E-02  0.1184000E+00
        -11   -1    0    0    0    0  0.00000000000E+00  0.00000000000E+00  0.45593999997E+02  0.45594000000E+02  0.51100000000E-03 0. -1.
         11   -1    0    0    0    0 -0.00000000000E+00 -0.00000000000E+00 -0.45593999997E+02  0.45594000000E+02  0.51100000000E-03 0.  1.
         23    2    1    2    0    0  0.00000000000E+00  0.00000000000E+00  0.00000000000E+00  0.91188000000E+02  0.91188000000E+02 0.  0.
    9900012    2    3    3    0    0 -0.38806072721E+02  0.57239645061E+01 -0.22145844636E+02  0.46142317806E+02  0.10000000406E+02 0.  0.
         12    1    3    3    0    0  0.38806072721E+02 -0.57239645061E+01  0.22145844636E+02  0.45045682194E+02  0.00000000000E+00 0. -1.
         11    1    4    4    0    0 -0.37253949637E+01 -0.13106009697E+00 -0.36057691891E+01  0.51862622467E+01  0.51100000000E-03 0. -1.
        -11    1    4    4    0    0 -0.14255306538E+02  0.68761880637E+00 -0.33305758086E+01  0.14655351227E+02  0.51100000000E-03 0.  1.
        -12    1    4    4    0    0 -0.20825371220E+02  0.51674057967E+01 -0.15209499638E+02  0.26300704332E+02  0.00000000000E+00 0.  1.
</event>
<event>
 8    1  0.3039443E-009  0.9118800E+02  0.7816164E-02  0.1184000E+00
        -11   -1    0    0    0    0  0.00000000000E+00  0.00000000000E+00  0.45593999997E+02  0.45594000000E+02  0.51100000000E-03 0. -1.
         11   -1    0    0    0    0 -0.00000000000E+00 -0.00000000000E+00 -0.45593999997E+02  0.45594000000E+02  0.51100000000E-03 0.  1.
         23    2    1    2    0    0 -0.88817841970E-15  0.00000000000E+00  0.00000000000E+00  0.91188000000E+02  0.91188000000E+02 0.  0.
    9900012    2    3    3    0    0  0.41030233097E+01 -0.28397839168E+02  0.34725228691E+02  0.46142316774E+02  0.99999909959E+01 0.  0.
        -12    1    3    3    0    0 -0.41030233097E+01  0.28397839168E+02 -0.34725228691E+02  0.45045683226E+02  0.00000000000E+00 0.  1.
         11    1    4    4    0    0  0.54407083831E+01 -0.14631015993E+02  0.23310055259E+02  0.28053994602E+02  0.51100000000E-03 0. -1.
        -11    1    4    4    0    0 -0.19738745281E+01 -0.87552522594E+01  0.75263704732E+01  0.11713106998E+02  0.51100000000E-03 0.  1.
         12    1    4    4    0    0  0.63618945468E+00 -0.50115709151E+01  0.38888029592E+01  0.63752151740E+01  0.00000000000E+00 0. -1.
</event>
<event>
 8    1  0.2882335E-009  0.9118800E+02  0.7816164E-02  0.1184000E+00
        -11   -1    0    0    0    0  0.00000000000E+00  0.00000000000E+00  0.45593999997E+02  0.45594000000E+02  0.51100000000E-03 0. -1.
         11   -1    0    0    0    0 -0.00000000000E+00 -0.00000000000E+00 -0.45593999997E+02  0.45594000000E+02  0.51100000000E-03 0.  1.
         23    2    1    2    0    0 -0.17763568394E-14  0.35527136788E-14  0.00000000000E+00  0.91188000000E+02  0.91188000000E+02 0.  0.
    9900012    2    3    3    0    0  0.12479167556E+02 -0.16846877748E+02  0.39869362554E+02  0.46142323368E+02  0.10000051130E+02 0.  0.
        -12    1    3    3    0    0 -0.12479167556E+02  0.16846877748E+02 -0.39869362554E+02  0.45045676632E+02  0.00000000000E+00 0.  1.
         11    1    4    4    0    0  0.45914112379E+01 -0.15536394511E+00  0.72343429122E+01  0.85697673681E+01  0.51100000000E-03 0.  1.
        -11    1    4    4    0    0  0.31855488385E+01 -0.95332497142E+01  0.17303900728E+02  0.20011385564E+02  0.51100000000E-03 0. -1.
        -12    1    4    4    0    0  0.47022074795E+01 -0.71582640890E+01  0.15331118914E+02  0.17561170436E+02  0.00000000000E+00 0.  1.
</event>
<event>
 8    1  0.2882335E-009  0.9118800E+02  0.7816164E-02  0.1184000E+00
        -11   -1    0    0    0    0  0.00000000000E+00  0.00000000000E+00  0.45593999997E+02  0.45594000000E+02  0.51100000000E-03 0. -1.
         11   -1    0    0    0    0 -0.00000000000E+00 -0.00000000000E+00 -0.45593999997E+02  0.45594000000E+02  0.51100000000E-03 0.  1.
         23    2    1    2    0    0  0.00000000000E+00  0.00000000000E+00 -0.35527136788E-14  0.91188000000E+02  0.91188000000E+02 0.  0.
    9900012    2    3    3    0    0  0.12124325562E+02  0.38817951435E+02 -0.19372171790E+02  0.46142315814E+02  0.99999822459E+01 0.  0.
         12    1    3    3    0    0 -0.12124325562E+02 -0.38817951435E+02  0.19372171790E+02  0.45045684186E+02  0.00000000000E+00 0. -1.
         11    1    4    4    0    0  0.88420311720E+01  0.18566206054E+02 -0.53103218615E+01  0.21238762700E+02  0.51100000000E-03 0. -1.
        -11    1    4    4    0    0  0.57819568465E+00  0.62400604145E+01 -0.47561987916E+01  0.78672797988E+01  0.51100000000E-03 0.  1.
         12    1    4    4    0    0  0.27040987049E+01  0.14011684966E+02 -0.93056511369E+01  0.17036273316E+02  0.00000000000E+00 0. -1.
</event>
<event>
 8    1  0.2882335E-009  0.9118800E+02  0.7816164E-02  0.1184000E+00
        -11   -1    0    0    0    0  0.00000000000E+00  0.00000000000E+00  0.45593999997E+02  0.45594000000E+02  0.51100000000E-03 0. -1.
         11   -1    0    0    0    0 -0.00000000000E+00 -0.00000000000E+00 -0.45593999997E+02  0.45594000000E+02  0.51100000000E-03 0.  1.
         23    2    1    2    0    0  0.00000000000E+00  0.00000000000E+00  0.00000000000E+00  0.91188000000E+02  0.91188000000E+02 0.  0.
    9900012    2    3    3    0    0  0.38445497521E+02  0.13791318128E+02 -0.18996251124E+02  0.46142308839E+02  0.99999186447E+01 0.  0.
         12    1    3    3    0    0 -0.38445497521E+02 -0.13791318128E+02  0.18996251124E+02  0.45045691161E+02  0.00000000000E+00 0. -1.
         11    1    4    4    0    0  0.76142527346E+01  0.36165823571E+01 -0.68839717000E+01  0.10883270615E+02  0.51100000000E-03 0. -1.
        -11    1    4    4    0    0  0.13456882666E+02  0.12220751876E+01 -0.39489526615E+01  0.14077477979E+02  0.51100000000E-03 0.  1.
        -12    1    4    4    0    0  0.17374362121E+02  0.89526605835E+01 -0.81633267626E+01  0.21181560246E+02  0.00000000000E+00 0.  1.
</event>
<event>
 8    1  0.2882335E-009  0.9118800E+02  0.7816164E-02  0.1184000E+00
        -11   -1    0    0    0    0  0.00000000000E+00  0.00000000000E+00  0.45593999997E+02  0.45594000000E+02  0.51100000000E-03 0. -1.
         11   -1    0    0    0    0 -0.00000000000E+00 -0.00000000000E+00 -0.45593999997E+02  0.45594000000E+02  0.51100000000E-03 0.  1.
         23    2    1    2    0    0  0.00000000000E+00  0.00000000000E+00  0.00000000000E+00  0.91188000000E+02  0.91188000000E+02 0.  0.
    9900012    2    3    3    0    0 -0.25732783233E+02  0.20881293229E+02  0.30510796632E+02  0.46142320396E+02  0.10000024030E+02 0.  0.
        -12    1    3    3    0    0  0.25732783233E+02 -0.20881293229E+02 -0.30510796632E+02  0.45045679604E+02  0.00000000000E+00 0.  1.
         11    1    4    4    0    0 -0.67223670282E+01  0.30792007730E+01  0.40408684564E+01  0.84261684060E+01  0.51100000000E-03 0. -1.
        -11    1    4    4    0    0 -0.58636481946E+01  0.80253249882E+01  0.64578420437E+01  0.11852929403E+02  0.51100000000E-03 0.  1.
         12    1    4    4    0    0 -0.13146768010E+02  0.97767674675E+01  0.20012086132E+02  0.25863222587E+02  0.00000000000E+00 0. -1.
</event>
<event>
 8    1  0.2882335E-009  0.9118800E+02  0.7816164E-02  0.1184000E+00
        -11   -1    0    0    0    0  0.00000000000E+00  0.00000000000E+00  0.45593999997E+02  0.45594000000E+02  0.51100000000E-03 0. -1.
         11   -1    0    0    0    0 -0.00000000000E+00 -0.00000000000E+00 -0.45593999997E+02  0.45594000000E+02  0.51100000000E-03 0.  1.
         23    2    1    2    0    0 -0.44408920985E-15  0.00000000000E+00  0.00000000000E+00  0.91188000000E+02  0.91188000000E+02 0.  0.
    9900012    2    3    3    0    0 -0.18515530515E+01  0.29936228011E+02 -0.33608144263E+02  0.46142319219E+02  0.10000013292E+02 0.  0.
         12    1    3    3    0    0  0.18515530515E+01 -0.29936228011E+02  0.33608144263E+02  0.45045680781E+02  0.00000000000E+00 0. -1.
         11    1    4    4    0    0  0.60183035757E-01  0.61424590204E+01 -0.13347090759E+02  0.14692796086E+02  0.51100000000E-03 0. -1.
        -11    1    4    4    0    0 -0.23483005754E+01  0.13268048509E+02 -0.12312960460E+02  0.18252797659E+02  0.51100000000E-03 0.  1.
         12    1    4    4    0    0  0.43656448809E+00  0.10525720481E+02 -0.79480930440E+01  0.13196725474E+02  0.00000000000E+00 0. -1.
</event>
<event>
 8    1  0.2882335E-009  0.9118800E+02  0.7816164E-02  0.1184000E+00
        -11   -1    0    0    0    0  0.00000000000E+00  0.00000000000E+00  0.45593999997E+02  0.45594000000E+02  0.51100000000E-03 0. -1.
         11   -1    0    0    0    0 -0.00000000000E+00 -0.00000000000E+00 -0.45593999997E+02  0.45594000000E+02  0.51100000000E-03 0.  1.
         23    2    1    2    0    0  0.11102230246E-15 -0.35527136788E-14  0.71054273576E-14  0.91188000000E+02  0.91188000000E+02 0.  0.
    9900012    2    3    3    0    0  0.80035726327E+00  0.28409841725E+02  0.34947875893E+02  0.46142315323E+02  0.99999777691E+01 0.  0.
        -12    1    3    3    0    0 -0.80035726327E+00 -0.28409841725E+02 -0.34947875893E+02  0.45045684677E+02  0.00000000000E+00 0.  1.
         11    1    4    4    0    0  0.12027993924E+01  0.70144163727E+01  0.73485427658E+01  0.10229850657E+02  0.51100000000E-03 0. -1.
        -11    1    4    4    0    0  0.20994233710E+01  0.10154833651E+02  0.18608536308E+02  0.21302719281E+02  0.51100000000E-03 0.  1.
        -12    1    4    4    0    0 -0.25018655001E+01  0.11240591701E+02  0.89907968190E+01  0.14609745385E+02  0.00000000000E+00 0.  1.
</event>
<event>
 8    1  0.2882335E-009  0.9118800E+02  0.7816164E-02  0.1184000E+00
        -11   -1    0    0    0    0  0.00000000000E+00  0.00000000000E+00  0.45593999997E+02  0.45594000000E+02  0.51100000000E-03 0. -1.
         11   -1    0    0    0    0 -0.00000000000E+00 -0.00000000000E+00 -0.45593999997E+02  0.45594000000E+02  0.51100000000E-03 0.  1.
         23    2    1    2    0    0 -0.35527136788E-14  0.00000000000E+00  0.00000000000E+00  0.91188000000E+02  0.91188000000E+02 0.  0.
    9900012    2    3    3    0    0  0.30283955578E+02  0.20213918541E+02  0.26521557705E+02  0.46142317728E+02  0.99999996973E+01 0.  0.
        -12    1    3    3    0    0 -0.30283955578E+02 -0.20213918541E+02 -0.26521557705E+02  0.45045682272E+02  0.00000000000E+00 0.  1.
         11    1    4    4    0    0  0.17376581775E+02  0.14030234207E+02  0.18584272553E+02  0.29054573696E+02  0.51100000000E-03 0. -1.
        -11    1    4    4    0    0  0.81690564983E+01  0.37332403048E+01  0.21869336497E+01  0.92440925079E+01  0.51100000000E-03 0.  1.
        -12    1    4    4    0    0  0.47383173049E+01  0.24504440293E+01  0.57503515026E+01  0.78436515238E+01  0.00000000000E+00 0.  1.
</event>
<event>
 8    1  0.2882335E-009  0.9118800E+02  0.7816164E-02  0.1184000E+00
        -11   -1    0    0    0    0  0.00000000000E+00  0.00000000000E+00  0.45593999997E+02  0.45594000000E+02  0.51100000000E-03 0. -1.
         11   -1    0    0    0    0 -0.00000000000E+00 -0.00000000000E+00 -0.45593999997E+02  0.45594000000E+02  0.51100000000E-03 0.  1.
         23    2    1    2    0    0  0.00000000000E+00  0.35527136788E-14  0.00000000000E+00  0.91188000000E+02  0.91188000000E+02 0.  0.
    9900012    2    3    3    0    0 -0.23336081704E+02 -0.27897677780E+02  0.26575558972E+02  0.46142317970E+02  0.10000001908E+02 0.  0.
        -12    1    3    3    0    0  0.23336081704E+02  0.27897677780E+02 -0.26575558972E+02  0.45045682030E+02  0.00000000000E+00 0.  1.
         11    1    4    4    0    0 -0.96073991146E+01 -0.14401067707E+02  0.12983477411E+02  0.21639398208E+02  0.51100000000E-03 0.  1.
        -11    1    4    4    0    0  0.26004643596E+00 -0.45839234429E+00 -0.51720999827E+00  0.73841325394E+00  0.51100000000E-03 0. -1.
         12    1    4    4    0    0 -0.13988729025E+02 -0.13038217729E+02  0.14109291559E+02  0.23764506508E+02  0.00000000000E+00 0. -1.
</event>
<event>
 8    1  0.2882335E-009  0.9118800E+02  0.7816164E-02  0.1184000E+00
        -11   -1    0    0    0    0  0.00000000000E+00  0.00000000000E+00  0.45593999997E+02  0.45594000000E+02  0.51100000000E-03 0. -1.
         11   -1    0    0    0    0 -0.00000000000E+00 -0.00000000000E+00 -0.45593999997E+02  0.45594000000E+02  0.51100000000E-03 0.  1.
         23    2    1    2    0    0  0.44408920985E-15 -0.71054273576E-14  0.00000000000E+00  0.91188000000E+02  0.91188000000E+02 0.  0.
    9900012    2    3    3    0    0  0.25176725181E+01 -0.44469318914E+02 -0.67271478923E+01  0.46142317429E+02  0.99999969676E+01 0.  0.
        -12    1    3    3    0    0 -0.25176725181E+01  0.44469318914E+02  0.67271478923E+01  0.45045682571E+02  0.00000000000E+00 0.  1.
         11    1    4    4    0    0  0.19770346245E+01 -0.51027542725E+01 -0.31315123875E+01  0.63050088950E+01  0.51100000000E-03 0. -1.
        -11    1    4    4    0    0 -0.21711927339E+01 -0.18459689581E+02 -0.20233639400E+01  0.18696743545E+02  0.51100000000E-03 0.  1.
         12    1    4    4    0    0  0.27118306275E+01 -0.20906875061E+02 -0.15722715648E+01  0.21140564988E+02  0.00000000000E+00 0. -1.
</event>
<event>
 8    1  0.2882335E-009  0.9118800E+02  0.7816164E-02  0.1184000E+00
        -11   -1    0    0    0    0  0.00000000000E+00  0.00000000000E+00  0.45593999997E+02  0.45594000000E+02  0.51100000000E-03 0. -1.
         11   -1    0    0    0    0 -0.00000000000E+00 -0.00000000000E+00 -0.45593999997E+02  0.45594000000E+02  0.51100000000E-03 0.  1.
         23    2    1    2    0    0  0.00000000000E+00  0.17763568394E-14  0.71054273576E-14  0.91188000000E+02  0.91188000000E+02 0.  0.
    9900012    2    3    3    0    0  0.53273397403E+01 -0.13166952226E+02 -0.42747682248E+02  0.46142317441E+02  0.99999970833E+01 0.  0.
         12    1    3    3    0    0 -0.53273397403E+01  0.13166952226E+02  0.42747682248E+02  0.45045682559E+02  0.00000000000E+00 0. -1.
         11    1    4    4    0    0  0.19352364845E+01 -0.37849407196E+01 -0.40483924953E+01  0.58702979958E+01  0.51100000000E-03 0. -1.
        -11    1    4    4    0    0  0.22900481069E+01 -0.36472068120E+01 -0.25176514876E+02  0.25542187444E+02  0.51100000000E-03 0.  1.
        -12    1    4    4    0    0  0.11020551489E+01 -0.57348046941E+01 -0.13522774876E+02  0.14729832001E+02  0.00000000000E+00 0.  1.
</event>
<event>
 8    1  0.2882335E-009  0.9118800E+02  0.7816164E-02  0.1184000E+00
        -11   -1    0    0    0    0  0.00000000000E+00  0.00000000000E+00  0.45593999997E+02  0.45594000000E+02  0.51100000000E-03 0. -1.
         11   -1    0    0    0    0 -0.00000000000E+00 -0.00000000000E+00 -0.45593999997E+02  0.45594000000E+02  0.51100000000E-03 0.  1.
         23    2    1    2    0    0  0.35527136788E-14 -0.35527136788E-14  0.71054273576E-14  0.91188000000E+02  0.91188000000E+02 0.  0.
    9900012    2    3    3    0    0  0.26110374125E+02 -0.17876909557E+02  0.32058972650E+02  0.46142320300E+02  0.10000023154E+02 0.  0.
        -12    1    3    3    0    0 -0.26110374125E+02  0.17876909557E+02 -0.32058972650E+02  0.45045679700E+02  0.00000000000E+00 0.  1.
         11    1    4    4    0    0  0.15840006160E+02 -0.80267104644E+01  0.18288538641E+02  0.25491263639E+02  0.51100000000E-03 0. -1.
        -11    1    4    4    0    0  0.27122290637E+01 -0.65366896200E+01  0.72699129905E+01  0.10145744568E+02  0.51100000000E-03 0.  1.
        -12    1    4    4    0    0  0.75581389011E+01 -0.33135094730E+01  0.65005210177E+01  0.10505312093E+02  0.00000000000E+00 0.  1.
</event>
<event>
 8    1  0.2882335E-009  0.9118800E+02  0.7816164E-02  0.1184000E+00
        -11   -1    0    0    0    0  0.00000000000E+00  0.00000000000E+00  0.45593999997E+02  0.45594000000E+02  0.51100000000E-03 0. -1.
         11   -1    0    0    0    0 -0.00000000000E+00 -0.00000000000E+00 -0.45593999997E+02  0.45594000000E+02  0.51100000000E-03 0.  1.
         23    2    1    2    0    0  0.44408920985E-15  0.00000000000E+00  0.00000000000E+00  0.91188000000E+02  0.91188000000E+02 0.  0.
    9900012    2    3    3    0    0 -0.12972834560E+01 -0.20637144874E+02  0.40019225324E+02  0.46142322200E+02  0.10000040478E+02 0.  0.
        -12    1    3    3    0    0  0.12972834560E+01  0.20637144874E+02 -0.40019225324E+02  0.45045677800E+02  0.00000000000E+00 0.  1.
         11    1    4    4    0    0 -0.17693197934E+01 -0.13392464833E+02  0.21560985486E+02  0.25443362636E+02  0.51100000000E-03 0. -1.
        -11    1    4    4    0    0 -0.16981577757E+01 -0.56779434109E+00  0.72949094574E+01  0.75114468977E+01  0.51100000000E-03 0.  1.
        -12    1    4    4    0    0  0.21701941131E+01 -0.66768856996E+01  0.11163330381E+02  0.13187512666E+02  0.00000000000E+00 0.  1.
</event>
<event>
 8    1  0.2882335E-009  0.9118800E+02  0.7816164E-02  0.1184000E+00
        -11   -1    0    0    0    0  0.00000000000E+00  0.00000000000E+00  0.45593999997E+02  0.45594000000E+02  0.51100000000E-03 0. -1.
         11   -1    0    0    0    0 -0.00000000000E+00 -0.00000000000E+00 -0.45593999997E+02  0.45594000000E+02  0.51100000000E-03 0.  1.
         23    2    1    2    0    0  0.00000000000E+00  0.88817841970E-15  0.00000000000E+00  0.91188000000E+02  0.91188000000E+02 0.  0.
    9900012    2    3    3    0    0 -0.21306162124E+02  0.62889026913E+01  0.39186867020E+02  0.46142318871E+02  0.10000010125E+02 0.  0.
        -12    1    3    3    0    0  0.21306162124E+02 -0.62889026913E+01 -0.39186867020E+02  0.45045681129E+02  0.00000000000E+00 0.  1.
         11    1    4    4    0    0 -0.11068988534E+02  0.66905533563E+01  0.24631768068E+02  0.27821035383E+02  0.51100000000E-03 0. -1.
        -11    1    4    4    0    0 -0.10603291693E+01 -0.53403541813E+00  0.90443780756E-01  0.11906603687E+01  0.51100000000E-03 0.  1.
        -12    1    4    4    0    0 -0.91768444205E+01  0.13238475306E+00  0.14464655172E+02  0.17130623120E+02  0.00000000000E+00 0.  1.
</event>
<event>
 8    1  0.2882335E-009  0.9118800E+02  0.7816164E-02  0.1184000E+00
        -11   -1    0    0    0    0  0.00000000000E+00  0.00000000000E+00  0.45593999997E+02  0.45594000000E+02  0.51100000000E-03 0. -1.
         11   -1    0    0    0    0 -0.00000000000E+00 -0.00000000000E+00 -0.45593999997E+02  0.45594000000E+02  0.51100000000E-03 0.  1.
         23    2    1    2    0    0  0.13877787808E-15 -0.35527136788E-14  0.00000000000E+00  0.91188000000E+02  0.91188000000E+02 0.  0.
    9900012    2    3    3    0    0 -0.23786693179E+00  0.30933869134E+02 -0.32743741492E+02  0.46142318219E+02  0.10000004172E+02 0.  0.
         12    1    3    3    0    0  0.23786693179E+00 -0.30933869134E+02  0.32743741492E+02  0.45045681781E+02  0.00000000000E+00 0. -1.
         11    1    4    4    0    0 -0.10215891474E+01  0.10608485099E+02 -0.58352620874E+01  0.12150468484E+02  0.51100000000E-03 0. -1.
        -11    1    4    4    0    0  0.12127294421E+01  0.54314748800E+01 -0.49061603081E+01  0.74190323696E+01  0.51100000000E-03 0.  1.
         12    1    4    4    0    0 -0.42900722652E+00  0.14893909155E+02 -0.22002319096E+02  0.26572817365E+02  0.00000000000E+00 0. -1.
</event>
<event>
 8    1  0.2882335E-009  0.9118800E+02  0.7816164E-02  0.1184000E+00
        -11   -1    0    0    0    0  0.00000000000E+00  0.00000000000E+00  0.45593999997E+02  0.45594000000E+02  0.51100000000E-03 0. -1.
         11   -1    0    0    0    0 -0.00000000000E+00 -0.00000000000E+00 -0.45593999997E+02  0.45594000000E+02  0.51100000000E-03 0.  1.
         23    2    1    2    0    0 -0.71054273576E-14  0.35527136788E-14 -0.35527136788E-14  0.91188000000E+02  0.91188000000E+02 0.  0.
    9900012    2    3    3    0    0 -0.32878949892E+02  0.21494768617E+02 -0.22046840196E+02  0.46142316671E+02  0.99999900620E+01 0.  0.
         12    1    3    3    0    0  0.32878949892E+02 -0.21494768617E+02  0.22046840196E+02  0.45045683329E+02  0.00000000000E+00 0. -1.
         11    1    4    4    0    0 -0.10450908424E+02  0.41362223694E+01 -0.54490491232E+01  0.12490875028E+02  0.51100000000E-03 0. -1.
        -11    1    4    4    0    0 -0.20601814970E+02  0.17967410976E+02 -0.15741543530E+02  0.31544553099E+02  0.51100000000E-03 0.  1.
         12    1    4    4    0    0 -0.18262264985E+01 -0.60886472842E+00 -0.85624754335E+00  0.21068885440E+01  0.00000000000E+00 0. -1.
</event>
<event>
 8    1  0.2882335E-009  0.9118800E+02  0.7816164E-02  0.1184000E+00
        -11   -1    0    0    0    0  0.00000000000E+00  0.00000000000E+00  0.45593999997E+02  0.45594000000E+02  0.51100000000E-03 0. -1.
         11   -1    0    0    0    0 -0.00000000000E+00 -0.00000000000E+00 -0.45593999997E+02  0.45594000000E+02  0.51100000000E-03 0.  1.
         23    2    1    2    0    0  0.00000000000E+00  0.35527136788E-14 -0.71054273576E-14  0.91188000000E+02  0.91188000000E+02 0.  0.
    9900012    2    3    3    0    0 -0.17211296084E+02  0.16745091937E+02 -0.38111503030E+02  0.46142317853E+02  0.10000000840E+02 0.  0.
         12    1    3    3    0    0  0.17211296084E+02 -0.16745091937E+02  0.38111503030E+02  0.45045682147E+02  0.00000000000E+00 0. -1.
         11    1    4    4    0    0 -0.72635194869E+00  0.60822187342E+01 -0.11650687458E+02  0.13162807086E+02  0.51100000000E-03 0. -1.
        -11    1    4    4    0    0 -0.86199119838E+01  0.61380723186E+01 -0.15128809716E+02  0.18462386034E+02  0.51100000000E-03 0.  1.
         12    1    4    4    0    0 -0.78650321512E+01  0.45248008843E+01 -0.11332005856E+02  0.14517124732E+02  0.00000000000E+00 0. -1.
</event>
<event>
 8    1  0.2882335E-009  0.9118800E+02  0.7816164E-02  0.1184000E+00
        -11   -1    0    0    0    0  0.00000000000E+00  0.00000000000E+00  0.45593999997E+02  0.45594000000E+02  0.51100000000E-03 0. -1.
         11   -1    0    0    0    0 -0.00000000000E+00 -0.00000000000E+00 -0.45593999997E+02  0.45594000000E+02  0.51100000000E-03 0.  1.
         23    2    1    2    0    0 -0.17763568394E-14  0.71054273576E-14  0.00000000000E+00  0.91188000000E+02  0.91188000000E+02 0.  0.
    9900012    2    3    3    0    0 -0.13720264938E+02  0.38645179865E+02 -0.18639149682E+02  0.46142317658E+02  0.99999990626E+01 0.  0.
         12    1    3    3    0    0  0.13720264938E+02 -0.38645179865E+02  0.18639149682E+02  0.45045682342E+02  0.00000000000E+00 0. -1.
         11    1    4    4    0    0 -0.20149012746E+01  0.62974419344E+01 -0.19406048903E+00  0.66147760202E+01  0.51100000000E-03 0. -1.
        -11    1    4    4    0    0 -0.50236246992E+01  0.91693414065E+01 -0.29731685249E+01  0.10869837087E+02  0.51100000000E-03 0.  1.
        -12    1    4    4    0    0 -0.66817389638E+01  0.23178396524E+02 -0.15471920668E+02  0.28657704552E+02  0.00000000000E+00 0.  1.
</event>
<event>
 8    1  0.2882335E-009  0.9118800E+02  0.7816164E-02  0.1184000E+00
        -11   -1    0    0    0    0  0.00000000000E+00  0.00000000000E+00  0.45593999997E+02  0.45594000000E+02  0.51100000000E-03 0. -1.
         11   -1    0    0    0    0 -0.00000000000E+00 -0.00000000000E+00 -0.45593999997E+02  0.45594000000E+02  0.51100000000E-03 0.  1.
         23    2    1    2    0    0 -0.17763568394E-14  0.00000000000E+00  0.00000000000E+00  0.91188000000E+02  0.91188000000E+02 0.  0.
    9900012    2    3    3    0    0  0.10918832460E+02 -0.35914758507E+02 -0.24900254942E+02  0.46142317887E+02  0.10000001148E+02 0.  0.
         12    1    3    3    0    0 -0.10918832460E+02  0.35914758507E+02  0.24900254942E+02  0.45045682113E+02  0.00000000000E+00 0. -1.
         11    1    4    4    0    0  0.10448014712E+01 -0.58201338317E+01 -0.15116242218E+01  0.61033249940E+01  0.51100000000E-03 0. -1.
        -11    1    4    4    0    0  0.62136105421E+00  0.25369155031E+00 -0.92911422736E-01  0.67755572168E+00  0.51100000000E-03 0.  1.
        -12    1    4    4    0    0  0.92526699343E+01 -0.30348316225E+02 -0.23295719297E+02  0.39361437171E+02  0.00000000000E+00 0.  1.
</event>
<event>
 8    1  0.2882335E-009  0.9118800E+02  0.7816164E-02  0.1184000E+00
        -11   -1    0    0    0    0  0.00000000000E+00  0.00000000000E+00  0.45593999997E+02  0.45594000000E+02  0.51100000000E-03 0. -1.
         11   -1    0    0    0    0 -0.00000000000E+00 -0.00000000000E+00 -0.45593999997E+02  0.45594000000E+02  0.51100000000E-03 0.  1.
         23    2    1    2    0    0  0.35527136788E-14 -0.35527136788E-14  0.00000000000E+00  0.91188000000E+02  0.91188000000E+02 0.  0.
    9900012    2    3    3    0    0 -0.23153599049E+02 -0.18660263894E+02  0.33835172392E+02  0.46142317762E+02  0.10000000004E+02 0.  0.
        -12    1    3    3    0    0  0.23153599049E+02  0.18660263894E+02 -0.33835172392E+02  0.45045682238E+02  0.00000000000E+00 0.  1.
         11    1    4    4    0    0 -0.17058203848E+02 -0.17058931537E+02  0.24620267748E+02  0.34469508960E+02  0.51100000000E-03 0. -1.
        -11    1    4    4    0    0 -0.59555929008E+01 -0.73550544697E+00  0.66263804980E+01  0.89397412618E+01  0.51100000000E-03 0.  1.
         12    1    4    4    0    0 -0.13980230035E+00 -0.86582690973E+00  0.25885241464E+01  0.27330675398E+01  0.00000000000E+00 0. -1.
</event>
<event>
 8    1  0.2882335E-009  0.9118800E+02  0.7816164E-02  0.1184000E+00
        -11   -1    0    0    0    0  0.00000000000E+00  0.00000000000E+00  0.45593999997E+02  0.45594000000E+02  0.51100000000E-03 0. -1.
         11   -1    0    0    0    0 -0.00000000000E+00 -0.00000000000E+00 -0.45593999997E+02  0.45594000000E+02  0.51100000000E-03 0.  1.
         23    2    1    2    0    0  0.00000000000E+00 -0.35527136788E-14  0.00000000000E+00  0.91188000000E+02  0.91188000000E+02 0.  0.
    9900012    2    3    3    0    0  0.14579192252E+01 -0.23761386638E+02  0.38241135479E+02  0.46142318008E+02  0.10000002250E+02 0.  0.
        -12    1    3    3    0    0 -0.14579192252E+01  0.23761386638E+02 -0.38241135479E+02  0.45045681992E+02  0.00000000000E+00 0.  1.
         11    1    4    4    0    0  0.40248838039E+01 -0.21990794361E+02  0.33897779674E+02  0.40606085669E+02  0.51100000000E-03 0. -1.
        -11    1    4    4    0    0 -0.11033992422E+01 -0.14320041654E+01  0.16268447678E+01  0.24320258997E+01  0.51100000000E-03 0.  1.
         12    1    4    4    0    0 -0.14635653365E+01 -0.33858811204E+00  0.27165110368E+01  0.31042064392E+01  0.00000000000E+00 0. -1.
</event>
<event>
 8    1  0.2882335E-009  0.9118800E+02  0.7816164E-02  0.1184000E+00
        -11   -1    0    0    0    0  0.00000000000E+00  0.00000000000E+00  0.45593999997E+02  0.45594000000E+02  0.51100000000E-03 0. -1.
         11   -1    0    0    0    0 -0.00000000000E+00 -0.00000000000E+00 -0.45593999997E+02  0.45594000000E+02  0.51100000000E-03 0.  1.
         23    2    1    2    0    0  0.00000000000E+00  0.00000000000E+00  0.00000000000E+00  0.91188000000E+02  0.91188000000E+02 0.  0.
    9900012    2    3    3    0    0  0.34849412598E+02  0.24923173058E+02  0.13909233610E+02  0.46142324366E+02  0.10000060227E+02 0.  0.
        -12    1    3    3    0    0 -0.34849412598E+02 -0.24923173058E+02 -0.13909233610E+02  0.45045675634E+02  0.00000000000E+00 0.  1.
         11    1    4    4    0    0  0.14781359661E+02  0.15312243816E+02  0.10044900039E+02  0.23534090617E+02  0.51100000000E-03 0. -1.
        -11    1    4    4    0    0  0.17998770382E+02  0.83733605625E+01  0.36864213754E+01  0.20190557328E+02  0.51100000000E-03 0.  1.
         12    1    4    4    0    0  0.20692825545E+01  0.12375686796E+01  0.17791219537E+00  0.24176764209E+01  0.00000000000E+00 0. -1.
</event>
<event>
 8    1  0.2882335E-009  0.9118800E+02  0.7816164E-02  0.1184000E+00
        -11   -1    0    0    0    0  0.00000000000E+00  0.00000000000E+00  0.45593999997E+02  0.45594000000E+02  0.51100000000E-03 0. -1.
         11   -1    0    0    0    0 -0.00000000000E+00 -0.00000000000E+00 -0.45593999997E+02  0.45594000000E+02  0.51100000000E-03 0.  1.
         23    2    1    2    0    0  0.00000000000E+00  0.00000000000E+00  0.00000000000E+00  0.91188000000E+02  0.91188000000E+02 0.  0.
    9900012    2    3    3    0    0 -0.33443044034E+02 -0.20807439065E+02  0.21856962773E+02  0.46142317228E+02  0.99999951429E+01 0.  0.
        -12    1    3    3    0    0  0.33443044034E+02  0.20807439065E+02 -0.21856962773E+02  0.45045682772E+02  0.00000000000E+00 0.  1.
         11    1    4    4    0    0 -0.20091583546E+02 -0.11593332678E+02  0.12975548847E+02  0.26578975905E+02  0.51100000000E-03 0. -1.
        -11    1    4    4    0    0  0.45556819072E-01 -0.72620958191E+00  0.22649948371E+01  0.23790035002E+01  0.51100000000E-03 0.  1.
        -12    1    4    4    0    0 -0.13397017306E+02 -0.84878968052E+01  0.66164190886E+01  0.17184337824E+02  0.00000000000E+00 0.  1.
</event>
<event>
 8    1  0.2882335E-009  0.9118800E+02  0.7816164E-02  0.1184000E+00
        -11   -1    0    0    0    0  0.00000000000E+00  0.00000000000E+00  0.45593999997E+02  0.45594000000E+02  0.51100000000E-03 0. -1.
         11   -1    0    0    0    0 -0.00000000000E+00 -0.00000000000E+00 -0.45593999997E+02  0.45594000000E+02  0.51100000000E-03 0.  1.
         23    2    1    2    0    0  0.00000000000E+00  0.00000000000E+00  0.00000000000E+00  0.91188000000E+02  0.91188000000E+02 0.  0.
    9900012    2    3    3    0    0 -0.21123945061E+02 -0.88002814247E+01 -0.38800094878E+02  0.46142319068E+02  0.10000011913E+02 0.  0.
         12    1    3    3    0    0  0.21123945061E+02  0.88002814247E+01  0.38800094878E+02  0.45045680932E+02  0.00000000000E+00 0. -1.
         11    1    4    4    0    0 -0.12549530278E+02 -0.26747115004E+01 -0.20737869877E+02  0.24386554473E+02  0.51100000000E-03 0. -1.
        -11    1    4    4    0    0 -0.92822554899E+01 -0.63290360941E+01 -0.17619308179E+02  0.20896339053E+02  0.51100000000E-03 0.  1.
         12    1    4    4    0    0  0.70784070668E+00  0.20346616985E+00 -0.44291682275E+00  0.85942554080E+00  0.00000000000E+00 0. -1.
</event>
<event>
 8    1  0.2882335E-009  0.9118800E+02  0.7816164E-02  0.1184000E+00
        -11   -1    0    0    0    0  0.00000000000E+00  0.00000000000E+00  0.45593999997E+02  0.45594000000E+02  0.51100000000E-03 0. -1.
         11   -1    0    0    0    0 -0.00000000000E+00 -0.00000000000E+00 -0.45593999997E+02  0.45594000000E+02  0.51100000000E-03 0.  1.
         23    2    1    2    0    0  0.00000000000E+00  0.00000000000E+00  0.00000000000E+00  0.91188000000E+02  0.91188000000E+02 0.  0.
    9900012    2    3    3    0    0  0.23858516216E+02 -0.27812593033E+02 -0.26198180078E+02  0.46142314672E+02  0.99999718321E+01 0.  0.
         12    1    3    3    0    0 -0.23858516216E+02  0.27812593033E+02  0.26198180078E+02  0.45045685328E+02  0.00000000000E+00 0. -1.
         11    1    4    4    0    0  0.28664933354E+01 -0.33407836422E+01 -0.22021567494E+01  0.49221046307E+01  0.51100000000E-03 0. -1.
        -11    1    4    4    0    0  0.13531388721E+02 -0.11370215953E+02 -0.85430357619E+01  0.19630683937E+02  0.51100000000E-03 0.  1.
        -12    1    4    4    0    0  0.74606341595E+01 -0.13101593438E+02 -0.15452987567E+02  0.21589526105E+02  0.00000000000E+00 0.  1.
</event>
<event>
 8    1  0.2882335E-009  0.9118800E+02  0.7816164E-02  0.1184000E+00
        -11   -1    0    0    0    0  0.00000000000E+00  0.00000000000E+00  0.45593999997E+02  0.45594000000E+02  0.51100000000E-03 0. -1.
         11   -1    0    0    0    0 -0.00000000000E+00 -0.00000000000E+00 -0.45593999997E+02  0.45594000000E+02  0.51100000000E-03 0.  1.
         23    2    1    2    0    0  0.88817841970E-15  0.11102230246E-15  0.71054273576E-14  0.91188000000E+02  0.91188000000E+02 0.  0.
    9900012    2    3    3    0    0  0.55542965214E+01  0.50829048718E+00  0.44699047462E+02  0.46142318597E+02  0.10000007620E+02 0.  0.
        -12    1    3    3    0    0 -0.55542965214E+01 -0.50829048718E+00 -0.44699047462E+02  0.45045681403E+02  0.00000000000E+00 0.  1.
         11    1    4    4    0    0 -0.12909064076E+01 -0.64110005972E+00  0.23020164688E+02  0.23065242925E+02  0.51100000000E-03 0. -1.
        -11    1    4    4    0    0  0.65840598933E+01  0.17901613387E+01  0.16543766993E+02  0.17895551092E+02  0.51100000000E-03 0.  1.
        -12    1    4    4    0    0  0.26114303569E+00 -0.64077079180E+00  0.51351157808E+01  0.51815245802E+01  0.00000000000E+00 0.  1.
</event>
<event>
 8    1  0.2882335E-009  0.9118800E+02  0.7816164E-02  0.1184000E+00
        -11   -1    0    0    0    0  0.00000000000E+00  0.00000000000E+00  0.45593999997E+02  0.45594000000E+02  0.51100000000E-03 0. -1.
         11   -1    0    0    0    0 -0.00000000000E+00 -0.00000000000E+00 -0.45593999997E+02  0.45594000000E+02  0.51100000000E-03 0.  1.
         23    2    1    2    0    0  0.00000000000E+00  0.00000000000E+00  0.00000000000E+00  0.91188000000E+02  0.91188000000E+02 0.  0.
    9900012    2    3    3    0    0  0.33459393419E+02  0.28106817059E+02 -0.10935707827E+02  0.46142313427E+02  0.99999604797E+01 0.  0.
         12    1    3    3    0    0 -0.33459393419E+02 -0.28106817059E+02  0.10935707827E+02  0.45045686573E+02  0.00000000000E+00 0. -1.
         11    1    4    4    0    0 -0.34409428947E+00  0.55618659119E+00  0.33305139748E+00  0.73393998307E+00  0.51100000000E-03 0. -1.
        -11    1    4    4    0    0  0.22936063823E+01  0.31745428386E+01 -0.24059911948E+01  0.45964275652E+01  0.51100000000E-03 0.  1.
        -12    1    4    4    0    0  0.31509881326E+02  0.24376087629E+02 -0.88627680293E+01  0.40811945879E+02  0.00000000000E+00 0.  1.
</event>
<event>
 8    1  0.2882335E-009  0.9118800E+02  0.7816164E-02  0.1184000E+00
        -11   -1    0    0    0    0  0.00000000000E+00  0.00000000000E+00  0.45593999997E+02  0.45594000000E+02  0.51100000000E-03 0. -1.
         11   -1    0    0    0    0 -0.00000000000E+00 -0.00000000000E+00 -0.45593999997E+02  0.45594000000E+02  0.51100000000E-03 0.  1.
         23    2    1    2    0    0 -0.17763568394E-14  0.35527136788E-14  0.00000000000E+00  0.91188000000E+02  0.91188000000E+02 0.  0.
    9900012    2    3    3    0    0  0.82744698937E+01 -0.29818284817E+02  0.32734026302E+02  0.46142318304E+02  0.10000004953E+02 0.  0.
        -12    1    3    3    0    0 -0.82744698937E+01  0.29818284817E+02 -0.32734026302E+02  0.45045681696E+02  0.00000000000E+00 0.  1.
         11    1    4    4    0    0  0.27656743643E+01 -0.10946950847E+02  0.12823753711E+02  0.17086057095E+02  0.51100000000E-03 0. -1.
        -11    1    4    4    0    0  0.17759800155E+01  0.60019380799E-01  0.99987017227E+00  0.20389820902E+01  0.51100000000E-03 0.  1.
        -12    1    4    4    0    0  0.37328155139E+01 -0.18931353351E+02  0.18910402419E+02  0.27017279119E+02  0.00000000000E+00 0.  1.
</event>
<event>
 8    1  0.3325544E-009  0.9118800E+02  0.7816164E-02  0.1184000E+00
        -11   -1    0    0    0    0  0.00000000000E+00  0.00000000000E+00  0.45593999997E+02  0.45594000000E+02  0.51100000000E-03 0. -1.
         11   -1    0    0    0    0 -0.00000000000E+00 -0.00000000000E+00 -0.45593999997E+02  0.45594000000E+02  0.51100000000E-03 0.  1.
         23    2    1    2    0    0 -0.71054273576E-14  0.00000000000E+00  0.35527136788E-14  0.91188000000E+02  0.91188000000E+02 0.  0.
    9900012    2    3    3    0    0  0.25470036836E+02 -0.30153296004E+02 -0.21706436606E+02  0.46142318448E+02  0.10000006264E+02 0.  0.
         12    1    3    3    0    0 -0.25470036836E+02  0.30153296004E+02  0.21706436606E+02  0.45045681552E+02  0.00000000000E+00 0. -1.
         11    1    4    4    0    0  0.21321633329E+01 -0.68123992524E+01 -0.59017267197E+01  0.92620344735E+01  0.51100000000E-03 0. -1.
        -11    1    4    4    0    0  0.22432312972E+02 -0.20937067882E+02 -0.15190316800E+02  0.34239088795E+02  0.51100000000E-03 0.  1.
        -12    1    4    4    0    0  0.90556053134E+00 -0.24038288698E+01 -0.61439308554E+00  0.26411951792E+01  0.00000000000E+00 0.  1.
</event>
<event>
 8    1  0.2882335E-009  0.9118800E+02  0.7816164E-02  0.1184000E+00
        -11   -1    0    0    0    0  0.00000000000E+00  0.00000000000E+00  0.45593999997E+02  0.45594000000E+02  0.51100000000E-03 0. -1.
         11   -1    0    0    0    0 -0.00000000000E+00 -0.00000000000E+00 -0.45593999997E+02  0.45594000000E+02  0.51100000000E-03 0.  1.
         23    2    1    2    0    0  0.00000000000E+00 -0.71054273576E-14  0.00000000000E+00  0.91188000000E+02  0.91188000000E+02 0.  0.
    9900012    2    3    3    0    0 -0.20393387182E+02 -0.39102396337E+02 -0.91774662936E+01  0.46142317325E+02  0.99999960275E+01 0.  0.
        -12    1    3    3    0    0  0.20393387182E+02  0.39102396337E+02  0.91774662936E+01  0.45045682675E+02  0.00000000000E+00 0.  1.
         11    1    4    4    0    0 -0.86206238593E+01 -0.23155706648E+02 -0.45210626606E+01  0.25118557162E+02  0.51100000000E-03 0. -1.
        -11    1    4    4    0    0 -0.87215372698E+01 -0.13016290065E+02 -0.56891853936E+01  0.16669008672E+02  0.51100000000E-03 0.  1.
         12    1    4    4    0    0 -0.30512260533E+01 -0.29303996246E+01  0.10327817606E+01  0.43547514916E+01  0.00000000000E+00 0. -1.
</event>
<event>
 8    1  0.2882335E-009  0.9118800E+02  0.7816164E-02  0.1184000E+00
        -11   -1    0    0    0    0  0.00000000000E+00  0.00000000000E+00  0.45593999997E+02  0.45594000000E+02  0.51100000000E-03 0. -1.
         11   -1    0    0    0    0 -0.00000000000E+00 -0.00000000000E+00 -0.45593999997E+02  0.45594000000E+02  0.51100000000E-03 0.  1.
         23    2    1    2    0    0  0.00000000000E+00 -0.35527136788E-14 -0.71054273576E-14  0.91188000000E+02  0.91188000000E+02 0.  0.
    9900012    2    3    3    0    0  0.18488860210E+02  0.18776054515E+02  0.36534029776E+02  0.46142317557E+02  0.99999981406E+01 0.  0.
        -12    1    3    3    0    0 -0.18488860210E+02 -0.18776054515E+02 -0.36534029776E+02  0.45045682443E+02  0.00000000000E+00 0.  1.
         11    1    4    4    0    0  0.68759400917E+01  0.10288459459E+02  0.23826656489E+02  0.26848473139E+02  0.51100000000E-03 0. -1.
        -11    1    4    4    0    0  0.92244516399E+01  0.76594833065E+01  0.10534935275E+02  0.15960672107E+02  0.51100000000E-03 0.  1.
        -12    1    4    4    0    0  0.23884684782E+01  0.82811175028E+00  0.21724380119E+01  0.33331723115E+01  0.00000000000E+00 0.  1.
</event>
<event>
 8    1  0.2882335E-009  0.9118800E+02  0.7816164E-02  0.1184000E+00
        -11   -1    0    0    0    0  0.00000000000E+00  0.00000000000E+00  0.45593999997E+02  0.45594000000E+02  0.51100000000E-03 0. -1.
         11   -1    0    0    0    0 -0.00000000000E+00 -0.00000000000E+00 -0.45593999997E+02  0.45594000000E+02  0.51100000000E-03 0.  1.
         23    2    1    2    0    0  0.00000000000E+00 -0.35527136788E-14 -0.35527136788E-14  0.91188000000E+02  0.91188000000E+02 0.  0.
    9900012    2    3    3    0    0 -0.19696524681E+02 -0.25190485261E+02  0.31726952417E+02  0.46142321607E+02  0.10000035069E+02 0.  0.
        -12    1    3    3    0    0  0.19696524681E+02  0.25190485261E+02 -0.31726952417E+02  0.45045678393E+02  0.00000000000E+00 0.  1.
         11    1    4    4    0    0 -0.26225577000E+01 -0.23595166586E+01  0.74888768643E+01  0.82781884916E+01  0.51100000000E-03 0. -1.
        -11    1    4    4    0    0 -0.71380301996E+01 -0.14151800848E+02  0.12155865892E+02  0.19974734497E+02  0.51100000000E-03 0.  1.
         12    1    4    4    0    0 -0.99359367819E+01 -0.86791677546E+01  0.12082209661E+02  0.17889398619E+02  0.00000000000E+00 0. -1.
</event>
<event>
 8    1  0.2882335E-009  0.9118800E+02  0.7816164E-02  0.1184000E+00
        -11   -1    0    0    0    0  0.00000000000E+00  0.00000000000E+00  0.45593999997E+02  0.45594000000E+02  0.51100000000E-03 0. -1.
         11   -1    0    0    0    0 -0.00000000000E+00 -0.00000000000E+00 -0.45593999997E+02  0.45594000000E+02  0.51100000000E-03 0.  1.
         23    2    1    2    0    0  0.00000000000E+00 -0.88817841970E-15  0.00000000000E+00  0.91188000000E+02  0.91188000000E+02 0.  0.
    9900012    2    3    3    0    0  0.17454755029E+02 -0.55266703296E+01  0.41157028424E+02  0.46142317113E+02  0.99999940879E+01 0.  0.
        -12    1    3    3    0    0 -0.17454755029E+02  0.55266703296E+01 -0.41157028424E+02  0.45045682887E+02  0.00000000000E+00 0.  1.
         11    1    4    4    0    0  0.75282115648E+01 -0.44277200568E+01  0.11478088838E+02  0.14423078655E+02  0.51100000000E-03 0. -1.
        -11    1    4    4    0    0  0.51118694790E+01  0.15185589432E+01  0.18745494693E+02  0.19489248379E+02  0.51100000000E-03 0.  1.
         12    1    4    4    0    0  0.48146739850E+01 -0.26175092159E+01  0.10933444893E+02  0.12229990078E+02  0.00000000000E+00 0. -1.
</event>
<event>
 8    1  0.2882335E-009  0.9118800E+02  0.7816164E-02  0.1184000E+00
        -11   -1    0    0    0    0  0.00000000000E+00  0.00000000000E+00  0.45593999997E+02  0.45594000000E+02  0.51100000000E-03 0.  1.
         11   -1    0    0    0    0 -0.00000000000E+00 -0.00000000000E+00 -0.45593999997E+02  0.45594000000E+02  0.51100000000E-03 0. -1.
         23    2    1    2    0    0 -0.71054273576E-14 -0.35527136788E-14 -0.35527136788E-14  0.91188000000E+02  0.91188000000E+02 0.  0.
    9900012    2    3    3    0    0  0.29505457670E+02  0.30202113545E+02  0.15696300245E+02  0.46142317229E+02  0.99999951500E+01 0.  0.
        -12    1    3    3    0    0 -0.29505457670E+02 -0.30202113545E+02 -0.15696300245E+02  0.45045682771E+02  0.00000000000E+00 0.  1.
         11    1    4    4    0    0  0.86070038070E+01  0.10957121191E+02  0.64042140720E+01  0.15334698480E+02  0.51100000000E-03 0. -1.
        -11    1    4    4    0    0  0.52799045833E+01  0.18700222292E+01  0.39149719205E+01  0.68338408633E+01  0.51100000000E-03 0.  1.
         12    1    4    4    0    0  0.15618549280E+02  0.17374970125E+02  0.53771142522E+01  0.23973777886E+02  0.00000000000E+00 0. -1.
</event>
<event>
 8    1  0.2882335E-009  0.9118800E+02  0.7816164E-02  0.1184000E+00
        -11   -1    0    0    0    0  0.00000000000E+00  0.00000000000E+00  0.45593999997E+02  0.45594000000E+02  0.51100000000E-03 0. -1.
         11   -1    0    0    0    0 -0.00000000000E+00 -0.00000000000E+00 -0.45593999997E+02  0.45594000000E+02  0.51100000000E-03 0.  1.
         23    2    1    2    0    0  0.00000000000E+00  0.10658141036E-13  0.00000000000E+00  0.91188000000E+02  0.91188000000E+02 0.  0.
    9900012    2    3    3    0    0  0.82071126195E+00  0.31296369657E+02 -0.32387916748E+02  0.46142317943E+02  0.10000001661E+02 0.  0.
         12    1    3    3    0    0 -0.82071126195E+00 -0.31296369657E+02  0.32387916748E+02  0.45045682057E+02  0.00000000000E+00 0. -1.
         11    1    4    4    0    0 -0.71514615274E+00 -0.36879722915E+00 -0.26894716970E+00  0.84839746418E+00  0.51100000000E-03 0. -1.
        -11    1    4    4    0    0  0.27307400461E+01  0.16600245477E+02 -0.16798188401E+02  0.23774024163E+02  0.51100000000E-03 0.  1.
         12    1    4    4    0    0 -0.11948826314E+01  0.15064921410E+02 -0.15320781177E+02  0.21519896316E+02  0.00000000000E+00 0. -1.
</event>
<event>
 8    1  0.2882335E-009  0.9118800E+02  0.7816164E-02  0.1184000E+00
        -11   -1    0    0    0    0  0.00000000000E+00  0.00000000000E+00  0.45593999997E+02  0.45594000000E+02  0.51100000000E-03 0. -1.
         11   -1    0    0    0    0 -0.00000000000E+00 -0.00000000000E+00 -0.45593999997E+02  0.45594000000E+02  0.51100000000E-03 0.  1.
         23    2    1    2    0    0  0.00000000000E+00  0.71054273576E-14  0.00000000000E+00  0.91188000000E+02  0.91188000000E+02 0.  0.
    9900012    2    3    3    0    0  0.22605680553E+02 -0.35170732841E+02 -0.16766520833E+02  0.46142318047E+02  0.10000002604E+02 0.  0.
         12    1    3    3    0    0 -0.22605680553E+02  0.35170732841E+02  0.16766520833E+02  0.45045681953E+02  0.00000000000E+00 0. -1.
         11    1    4    4    0    0  0.13219990828E+01 -0.89885730860E+01 -0.29058727209E+01  0.95386699402E+01  0.51100000000E-03 0. -1.
        -11    1    4    4    0    0  0.20682072952E+02 -0.24387734462E+02 -0.13272241527E+02  0.34621700264E+02  0.51100000000E-03 0.  1.
        -12    1    4    4    0    0  0.60160851875E+00 -0.17944252928E+01 -0.58840658420E+00  0.19819478423E+01  0.00000000000E+00 0.  1.
</event>
<event>
 8    1  0.2882335E-009  0.9118800E+02  0.7816164E-02  0.1184000E+00
        -11   -1    0    0    0    0  0.00000000000E+00  0.00000000000E+00  0.45593999997E+02  0.45594000000E+02  0.51100000000E-03 0. -1.
         11   -1    0    0    0    0 -0.00000000000E+00 -0.00000000000E+00 -0.45593999997E+02  0.45594000000E+02  0.51100000000E-03 0.  1.
         23    2    1    2    0    0  0.35527136788E-14  0.00000000000E+00  0.35527136788E-14  0.91188000000E+02  0.91188000000E+02 0.  0.
    9900012    2    3    3    0    0  0.18254305479E+02 -0.30901637761E+02 -0.27220995624E+02  0.46142317770E+02  0.10000000084E+02 0.  0.
         12    1    3    3    0    0 -0.18254305479E+02  0.30901637761E+02  0.27220995624E+02  0.45045682230E+02  0.00000000000E+00 0. -1.
         11    1    4    4    0    0  0.41947500325E+01 -0.12083331996E+02 -0.82685304234E+01  0.15230608510E+02  0.51100000000E-03 0. -1.
        -11    1    4    4    0    0  0.14762734131E+02 -0.17774999663E+02 -0.18401613948E+02  0.29538251949E+02  0.51100000000E-03 0.  1.
        -12    1    4    4    0    0 -0.70317868487E+00 -0.10433061021E+01 -0.55085125247E+00  0.13734573120E+01  0.00000000000E+00 0.  1.
</event>
<event>
 8    1  0.2882335E-009  0.9118800E+02  0.7816164E-02  0.1184000E+00
        -11   -1    0    0    0    0  0.00000000000E+00  0.00000000000E+00  0.45593999997E+02  0.45594000000E+02  0.51100000000E-03 0. -1.
         11   -1    0    0    0    0 -0.00000000000E+00 -0.00000000000E+00 -0.45593999997E+02  0.45594000000E+02  0.51100000000E-03 0.  1.
         23    2    1    2    0    0  0.17763568394E-14  0.00000000000E+00  0.00000000000E+00  0.91188000000E+02  0.91188000000E+02 0.  0.
    9900012    2    3    3    0    0 -0.11519270891E+02  0.37893714015E+02 -0.21458932850E+02  0.46142323595E+02  0.10000053200E+02 0.  0.
         12    1    3    3    0    0  0.11519270891E+02 -0.37893714015E+02  0.21458932850E+02  0.45045676405E+02  0.00000000000E+00 0. -1.
         11    1    4    4    0    0 -0.49983271832E+01  0.19976965509E+02 -0.12156863759E+02  0.23913422221E+02  0.51100000000E-03 0. -1.
        -11    1    4    4    0    0 -0.65168411748E+01  0.17953586103E+02 -0.76474482105E+01  0.20573865394E+02  0.51100000000E-03 0.  1.
         12    1    4    4    0    0 -0.41025327841E-02 -0.36837597241E-01 -0.16546208803E+01  0.16550359805E+01  0.00000000000E+00 0. -1.
</event>
<event>
 8    1  0.2882335E-009  0.9118800E+02  0.7816164E-02  0.1184000E+00
        -11   -1    0    0    0    0  0.00000000000E+00  0.00000000000E+00  0.45593999997E+02  0.45594000000E+02  0.51100000000E-03 0. -1.
         11   -1    0    0    0    0 -0.00000000000E+00 -0.00000000000E+00 -0.45593999997E+02  0.45594000000E+02  0.51100000000E-03 0.  1.
         23    2    1    2    0    0 -0.35527136788E-14  0.00000000000E+00  0.71054273576E-14  0.91188000000E+02  0.91188000000E+02 0.  0.
    9900012    2    3    3    0    0 -0.22579054254E+02  0.33546416561E+01  0.38833570992E+02  0.46142317103E+02  0.99999940007E+01 0.  0.
        -12    1    3    3    0    0  0.22579054254E+02 -0.33546416561E+01 -0.38833570992E+02  0.45045682897E+02  0.00000000000E+00 0.  1.
         11    1    4    4    0    0 -0.13008555866E+02  0.17897641293E+01  0.14915097001E+02  0.19871736215E+02  0.51100000000E-03 0. -1.
        -11    1    4    4    0    0 -0.51411467103E+00 -0.84657107143E+00  0.56735445832E+01  0.57593493446E+01  0.51100000000E-03 0.  1.
        -12    1    4    4    0    0 -0.90563837166E+01  0.24114485983E+01  0.18244929407E+02  0.20511231544E+02  0.00000000000E+00 0.  1.
</event>
<event>
 8    1  0.2882335E-009  0.9118800E+02  0.7816164E-02  0.1184000E+00
        -11   -1    0    0    0    0  0.00000000000E+00  0.00000000000E+00  0.45593999997E+02  0.45594000000E+02  0.51100000000E-03 0. -1.
         11   -1    0    0    0    0 -0.00000000000E+00 -0.00000000000E+00 -0.45593999997E+02  0.45594000000E+02  0.51100000000E-03 0.  1.
         23    2    1    2    0    0  0.35527136788E-14  0.00000000000E+00  0.00000000000E+00  0.91188000000E+02  0.91188000000E+02 0.  0.
    9900012    2    3    3    0    0  0.23604323772E+02  0.29346706306E+02  0.24712753746E+02  0.46142317971E+02  0.10000001917E+02 0.  0.
        -12    1    3    3    0    0 -0.23604323772E+02 -0.29346706306E+02 -0.24712753746E+02  0.45045682029E+02  0.00000000000E+00 0.  1.
         11    1    4    4    0    0  0.85194371319E+01  0.12559825082E+02  0.56727252390E+01  0.16202155012E+02  0.51100000000E-03 0. -1.
        -11    1    4    4    0    0  0.15276176929E+02  0.15363721569E+02  0.17713084181E+02  0.27984975853E+02  0.51100000000E-03 0.  1.
         12    1    4    4    0    0 -0.19129028920E+00  0.14231596544E+01  0.13269443253E+01  0.19551871059E+01  0.00000000000E+00 0. -1.
</event>
<event>
 8    1  0.2882335E-009  0.9118800E+02  0.7816164E-02  0.1184000E+00
        -11   -1    0    0    0    0  0.00000000000E+00  0.00000000000E+00  0.45593999997E+02  0.45594000000E+02  0.51100000000E-03 0.  1.
         11   -1    0    0    0    0 -0.00000000000E+00 -0.00000000000E+00 -0.45593999997E+02  0.45594000000E+02  0.51100000000E-03 0. -1.
         23    2    1    2    0    0  0.00000000000E+00  0.00000000000E+00  0.17763568394E-14  0.91188000000E+02  0.91188000000E+02 0.  0.
    9900012    2    3    3    0    0  0.53113663945E+01 -0.42544421321E+02 -0.13815748436E+02  0.46142319815E+02  0.10000018725E+02 0.  0.
         12    1    3    3    0    0 -0.53113663945E+01  0.42544421321E+02  0.13815748436E+02  0.45045680185E+02  0.00000000000E+00 0. -1.
         11    1    4    4    0    0 -0.74866723556E+00 -0.17943302535E+02 -0.80461968577E+01  0.19679021638E+02  0.51100000000E-03 0. -1.
        -11    1    4    4    0    0  0.20425151547E+00 -0.11172129035E+02 -0.26796077024E+01  0.11490799953E+02  0.51100000000E-03 0.  1.
         12    1    4    4    0    0  0.58557821146E+01 -0.13428989751E+02 -0.30899438763E+01  0.14972498224E+02  0.00000000000E+00 0. -1.
</event>
<event>
 8    1  0.2882335E-009  0.9118800E+02  0.7816164E-02  0.1184000E+00
        -11   -1    0    0    0    0  0.00000000000E+00  0.00000000000E+00  0.45593999997E+02  0.45594000000E+02  0.51100000000E-03 0. -1.
         11   -1    0    0    0    0 -0.00000000000E+00 -0.00000000000E+00 -0.45593999997E+02  0.45594000000E+02  0.51100000000E-03 0.  1.
         23    2    1    2    0    0 -0.71054273576E-14  0.00000000000E+00  0.00000000000E+00  0.91188000000E+02  0.91188000000E+02 0.  0.
    9900012    2    3    3    0    0 -0.25854465850E+02 -0.39950829420E+01 -0.36670135876E+02  0.46142323656E+02  0.10000053754E+02 0.  0.
         12    1    3    3    0    0  0.25854465850E+02  0.39950829420E+01  0.36670135876E+02  0.45045676344E+02  0.00000000000E+00 0. -1.
         11    1    4    4    0    0 -0.13152387426E+02 -0.10809989050E+01 -0.24739615079E+02  0.28039301135E+02  0.51100000000E-03 0. -1.
        -11    1    4    4    0    0 -0.11738531334E+02 -0.17700807566E+01 -0.11542837136E+02  0.16557880093E+02  0.51100000000E-03 0.  1.
         12    1    4    4    0    0 -0.96354709013E+00 -0.11440032804E+01 -0.38768366138E+00  0.15451424277E+01  0.00000000000E+00 0. -1.
</event>
<event>
 8    1  0.2882335E-009  0.9118800E+02  0.7816164E-02  0.1184000E+00
        -11   -1    0    0    0    0  0.00000000000E+00  0.00000000000E+00  0.45593999997E+02  0.45594000000E+02  0.51100000000E-03 0. -1.
         11   -1    0    0    0    0 -0.00000000000E+00 -0.00000000000E+00 -0.45593999997E+02  0.45594000000E+02  0.51100000000E-03 0.  1.
         23    2    1    2    0    0  0.00000000000E+00 -0.33306690739E-15  0.00000000000E+00  0.91188000000E+02  0.91188000000E+02 0.  0.
    9900012    2    3    3    0    0 -0.34571484161E+02 -0.80026386266E+00  0.28866686109E+02  0.46142317562E+02  0.99999981884E+01 0.  0.
        -12    1    3    3    0    0  0.34571484161E+02  0.80026386266E+00 -0.28866686109E+02  0.45045682438E+02  0.00000000000E+00 0.  1.
         11    1    4    4    0    0 -0.20365214960E+02 -0.14032755134E+01  0.18460051400E+02  0.27522439217E+02  0.51100000000E-03 0. -1.
        -11    1    4    4    0    0 -0.10886513476E+02  0.26253786835E+01  0.93574736106E+01  0.14593529440E+02  0.51100000000E-03 0.  1.
        -12    1    4    4    0    0 -0.33197557253E+01 -0.20223670328E+01  0.10491610984E+01  0.40263489046E+01  0.00000000000E+00 0.  1.
</event>
<event>
 8    1  0.2882335E-009  0.9118800E+02  0.7816164E-02  0.1184000E+00
        -11   -1    0    0    0    0  0.00000000000E+00  0.00000000000E+00  0.45593999997E+02  0.45594000000E+02  0.51100000000E-03 0. -1.
         11   -1    0    0    0    0 -0.00000000000E+00 -0.00000000000E+00 -0.45593999997E+02  0.45594000000E+02  0.51100000000E-03 0.  1.
         23    2    1    2    0    0  0.00000000000E+00  0.00000000000E+00  0.00000000000E+00  0.91188000000E+02  0.91188000000E+02 0.  0.
    9900012    2    3    3    0    0  0.28615417335E+02  0.30429423985E+02 -0.16861837380E+02  0.46142317486E+02  0.99999974903E+01 0.  0.
         12    1    3    3    0    0 -0.28615417335E+02 -0.30429423985E+02  0.16861837380E+02  0.45045682514E+02  0.00000000000E+00 0. -1.
         11    1    4    4    0    0  0.12352338718E+01  0.41743570119E+01 -0.26411986867E+01  0.50918552557E+01  0.51100000000E-03 0. -1.
        -11    1    4    4    0    0  0.20382254887E+02  0.19276451271E+02 -0.13522733975E+02  0.31142932140E+02  0.51100000000E-03 0.  1.
         12    1    4    4    0    0  0.69979285769E+01  0.69786157023E+01 -0.69790471763E+00  0.99075300899E+01  0.00000000000E+00 0. -1.
</event>
<event>
 8    1  0.2882335E-009  0.9118800E+02  0.7816164E-02  0.1184000E+00
        -11   -1    0    0    0    0  0.00000000000E+00  0.00000000000E+00  0.45593999997E+02  0.45594000000E+02  0.51100000000E-03 0. -1.
         11   -1    0    0    0    0 -0.00000000000E+00 -0.00000000000E+00 -0.45593999997E+02  0.45594000000E+02  0.51100000000E-03 0.  1.
         23    2    1    2    0    0 -0.88817841970E-15  0.71054273576E-14 -0.17763568394E-14  0.91188000000E+02  0.91188000000E+02 0.  0.
    9900012    2    3    3    0    0  0.49194656308E+01  0.43378816189E+02 -0.11099128507E+02  0.46142317747E+02  0.99999998723E+01 0.  0.
         12    1    3    3    0    0 -0.49194656308E+01 -0.43378816189E+02  0.11099128507E+02  0.45045682253E+02  0.00000000000E+00 0. -1.
         11    1    4    4    0    0  0.91214248812E+00  0.14332008587E+01 -0.23421451577E+01  0.28933912319E+01  0.51100000000E-03 0. -1.
        -11    1    4    4    0    0  0.40868625917E+01  0.24334630214E+02 -0.63020602330E+01  0.25467481951E+02  0.51100000000E-03 0.  1.
         12    1    4    4    0    0 -0.79539449117E-01  0.17610985116E+02 -0.24549231166E+01  0.17781444564E+02  0.00000000000E+00 0. -1.
</event>
<event>
 8    1  0.2882335E-009  0.9118800E+02  0.7816164E-02  0.1184000E+00
        -11   -1    0    0    0    0  0.00000000000E+00  0.00000000000E+00  0.45593999997E+02  0.45594000000E+02  0.51100000000E-03 0. -1.
         11   -1    0    0    0    0 -0.00000000000E+00 -0.00000000000E+00 -0.45593999997E+02  0.45594000000E+02  0.51100000000E-03 0.  1.
         23    2    1    2    0    0  0.00000000000E+00 -0.71054273576E-14  0.35527136788E-14  0.91188000000E+02  0.91188000000E+02 0.  0.
    9900012    2    3    3    0    0 -0.33645163039E+02  0.22751205562E+02 -0.19480738640E+02  0.46142317317E+02  0.99999959472E+01 0.  0.
         12    1    3    3    0    0  0.33645163039E+02 -0.22751205562E+02  0.19480738640E+02  0.45045682683E+02  0.00000000000E+00 0. -1.
         11    1    4    4    0    0 -0.22668465819E+02  0.16613569973E+02 -0.13383779498E+02  0.31128694218E+02  0.51100000000E-03 0. -1.
        -11    1    4    4    0    0 -0.10878804421E+02  0.64407039266E+01 -0.45532123686E+01  0.13437365659E+02  0.51100000000E-03 0.  1.
         12    1    4    4    0    0 -0.97892799168E-01 -0.30306833735E+00 -0.15437467732E+01  0.15762574400E+01  0.00000000000E+00 0. -1.
</event>
<event>
 8    1  0.2882335E-009  0.9118800E+02  0.7816164E-02  0.1184000E+00
        -11   -1    0    0    0    0  0.00000000000E+00  0.00000000000E+00  0.45593999997E+02  0.45594000000E+02  0.51100000000E-03 0.  1.
         11   -1    0    0    0    0 -0.00000000000E+00 -0.00000000000E+00 -0.45593999997E+02  0.45594000000E+02  0.51100000000E-03 0. -1.
         23    2    1    2    0    0  0.00000000000E+00  0.00000000000E+00  0.35527136788E-14  0.91188000000E+02  0.91188000000E+02 0.  0.
    9900012    2    3    3    0    0 -0.31067234309E+02 -0.11636300219E+02 -0.30471904759E+02  0.46142317520E+02  0.99999978011E+01 0.  0.
         12    1    3    3    0    0  0.31067234309E+02  0.11636300219E+02  0.30471904759E+02  0.45045682480E+02  0.00000000000E+00 0. -1.
         11    1    4    4    0    0 -0.35459414403E+01 -0.15683622062E+00 -0.12164289288E+01  0.37520658174E+01  0.51100000000E-03 0. -1.
        -11    1    4    4    0    0 -0.65868688883E+01 -0.36330115907E+01 -0.35350799472E+01  0.83115826089E+01  0.51100000000E-03 0.  1.
        -12    1    4    4    0    0 -0.20934423981E+02 -0.78464524077E+01 -0.25720395883E+02  0.34078669094E+02  0.00000000000E+00 0.  1.
</event>
<event>
 8    1  0.2882335E-009  0.9118800E+02  0.7816164E-02  0.1184000E+00
        -11   -1    0    0    0    0  0.00000000000E+00  0.00000000000E+00  0.45593999997E+02  0.45594000000E+02  0.51100000000E-03 0. -1.
         11   -1    0    0    0    0 -0.00000000000E+00 -0.00000000000E+00 -0.45593999997E+02  0.45594000000E+02  0.51100000000E-03 0.  1.
         23    2    1    2    0    0 -0.44408920985E-15 -0.35527136788E-14  0.35527136788E-14  0.91188000000E+02  0.91188000000E+02 0.  0.
    9900012    2    3    3    0    0  0.32466282114E+01 -0.31827577656E+02  0.31710853643E+02  0.46142317266E+02  0.99999954868E+01 0.  0.
        -12    1    3    3    0    0 -0.32466282114E+01  0.31827577656E+02 -0.31710853643E+02  0.45045682734E+02  0.00000000000E+00 0.  1.
         11    1    4    4    0    0  0.21845642043E+01 -0.67278707789E+01  0.77398378903E+01  0.10485306710E+02  0.51100000000E-03 0.  1.
        -11    1    4    4    0    0  0.23731669786E+01 -0.24891442352E+02  0.23263556285E+02  0.34152728663E+02  0.51100000000E-03 0. -1.
        -12    1    4    4    0    0 -0.13111029715E+01 -0.20826452566E+00  0.70745946745E+00  0.15042818927E+01  0.00000000000E+00 0.  1.
</event>
<event>
 8    1  0.2882335E-009  0.9118800E+02  0.7816164E-02  0.1184000E+00
        -11   -1    0    0    0    0  0.00000000000E+00  0.00000000000E+00  0.45593999997E+02  0.45594000000E+02  0.51100000000E-03 0. -1.
         11   -1    0    0    0    0 -0.00000000000E+00 -0.00000000000E+00 -0.45593999997E+02  0.45594000000E+02  0.51100000000E-03 0.  1.
         23    2    1    2    0    0  0.00000000000E+00 -0.17763568394E-14 -0.71054273576E-14  0.91188000000E+02  0.91188000000E+02 0.  0.
    9900012    2    3    3    0    0 -0.26363429424E+02 -0.13687146268E+02 -0.33863625470E+02  0.46142317477E+02  0.99999974122E+01 0.  0.
         12    1    3    3    0    0  0.26363429424E+02  0.13687146268E+02  0.33863625470E+02  0.45045682523E+02  0.00000000000E+00 0. -1.
         11    1    4    4    0    0 -0.33709919702E+01 -0.18191110029E+01 -0.94728789598E+01  0.10218032480E+02  0.51100000000E-03 0. -1.
        -11    1    4    4    0    0 -0.16562841129E+02 -0.87604549464E+01 -0.20572996626E+02  0.27826632343E+02  0.51100000000E-03 0.  1.
         12    1    4    4    0    0 -0.64295963244E+01 -0.31075803186E+01 -0.38177498844E+01  0.80976526544E+01  0.00000000000E+00 0. -1.
</event>
<event>
 8    1  0.2882335E-009  0.9118800E+02  0.7816164E-02  0.1184000E+00
        -11   -1    0    0    0    0  0.00000000000E+00  0.00000000000E+00  0.45593999997E+02  0.45594000000E+02  0.51100000000E-03 0. -1.
         11   -1    0    0    0    0 -0.00000000000E+00 -0.00000000000E+00 -0.45593999997E+02  0.45594000000E+02  0.51100000000E-03 0.  1.
         23    2    1    2    0    0  0.00000000000E+00  0.00000000000E+00 -0.35527136788E-14  0.91188000000E+02  0.91188000000E+02 0.  0.
    9900012    2    3    3    0    0  0.34028144564E+01  0.33072565065E+02  0.30393069545E+02  0.46142330035E+02  0.10000111927E+02 0.  0.
        -12    1    3    3    0    0 -0.34028144564E+01 -0.33072565065E+02 -0.30393069545E+02  0.45045669965E+02  0.00000000000E+00 0.  1.
         11    1    4    4    0    0 -0.14688586531E+01  0.56757336328E+01  0.70567730929E+01  0.91743961523E+01  0.51100000000E-03 0. -1.
        -11    1    4    4    0    0  0.34990155150E+01  0.21318594655E+02  0.14001037493E+02  0.25744021418E+02  0.51100000000E-03 0.  1.
        -12    1    4    4    0    0  0.13726575945E+01  0.60782367770E+01  0.93352589593E+01  0.11223912465E+02  0.00000000000E+00 0.  1.
</event>
<event>
 8    1  0.2882335E-009  0.9118800E+02  0.7816164E-02  0.1184000E+00
        -11   -1    0    0    0    0  0.00000000000E+00  0.00000000000E+00  0.45593999997E+02  0.45594000000E+02  0.51100000000E-03 0. -1.
         11   -1    0    0    0    0 -0.00000000000E+00 -0.00000000000E+00 -0.45593999997E+02  0.45594000000E+02  0.51100000000E-03 0.  1.
         23    2    1    2    0    0  0.00000000000E+00  0.00000000000E+00  0.00000000000E+00  0.91188000000E+02  0.91188000000E+02 0.  0.
    9900012    2    3    3    0    0 -0.18574220196E+02 -0.20118055051E+01  0.40988589887E+02  0.46142317430E+02  0.99999969794E+01 0.  0.
        -12    1    3    3    0    0  0.18574220196E+02  0.20118055051E+01 -0.40988589887E+02  0.45045682570E+02  0.00000000000E+00 0.  1.
         11    1    4    4    0    0 -0.20400806877E+01  0.23245614074E+01  0.73973196568E+01  0.80178459273E+01  0.51100000000E-03 0. -1.
        -11    1    4    4    0    0 -0.15302212864E+02 -0.23667692632E+01  0.30947593314E+02  0.34605098576E+02  0.51100000000E-03 0.  1.
        -12    1    4    4    0    0 -0.12319266442E+01 -0.19695976493E+01  0.26436769165E+01  0.35193729265E+01  0.00000000000E+00 0.  1.
</event>
<event>
 8    1  0.2882335E-009  0.9118800E+02  0.7816164E-02  0.1184000E+00
        -11   -1    0    0    0    0  0.00000000000E+00  0.00000000000E+00  0.45593999997E+02  0.45594000000E+02  0.51100000000E-03 0. -1.
         11   -1    0    0    0    0 -0.00000000000E+00 -0.00000000000E+00 -0.45593999997E+02  0.45594000000E+02  0.51100000000E-03 0.  1.
         23    2    1    2    0    0  0.00000000000E+00  0.00000000000E+00  0.00000000000E+00  0.91188000000E+02  0.91188000000E+02 0.  0.
    9900012    2    3    3    0    0  0.20619999988E+02 -0.27346344370E+02  0.29259299665E+02  0.46142316890E+02  0.99999920562E+01 0.  0.
        -12    1    3    3    0    0 -0.20619999988E+02  0.27346344370E+02 -0.29259299665E+02  0.45045683110E+02  0.00000000000E+00 0.  1.
         11    1    4    4    0    0  0.99957151157E+01 -0.61154791266E+01  0.11030488375E+02  0.16093013381E+02  0.51100000000E-03 0. -1.
        -11    1    4    4    0    0  0.46138389094E+01 -0.11339864380E+02  0.82021011009E+01  0.14736162878E+02  0.51100000000E-03 0.  1.
         12    1    4    4    0    0  0.60104459633E+01 -0.98910008635E+01  0.10026710190E+02  0.15313140631E+02  0.00000000000E+00 0. -1.
</event>
<event>
 8    1  0.2882335E-009  0.9118800E+02  0.7816164E-02  0.1184000E+00
        -11   -1    0    0    0    0  0.00000000000E+00  0.00000000000E+00  0.45593999997E+02  0.45594000000E+02  0.51100000000E-03 0. -1.
         11   -1    0    0    0    0 -0.00000000000E+00 -0.00000000000E+00 -0.45593999997E+02  0.45594000000E+02  0.51100000000E-03 0.  1.
         23    2    1    2    0    0  0.00000000000E+00  0.00000000000E+00  0.00000000000E+00  0.91188000000E+02  0.91188000000E+02 0.  0.
    9900012    2    3    3    0    0  0.18229582576E+02 -0.41121080084E+02 -0.24192077849E+01  0.46142317915E+02  0.10000001403E+02 0.  0.
         12    1    3    3    0    0 -0.18229582576E+02  0.41121080084E+02  0.24192077849E+01  0.45045682085E+02  0.00000000000E+00 0. -1.
         11    1    4    4    0    0  0.94136537809E+01 -0.21694674975E+02  0.35282192723E+01  0.23910753465E+02  0.51100000000E-03 0. -1.
        -11    1    4    4    0    0  0.38696560506E+01 -0.79532634689E+01 -0.15079552752E+01  0.89723222818E+01  0.51100000000E-03 0.  1.
         12    1    4    4    0    0  0.49462727447E+01 -0.11473141641E+02 -0.44394717819E+01  0.13259242168E+02  0.00000000000E+00 0. -1.
</event>
<event>
 8    1  0.2882335E-009  0.9118800E+02  0.7816164E-02  0.1184000E+00
        -11   -1    0    0    0    0  0.00000000000E+00  0.00000000000E+00  0.45593999997E+02  0.45594000000E+02  0.51100000000E-03 0. -1.
         11   -1    0    0    0    0 -0.00000000000E+00 -0.00000000000E+00 -0.45593999997E+02  0.45594000000E+02  0.51100000000E-03 0.  1.
         23    2    1    2    0    0  0.00000000000E+00  0.00000000000E+00  0.35527136788E-14  0.91188000000E+02  0.91188000000E+02 0.  0.
    9900012    2    3    3    0    0  0.38075830187E+02 -0.57147187311E+01  0.23381329715E+02  0.46142318366E+02  0.10000005519E+02 0.  0.
        -12    1    3    3    0    0 -0.38075830187E+02  0.57147187311E+01 -0.23381329715E+02  0.45045681634E+02  0.00000000000E+00 0.  1.
         11    1    4    4    0    0  0.76326302811E+01 -0.14534683038E+01  0.47674145456E+01  0.91158025882E+01  0.51100000000E-03 0.  1.
        -11    1    4    4    0    0  0.10799508025E+02 -0.13591441752E+01  0.11749784503E+02  0.16016681385E+02  0.51100000000E-03 0. -1.
        -12    1    4    4    0    0  0.19643691881E+02 -0.29021062521E+01  0.68641306664E+01  0.21009834393E+02  0.00000000000E+00 0.  1.
</event>
<event>
 8    1  0.2882335E-009  0.9118800E+02  0.7816164E-02  0.1184000E+00
        -11   -1    0    0    0    0  0.00000000000E+00  0.00000000000E+00  0.45593999997E+02  0.45594000000E+02  0.51100000000E-03 0.  1.
         11   -1    0    0    0    0 -0.00000000000E+00 -0.00000000000E+00 -0.45593999997E+02  0.45594000000E+02  0.51100000000E-03 0. -1.
         23    2    1    2    0    0  0.71054273576E-14  0.00000000000E+00  0.00000000000E+00  0.91188000000E+02  0.91188000000E+02 0.  0.
    9900012    2    3    3    0    0 -0.37171093980E+02  0.25385968591E+02  0.17250864648E+01  0.46142317052E+02  0.99999935322E+01 0.  0.
        -12    1    3    3    0    0  0.37171093980E+02 -0.25385968591E+02 -0.17250864648E+01  0.45045682948E+02  0.00000000000E+00 0.  1.
         11    1    4    4    0    0 -0.28753500692E+02  0.15943110186E+02  0.19712171469E+00  0.32878342745E+02  0.51100000000E-03 0. -1.
        -11    1    4    4    0    0 -0.35721468211E+01  0.63616149387E+01 -0.96152096385E-01  0.72965487065E+01  0.51100000000E-03 0.  1.
         12    1    4    4    0    0 -0.48454464669E+01  0.30812434662E+01  0.16241168465E+01  0.59674256001E+01  0.00000000000E+00 0. -1.
</event>
<event>
 8    1  0.2882335E-009  0.9118800E+02  0.7816164E-02  0.1184000E+00
        -11   -1    0    0    0    0  0.00000000000E+00  0.00000000000E+00  0.45593999997E+02  0.45594000000E+02  0.51100000000E-03 0. -1.
         11   -1    0    0    0    0 -0.00000000000E+00 -0.00000000000E+00 -0.45593999997E+02  0.45594000000E+02  0.51100000000E-03 0.  1.
         23    2    1    2    0    0  0.00000000000E+00 -0.35527136788E-14  0.35527136788E-14  0.91188000000E+02  0.91188000000E+02 0.  0.
    9900012    2    3    3    0    0  0.15346490561E+02  0.31122057371E+02 -0.28723098792E+02  0.46142316169E+02  0.99999854847E+01 0.  0.
         12    1    3    3    0    0 -0.15346490561E+02 -0.31122057371E+02  0.28723098792E+02  0.45045683831E+02  0.00000000000E+00 0. -1.
         11    1    4    4    0    0  0.45803830972E+01  0.11676690595E+02 -0.62150679133E+01  0.13998288538E+02  0.51100000000E-03 0. -1.
        -11    1    4    4    0    0  0.87194841563E+01  0.12234881251E+02 -0.11955181471E+02  0.19200210609E+02  0.51100000000E-03 0.  1.
         12    1    4    4    0    0  0.20466233073E+01  0.72104855259E+01 -0.10552849408E+02  0.12943817023E+02  0.00000000000E+00 0. -1.
</event>
<event>
 8    1  0.2882335E-009  0.9118800E+02  0.7816164E-02  0.1184000E+00
        -11   -1    0    0    0    0  0.00000000000E+00  0.00000000000E+00  0.45593999997E+02  0.45594000000E+02  0.51100000000E-03 0. -1.
         11   -1    0    0    0    0 -0.00000000000E+00 -0.00000000000E+00 -0.45593999997E+02  0.45594000000E+02  0.51100000000E-03 0.  1.
         23    2    1    2    0    0 -0.88817841970E-15  0.00000000000E+00  0.00000000000E+00  0.91188000000E+02  0.91188000000E+02 0.  0.
    9900012    2    3    3    0    0 -0.60169085376E+01 -0.35087257065E+02  0.27600628771E+02  0.46142317574E+02  0.99999982902E+01 0.  0.
        -12    1    3    3    0    0  0.60169085376E+01  0.35087257065E+02 -0.27600628771E+02  0.45045682426E+02  0.00000000000E+00 0.  1.
         11    1    4    4    0    0 -0.14543931590E+01 -0.52260021736E+00  0.22027192476E+01  0.26907885077E+01  0.51100000000E-03 0. -1.
        -11    1    4    4    0    0  0.43866347686E+00 -0.27456349628E+00  0.55123809196E-01  0.52043218087E+00  0.51100000000E-03 0.  1.
         12    1    4    4    0    0 -0.50011788554E+01 -0.34290093351E+02  0.25342785714E+02  0.42931096885E+02  0.00000000000E+00 0. -1.
</event>
<event>
 8    1  0.2882335E-009  0.9118800E+02  0.7816164E-02  0.1184000E+00
        -11   -1    0    0    0    0  0.00000000000E+00  0.00000000000E+00  0.45593999997E+02  0.45594000000E+02  0.51100000000E-03 0. -1.
         11   -1    0    0    0    0 -0.00000000000E+00 -0.00000000000E+00 -0.45593999997E+02  0.45594000000E+02  0.51100000000E-03 0.  1.
         23    2    1    2    0    0  0.00000000000E+00  0.88817841970E-15  0.00000000000E+00  0.91188000000E+02  0.91188000000E+02 0.  0.
    9900012    2    3    3    0    0  0.94039501888E+01 -0.62939420042E+01 -0.43601211138E+02  0.46142316546E+02  0.99999889199E+01 0.  0.
         12    1    3    3    0    0 -0.94039501888E+01  0.62939420042E+01  0.43601211138E+02  0.45045683454E+02  0.00000000000E+00 0. -1.
         11    1    4    4    0    0  0.89635989903E+00  0.51932556713E+00 -0.83112698115E+00  0.13281311807E+01  0.51100000000E-03 0. -1.
        -11    1    4    4    0    0  0.62818892273E+01 -0.84959450827E+01 -0.34880787940E+02  0.36446022865E+02  0.51100000000E-03 0.  1.
         12    1    4    4    0    0  0.22257010625E+01  0.16826775113E+01 -0.78892962172E+01  0.83681625001E+01  0.00000000000E+00 0. -1.
</event>
<event>
 8    1  0.2882335E-009  0.9118800E+02  0.7816164E-02  0.1184000E+00
        -11   -1    0    0    0    0  0.00000000000E+00  0.00000000000E+00  0.45593999997E+02  0.45594000000E+02  0.51100000000E-03 0. -1.
         11   -1    0    0    0    0 -0.00000000000E+00 -0.00000000000E+00 -0.45593999997E+02  0.45594000000E+02  0.51100000000E-03 0.  1.
         23    2    1    2    0    0  0.35527136788E-14  0.00000000000E+00  0.00000000000E+00  0.91188000000E+02  0.91188000000E+02 0.  0.
    9900012    2    3    3    0    0  0.20671654680E+02 -0.28002072577E+02 -0.28595107355E+02  0.46142317183E+02  0.99999947267E+01 0.  0.
         12    1    3    3    0    0 -0.20671654680E+02  0.28002072577E+02  0.28595107355E+02  0.45045682817E+02  0.00000000000E+00 0. -1.
         11    1    4    4    0    0  0.24436335525E+01 -0.26190263615E+01 -0.38933809891E-01  0.35822004583E+01  0.51100000000E-03 0. -1.
        -11    1    4    4    0    0  0.11859391673E+02 -0.16525493576E+02 -0.21333990579E+02  0.29476707127E+02  0.51100000000E-03 0.  1.
         12    1    4    4    0    0  0.63686294543E+01 -0.88575526396E+01 -0.72221829666E+01  0.13083409597E+02  0.00000000000E+00 0. -1.
</event>
<event>
 8    1  0.2882335E-009  0.9118800E+02  0.7816164E-02  0.1184000E+00
        -11   -1    0    0    0    0  0.00000000000E+00  0.00000000000E+00  0.45593999997E+02  0.45594000000E+02  0.51100000000E-03 0.  1.
         11   -1    0    0    0    0 -0.00000000000E+00 -0.00000000000E+00 -0.45593999997E+02  0.45594000000E+02  0.51100000000E-03 0. -1.
         23    2    1    2    0    0  0.00000000000E+00  0.00000000000E+00  0.11102230246E-15  0.91188000000E+02  0.91188000000E+02 0.  0.
    9900012    2    3    3    0    0 -0.41982948512E+02 -0.16312218784E+02  0.67605008615E+00  0.46142317731E+02  0.99999997225E+01 0.  0.
         12    1    3    3    0    0  0.41982948512E+02  0.16312218784E+02 -0.67605008615E+00  0.45045682269E+02  0.00000000000E+00 0. -1.
         11    1    4    4    0    0 -0.33890031811E+00  0.63857308021E+00 -0.22702108129E+00  0.75773863361E+00  0.51100000000E-03 0. -1.
        -11    1    4    4    0    0 -0.15250633609E+02 -0.30845139515E+01  0.51024229016E+00  0.15567800077E+02  0.51100000000E-03 0.  1.
         12    1    4    4    0    0 -0.26393414585E+02 -0.13866277913E+02  0.39282887729E+00  0.29816779020E+02  0.00000000000E+00 0. -1.
</event>
<event>
 8    1  0.2882335E-009  0.9118800E+02  0.7816164E-02  0.1184000E+00
        -11   -1    0    0    0    0  0.00000000000E+00  0.00000000000E+00  0.45593999997E+02  0.45594000000E+02  0.51100000000E-03 0. -1.
         11   -1    0    0    0    0 -0.00000000000E+00 -0.00000000000E+00 -0.45593999997E+02  0.45594000000E+02  0.51100000000E-03 0.  1.
         23    2    1    2    0    0  0.88817841970E-15  0.00000000000E+00  0.71054273576E-14  0.91188000000E+02  0.91188000000E+02 0.  0.
    9900012    2    3    3    0    0  0.62459639604E+01 -0.55133081214E+01  0.44268552856E+02  0.46142318696E+02  0.10000008521E+02 0.  0.
        -12    1    3    3    0    0 -0.62459639604E+01  0.55133081214E+01 -0.44268552856E+02  0.45045681304E+02  0.00000000000E+00 0.  1.
         11    1    4    4    0    0  0.36670503115E+01 -0.11720783309E+01  0.20458527931E+02  0.20817598107E+02  0.51100000000E-03 0. -1.
        -11    1    4    4    0    0  0.42685129988E+01 -0.51298092903E+01  0.19978233795E+02  0.21063356152E+02  0.51100000000E-03 0.  1.
        -12    1    4    4    0    0 -0.16895993499E+01  0.78857949980E+00  0.38317911300E+01  0.42613644358E+01  0.00000000000E+00 0.  1.
</event>
<event>
 8    1  0.2882335E-009  0.9118800E+02  0.7816164E-02  0.1184000E+00
        -11   -1    0    0    0    0  0.00000000000E+00  0.00000000000E+00  0.45593999997E+02  0.45594000000E+02  0.51100000000E-03 0. -1.
         11   -1    0    0    0    0 -0.00000000000E+00 -0.00000000000E+00 -0.45593999997E+02  0.45594000000E+02  0.51100000000E-03 0.  1.
         23    2    1    2    0    0  0.00000000000E+00  0.00000000000E+00  0.00000000000E+00  0.91188000000E+02  0.91188000000E+02 0.  0.
    9900012    2    3    3    0    0 -0.21833779255E+02 -0.33286381880E+02  0.21081184575E+02  0.46142317873E+02  0.10000001020E+02 0.  0.
        -12    1    3    3    0    0  0.21833779255E+02  0.33286381880E+02 -0.21081184575E+02  0.45045682127E+02  0.00000000000E+00 0.  1.
         11    1    4    4    0    0 -0.40158064186E+01 -0.11001137563E+02  0.85541730913E+01  0.14502606883E+02  0.51100000000E-03 0. -1.
        -11    1    4    4    0    0 -0.96679156420E+01 -0.13893432224E+02  0.47069148358E+01  0.17568468896E+02  0.51100000000E-03 0.  1.
        -12    1    4    4    0    0 -0.81500571948E+01 -0.83918120924E+01  0.78200966477E+01  0.14071242093E+02  0.00000000000E+00 0.  1.
</event>
<event>
 8    1  0.2882335E-009  0.9118800E+02  0.7816164E-02  0.1184000E+00
        -11   -1    0    0    0    0  0.00000000000E+00  0.00000000000E+00  0.45593999997E+02  0.45594000000E+02  0.51100000000E-03 0.  1.
         11   -1    0    0    0    0 -0.00000000000E+00 -0.00000000000E+00 -0.45593999997E+02  0.45594000000E+02  0.51100000000E-03 0. -1.
         23    2    1    2    0    0  0.00000000000E+00  0.71054273576E-14 -0.17763568394E-14  0.91188000000E+02  0.91188000000E+02 0.  0.
    9900012    2    3    3    0    0  0.21096095134E+02 -0.37382492914E+02  0.13660804381E+02  0.46142316714E+02  0.99999904524E+01 0.  0.
        -12    1    3    3    0    0 -0.21096095134E+02  0.37382492914E+02 -0.13660804381E+02  0.45045683286E+02  0.00000000000E+00 0.  1.
         11    1    4    4    0    0  0.73711788322E+01 -0.16555408639E+02  0.45880685194E+01  0.18694015234E+02  0.51100000000E-03 0. -1.
        -11    1    4    4    0    0  0.11982306254E+02 -0.12967000163E+02  0.46285094800E+01  0.18252174026E+02  0.51100000000E-03 0.  1.
        -12    1    4    4    0    0  0.17426100478E+01 -0.78600841120E+01  0.44442263813E+01  0.91961274543E+01  0.00000000000E+00 0.  1.
</event>
<event>
 8    1  0.2882335E-009  0.9118800E+02  0.7816164E-02  0.1184000E+00
        -11   -1    0    0    0    0  0.00000000000E+00  0.00000000000E+00  0.45593999997E+02  0.45594000000E+02  0.51100000000E-03 0.  1.
         11   -1    0    0    0    0 -0.00000000000E+00 -0.00000000000E+00 -0.45593999997E+02  0.45594000000E+02  0.51100000000E-03 0. -1.
         23    2    1    2    0    0 -0.71054273576E-14  0.88817841970E-15 -0.88817841970E-15  0.91188000000E+02  0.91188000000E+02 0.  0.
    9900012    2    3    3    0    0 -0.44111875222E+02  0.73611688964E+01 -0.53915855575E+01  0.46142317211E+02  0.99999949840E+01 0.  0.
        -12    1    3    3    0    0  0.44111875222E+02 -0.73611688964E+01  0.53915855575E+01  0.45045682789E+02  0.00000000000E+00 0.  1.
         11    1    4    4    0    0 -0.11911112829E+02  0.36095033469E+01 -0.16355503131E+01  0.12553013516E+02  0.51100000000E-03 0.  1.
        -11    1    4    4    0    0 -0.12054606460E+02  0.52736782220E+01 -0.20112716485E+01  0.13310538411E+02  0.51100000000E-03 0. -1.
        -12    1    4    4    0    0 -0.20146155933E+02 -0.15220126724E+01 -0.17447635959E+01  0.20278765284E+02  0.00000000000E+00 0.  1.
</event>
<event>
 8    1  0.3275778E-009  0.9118800E+02  0.7816164E-02  0.1184000E+00
        -11   -1    0    0    0    0  0.00000000000E+00  0.00000000000E+00  0.45593999997E+02  0.45594000000E+02  0.51100000000E-03 0. -1.
         11   -1    0    0    0    0 -0.00000000000E+00 -0.00000000000E+00 -0.45593999997E+02  0.45594000000E+02  0.51100000000E-03 0.  1.
         23    2    1    2    0    0 -0.17763568394E-14 -0.22204460493E-15  0.00000000000E+00  0.91188000000E+02  0.91188000000E+02 0.  0.
    9900012    2    3    3    0    0  0.92541397941E+01  0.19963304232E+01  0.44039637027E+02  0.46142311328E+02  0.99999413340E+01 0.  0.
        -12    1    3    3    0    0 -0.92541397941E+01 -0.19963304232E+01 -0.44039637027E+02  0.45045688672E+02  0.00000000000E+00 0.  1.
         11    1    4    4    0    0  0.59551051274E+01 -0.26693206070E+01  0.29661901514E+02  0.30371317905E+02  0.51100000000E-03 0. -1.
        -11    1    4    4    0    0  0.79220729137E+00  0.89366396831E+00  0.74962515933E+00  0.14100233407E+01  0.51100000000E-03 0.  1.
         12    1    4    4    0    0  0.25068273753E+01  0.37719870619E+01  0.13628110353E+02  0.14360970082E+02  0.00000000000E+00 0. -1.
</event>
<event>
 8    1  0.2882335E-009  0.9118800E+02  0.7816164E-02  0.1184000E+00
        -11   -1    0    0    0    0  0.00000000000E+00  0.00000000000E+00  0.45593999997E+02  0.45594000000E+02  0.51100000000E-03 0. -1.
         11   -1    0    0    0    0 -0.00000000000E+00 -0.00000000000E+00 -0.45593999997E+02  0.45594000000E+02  0.51100000000E-03 0.  1.
         23    2    1    2    0    0 -0.17763568394E-14  0.00000000000E+00  0.00000000000E+00  0.91188000000E+02  0.91188000000E+02 0.  0.
    9900012    2    3    3    0    0 -0.11358376392E+02  0.39843379594E+02  0.17680664552E+02  0.46142317513E+02  0.99999977358E+01 0.  0.
        -12    1    3    3    0    0  0.11358376392E+02 -0.39843379594E+02 -0.17680664552E+02  0.45045682487E+02  0.00000000000E+00 0.  1.
         11    1    4    4    0    0 -0.55137870404E+01  0.13978274790E+02  0.11381995242E+02  0.18850565763E+02  0.51100000000E-03 0. -1.
        -11    1    4    4    0    0 -0.58422017649E+01  0.25517808384E+02  0.60598918922E+01  0.26870283887E+02  0.51100000000E-03 0.  1.
        -12    1    4    4    0    0 -0.23875866418E-02  0.34729642051E+00  0.23877741707E+00  0.42146786256E+00  0.00000000000E+00 0.  1.
</event>
<event>
 8    1  0.2882335E-009  0.9118800E+02  0.7816164E-02  0.1184000E+00
        -11   -1    0    0    0    0  0.00000000000E+00  0.00000000000E+00  0.45593999997E+02  0.45594000000E+02  0.51100000000E-03 0. -1.
         11   -1    0    0    0    0 -0.00000000000E+00 -0.00000000000E+00 -0.45593999997E+02  0.45594000000E+02  0.51100000000E-03 0.  1.
         23    2    1    2    0    0  0.35527136788E-14  0.71054273576E-14  0.00000000000E+00  0.91188000000E+02  0.91188000000E+02 0.  0.
    9900012    2    3    3    0    0  0.17102059661E+02  0.27790486643E+02  0.31053533893E+02  0.46142316969E+02  0.99999927752E+01 0.  0.
        -12    1    3    3    0    0 -0.17102059661E+02 -0.27790486643E+02 -0.31053533893E+02  0.45045683031E+02  0.00000000000E+00 0.  1.
         11    1    4    4    0    0  0.69643955533E+01  0.19677048172E+02  0.18012451169E+02  0.27570589902E+02  0.51100000000E-03 0. -1.
        -11    1    4    4    0    0  0.35530826977E+00  0.80086547730E+00  0.30970329044E+00  0.92927168714E+00  0.51100000000E-03 0.  1.
         12    1    4    4    0    0  0.97823558382E+01  0.73125729936E+01  0.12731379434E+02  0.17642455380E+02  0.00000000000E+00 0. -1.
</event>
<event>
 8    1  0.2882335E-009  0.9118800E+02  0.7816164E-02  0.1184000E+00
        -11   -1    0    0    0    0  0.00000000000E+00  0.00000000000E+00  0.45593999997E+02  0.45594000000E+02  0.51100000000E-03 0. -1.
         11   -1    0    0    0    0 -0.00000000000E+00 -0.00000000000E+00 -0.45593999997E+02  0.45594000000E+02  0.51100000000E-03 0.  1.
         23    2    1    2    0    0  0.00000000000E+00  0.00000000000E+00 -0.35527136788E-14  0.91188000000E+02  0.91188000000E+02 0.  0.
    9900012    2    3    3    0    0  0.17021213298E+02  0.31387266775E+02 -0.27463270857E+02  0.46142318033E+02  0.10000002478E+02 0.  0.
         12    1    3    3    0    0 -0.17021213298E+02 -0.31387266775E+02  0.27463270857E+02  0.45045681967E+02  0.00000000000E+00 0. -1.
         11    1    4    4    0    0  0.63641185336E+01  0.99367412066E+01 -0.57878181203E+01  0.13143046427E+02  0.51100000000E-03 0. -1.
        -11    1    4    4    0    0  0.73814700362E+01  0.18394646329E+02 -0.20156661217E+02  0.28269066223E+02  0.51100000000E-03 0.  1.
        -12    1    4    4    0    0  0.32756247286E+01  0.30558792389E+01 -0.15187915197E+01  0.47302053830E+01  0.00000000000E+00 0.  1.
</event>
<event>
 8    1  0.3587594E-009  0.9118800E+02  0.7816164E-02  0.1184000E+00
        -11   -1    0    0    0    0  0.00000000000E+00  0.00000000000E+00  0.45593999997E+02  0.45594000000E+02  0.51100000000E-03 0. -1.
         11   -1    0    0    0    0 -0.00000000000E+00 -0.00000000000E+00 -0.45593999997E+02  0.45594000000E+02  0.51100000000E-03 0.  1.
         23    2    1    2    0    0  0.00000000000E+00 -0.35527136788E-14  0.35527136788E-14  0.91188000000E+02  0.91188000000E+02 0.  0.
    9900012    2    3    3    0    0 -0.17158286140E+02  0.30793046812E+02 -0.28044517377E+02  0.46142317963E+02  0.10000001843E+02 0.  0.
         12    1    3    3    0    0  0.17158286140E+02 -0.30793046812E+02  0.28044517377E+02  0.45045682037E+02  0.00000000000E+00 0. -1.
         11    1    4    4    0    0 -0.17069611545E+00  0.49972413118E+01 -0.56603776456E+01  0.75525779204E+01  0.51100000000E-03 0. -1.
        -11    1    4    4    0    0 -0.55878618419E+01  0.11275253804E+02 -0.61504427445E+01  0.14006551843E+02  0.51100000000E-03 0.  1.
        -12    1    4    4    0    0 -0.11399728183E+02  0.14520551696E+02 -0.16233696987E+02  0.24583188200E+02  0.00000000000E+00 0.  1.
</event>
<event>
 8    1  0.2882335E-009  0.9118800E+02  0.7816164E-02  0.1184000E+00
        -11   -1    0    0    0    0  0.00000000000E+00  0.00000000000E+00  0.45593999997E+02  0.45594000000E+02  0.51100000000E-03 0. -1.
         11   -1    0    0    0    0 -0.00000000000E+00 -0.00000000000E+00 -0.45593999997E+02  0.45594000000E+02  0.51100000000E-03 0.  1.
         23    2    1    2    0    0  0.00000000000E+00  0.35527136788E-14  0.00000000000E+00  0.91188000000E+02  0.91188000000E+02 0.  0.
    9900012    2    3    3    0    0  0.25453687656E+01  0.28106176690E+02 -0.35109504924E+02  0.46142318672E+02  0.10000008308E+02 0.  0.
         12    1    3    3    0    0 -0.25453687656E+01 -0.28106176690E+02  0.35109504924E+02  0.45045681328E+02  0.00000000000E+00 0. -1.
         11    1    4    4    0    0  0.28080494712E+01  0.24954696026E+02 -0.25189122338E+02  0.35568439381E+02  0.51100000000E-03 0. -1.
        -11    1    4    4    0    0 -0.64015712874E+00  0.30016086604E+00 -0.29470830991E+01  0.30307089515E+01  0.51100000000E-03 0.  1.
        -12    1    4    4    0    0  0.37747642320E+00  0.28513197981E+01 -0.69732994868E+01  0.75431703397E+01  0.00000000000E+00 0.  1.
</event>
<event>
 8    1  0.2882335E-009  0.9118800E+02  0.7816164E-02  0.1184000E+00
        -11   -1    0    0    0    0  0.00000000000E+00  0.00000000000E+00  0.45593999997E+02  0.45594000000E+02  0.51100000000E-03 0. -1.
         11   -1    0    0    0    0 -0.00000000000E+00 -0.00000000000E+00 -0.45593999997E+02  0.45594000000E+02  0.51100000000E-03 0.  1.
         23    2    1    2    0    0  0.71054273576E-14  0.88817841970E-15  0.35527136788E-14  0.91188000000E+02  0.91188000000E+02 0.  0.
    9900012    2    3    3    0    0  0.41868431170E+02 -0.68852508650E+01  0.15124195591E+02  0.46142317628E+02  0.99999987867E+01 0.  0.
        -12    1    3    3    0    0 -0.41868431170E+02  0.68852508650E+01 -0.15124195591E+02  0.45045682372E+02  0.00000000000E+00 0.  1.
         11    1    4    4    0    0  0.97380817608E+01 -0.50797526868E+01  0.30376789560E+01  0.11395684159E+02  0.51100000000E-03 0.  1.
        -11    1    4    4    0    0  0.25474862175E+02 -0.13796953409E+01  0.72948526246E+01  0.26534638440E+02  0.51100000000E-03 0. -1.
         12    1    4    4    0    0  0.66554872338E+01 -0.42580283721E+00  0.47916640104E+01  0.82119950294E+01  0.00000000000E+00 0. -1.
</event>
<event>
 8    1  0.2882335E-009  0.9118800E+02  0.7816164E-02  0.1184000E+00
        -11   -1    0    0    0    0  0.00000000000E+00  0.00000000000E+00  0.45593999997E+02  0.45594000000E+02  0.51100000000E-03 0. -1.
         11   -1    0    0    0    0 -0.00000000000E+00 -0.00000000000E+00 -0.45593999997E+02  0.45594000000E+02  0.51100000000E-03 0.  1.
         23    2    1    2    0    0  0.00000000000E+00  0.35527136788E-14  0.00000000000E+00  0.91188000000E+02  0.91188000000E+02 0.  0.
    9900012    2    3    3    0    0  0.17293806462E+02 -0.25445824049E+02  0.32902093895E+02  0.46142317786E+02  0.10000000230E+02 0.  0.
        -12    1    3    3    0    0 -0.17293806462E+02  0.25445824049E+02 -0.32902093895E+02  0.45045682214E+02  0.00000000000E+00 0.  1.
         11    1    4    4    0    0  0.13547163772E+02 -0.18237259544E+02  0.27757705029E+02  0.35869394624E+02  0.51100000000E-03 0. -1.
        -11    1    4    4    0    0  0.87202601432E+00  0.23547476133E+00  0.38752429831E+00  0.98287999052E+00  0.51100000000E-03 0.  1.
        -12    1    4    4    0    0  0.28746166750E+01 -0.74440392661E+01  0.47568645672E+01  0.92900431718E+01  0.00000000000E+00 0.  1.
</event>
<event>
 8    1  0.2882335E-009  0.9118800E+02  0.7816164E-02  0.1184000E+00
        -11   -1    0    0    0    0  0.00000000000E+00  0.00000000000E+00  0.45593999997E+02  0.45594000000E+02  0.51100000000E-03 0. -1.
         11   -1    0    0    0    0 -0.00000000000E+00 -0.00000000000E+00 -0.45593999997E+02  0.45594000000E+02  0.51100000000E-03 0.  1.
         23    2    1    2    0    0  0.00000000000E+00 -0.44408920985E-15  0.00000000000E+00  0.91188000000E+02  0.91188000000E+02 0.  0.
    9900012    2    3    3    0    0  0.25200234554E+02  0.39494882453E+01  0.37127659789E+02  0.46142318738E+02  0.10000008907E+02 0.  0.
        -12    1    3    3    0    0 -0.25200234554E+02 -0.39494882453E+01 -0.37127659789E+02  0.45045681262E+02  0.00000000000E+00 0.  1.
         11    1    4    4    0    0  0.64103438208E+01 -0.17453871108E+01  0.12946398268E+02  0.14551567354E+02  0.51100000000E-03 0. -1.
        -11    1    4    4    0    0  0.13662865571E+02  0.57331807535E+01  0.15058061530E+02  0.21125540809E+02  0.51100000000E-03 0.  1.
        -12    1    4    4    0    0  0.51270251621E+01 -0.38305397328E-01  0.91231999907E+01  0.10465210575E+02  0.00000000000E+00 0.  1.
</event>
<event>
 8    1  0.2882335E-009  0.9118800E+02  0.7816164E-02  0.1184000E+00
        -11   -1    0    0    0    0  0.00000000000E+00  0.00000000000E+00  0.45593999997E+02  0.45594000000E+02  0.51100000000E-03 0. -1.
         11   -1    0    0    0    0 -0.00000000000E+00 -0.00000000000E+00 -0.45593999997E+02  0.45594000000E+02  0.51100000000E-03 0.  1.
         23    2    1    2    0    0  0.00000000000E+00 -0.13322676296E-14  0.71054273576E-14  0.91188000000E+02  0.91188000000E+02 0.  0.
    9900012    2    3    3    0    0 -0.18199948831E+02  0.25894079924E+01 -0.41123840053E+02  0.46142318831E+02  0.10000009759E+02 0.  0.
         12    1    3    3    0    0  0.18199948831E+02 -0.25894079924E+01  0.41123840053E+02  0.45045681169E+02  0.00000000000E+00 0. -1.
         11    1    4    4    0    0 -0.43033153400E+01 -0.30929459797E+00 -0.42921272496E+01  0.60857655765E+01  0.51100000000E-03 0. -1.
        -11    1    4    4    0    0 -0.13068375755E+02  0.45948569457E+01 -0.32771990768E+02  0.35579467877E+02  0.51100000000E-03 0.  1.
        -12    1    4    4    0    0 -0.82825773600E+00 -0.16961543553E+01 -0.40597220360E+01  0.44770853782E+01  0.00000000000E+00 0.  1.
</event>
<event>
 8    1  0.2882335E-009  0.9118800E+02  0.7816164E-02  0.1184000E+00
        -11   -1    0    0    0    0  0.00000000000E+00  0.00000000000E+00  0.45593999997E+02  0.45594000000E+02  0.51100000000E-03 0. -1.
         11   -1    0    0    0    0 -0.00000000000E+00 -0.00000000000E+00 -0.45593999997E+02  0.45594000000E+02  0.51100000000E-03 0.  1.
         23    2    1    2    0    0  0.00000000000E+00  0.00000000000E+00  0.71054273576E-14  0.91188000000E+02  0.91188000000E+02 0.  0.
    9900012    2    3    3    0    0  0.29829162866E+01  0.30014747316E+02  0.33456399885E+02  0.46142317196E+02  0.99999948511E+01 0.  0.
        -12    1    3    3    0    0 -0.29829162866E+01 -0.30014747316E+02 -0.33456399885E+02  0.45045682804E+02  0.00000000000E+00 0.  1.
         11    1    4    4    0    0  0.31344629445E+01  0.13537867009E+02  0.20248875564E+02  0.24558413283E+02  0.51100000000E-03 0. -1.
        -11    1    4    4    0    0  0.19610198327E+01  0.96574072588E+01  0.66351842483E+01  0.11880100337E+02  0.51100000000E-03 0.  1.
         12    1    4    4    0    0 -0.21125664907E+01  0.68194730474E+01  0.65723400722E+01  0.97038035762E+01  0.00000000000E+00 0. -1.
</event>
<event>
 8    1  0.2882335E-009  0.9118800E+02  0.7816164E-02  0.1184000E+00
        -11   -1    0    0    0    0  0.00000000000E+00  0.00000000000E+00  0.45593999997E+02  0.45594000000E+02  0.51100000000E-03 0. -1.
         11   -1    0    0    0    0 -0.00000000000E+00 -0.00000000000E+00 -0.45593999997E+02  0.45594000000E+02  0.51100000000E-03 0.  1.
         23    2    1    2    0    0  0.00000000000E+00  0.00000000000E+00  0.00000000000E+00  0.91188000000E+02  0.91188000000E+02 0.  0.
    9900012    2    3    3    0    0 -0.53399152171E+01  0.54246439508E+01 -0.44397883754E+02  0.46142317206E+02  0.99999949364E+01 0.  0.
         12    1    3    3    0    0  0.53399152171E+01 -0.54246439508E+01  0.44397883754E+02  0.45045682794E+02  0.00000000000E+00 0. -1.
         11    1    4    4    0    0 -0.89426200227E+00  0.49254342195E+01 -0.11568150245E+02  0.12604828723E+02  0.51100000000E-03 0. -1.
        -11    1    4    4    0    0 -0.30841526413E+01  0.21911990811E+01 -0.27836343214E+02  0.28092265033E+02  0.51100000000E-03 0.  1.
         12    1    4    4    0    0 -0.13615005735E+01 -0.16919893498E+01 -0.49933902952E+01  0.54452234492E+01  0.00000000000E+00 0. -1.
</event>
<event>
 8    1  0.2882335E-009  0.9118800E+02  0.7816164E-02  0.1184000E+00
        -11   -1    0    0    0    0  0.00000000000E+00  0.00000000000E+00  0.45593999997E+02  0.45594000000E+02  0.51100000000E-03 0. -1.
         11   -1    0    0    0    0 -0.00000000000E+00 -0.00000000000E+00 -0.45593999997E+02  0.45594000000E+02  0.51100000000E-03 0.  1.
         23    2    1    2    0    0  0.35527136788E-14  0.00000000000E+00  0.35527136788E-14  0.91188000000E+02  0.91188000000E+02 0.  0.
    9900012    2    3    3    0    0 -0.25592044223E+02  0.28675714631E+02 -0.23491789669E+02  0.46142317421E+02  0.99999969014E+01 0.  0.
         12    1    3    3    0    0  0.25592044223E+02 -0.28675714631E+02  0.23491789669E+02  0.45045682579E+02  0.00000000000E+00 0. -1.
         11    1    4    4    0    0 -0.13325683086E+02  0.12683072535E+02 -0.11762935058E+02  0.21835768823E+02  0.51100000000E-03 0. -1.
        -11    1    4    4    0    0 -0.11431350982E+02  0.10031122048E+02 -0.75573113262E+01  0.16982701480E+02  0.51100000000E-03 0.  1.
         12    1    4    4    0    0 -0.83501015522E+00  0.59615200474E+01 -0.41715432849E+01  0.73238471183E+01  0.00000000000E+00 0. -1.
</event>
<event>
 8    1  0.2882335E-009  0.9118800E+02  0.7816164E-02  0.1184000E+00
        -11   -1    0    0    0    0  0.00000000000E+00  0.00000000000E+00  0.45593999997E+02  0.45594000000E+02  0.51100000000E-03 0. -1.
         11   -1    0    0    0    0 -0.00000000000E+00 -0.00000000000E+00 -0.45593999997E+02  0.45594000000E+02  0.51100000000E-03 0.  1.
         23    2    1    2    0    0  0.00000000000E+00  0.35527136788E-14  0.00000000000E+00  0.91188000000E+02  0.91188000000E+02 0.  0.
    9900012    2    3    3    0    0 -0.28078157243E+02  0.23447570364E+02 -0.26285775108E+02  0.46142318263E+02  0.10000004575E+02 0.  0.
         12    1    3    3    0    0  0.28078157243E+02 -0.23447570364E+02  0.26285775108E+02  0.45045681737E+02  0.00000000000E+00 0. -1.
         11    1    4    4    0    0 -0.24493908284E+02  0.21975657710E+02 -0.25477479744E+02  0.41617100441E+02  0.51100000000E-03 0. -1.
        -11    1    4    4    0    0 -0.87682872063E+00  0.13372666383E+01  0.24354071665E+00  0.16175360920E+01  0.51100000000E-03 0.  1.
         12    1    4    4    0    0 -0.27074202389E+01  0.13464601609E+00 -0.10518360805E+01  0.29076817295E+01  0.00000000000E+00 0. -1.
</event>
<event>
 8    1  0.2882335E-009  0.9118800E+02  0.7816164E-02  0.1184000E+00
        -11   -1    0    0    0    0  0.00000000000E+00  0.00000000000E+00  0.45593999997E+02  0.45594000000E+02  0.51100000000E-03 0.  1.
         11   -1    0    0    0    0 -0.00000000000E+00 -0.00000000000E+00 -0.45593999997E+02  0.45594000000E+02  0.51100000000E-03 0. -1.
         23    2    1    2    0    0  0.35527136788E-14  0.00000000000E+00  0.00000000000E+00  0.91188000000E+02  0.91188000000E+02 0.  0.
    9900012    2    3    3    0    0  0.19958117953E+02  0.38535887571E+02 -0.12073622699E+02  0.46142317985E+02  0.10000002044E+02 0.  0.
         12    1    3    3    0    0 -0.19958117953E+02 -0.38535887571E+02  0.12073622699E+02  0.45045682015E+02  0.00000000000E+00 0. -1.
         11    1    4    4    0    0 -0.98378910035E-01  0.24498377754E+01 -0.20671386111E+01  0.32069371422E+01  0.51100000000E-03 0. -1.
        -11    1    4    4    0    0  0.81963334787E+01  0.10620338246E+02 -0.10781800609E+01  0.13458600947E+02  0.51100000000E-03 0.  1.
         12    1    4    4    0    0  0.11860163385E+02  0.25465711550E+02 -0.89283040270E+01  0.29476779896E+02  0.00000000000E+00 0. -1.
</event>
<event>
 8    1  0.2882335E-009  0.9118800E+02  0.7816164E-02  0.1184000E+00
        -11   -1    0    0    0    0  0.00000000000E+00  0.00000000000E+00  0.45593999997E+02  0.45594000000E+02  0.51100000000E-03 0. -1.
         11   -1    0    0    0    0 -0.00000000000E+00 -0.00000000000E+00 -0.45593999997E+02  0.45594000000E+02  0.51100000000E-03 0.  1.
         23    2    1    2    0    0  0.00000000000E+00 -0.35527136788E-14 -0.35527136788E-14  0.91188000000E+02  0.91188000000E+02 0.  0.
    9900012    2    3    3    0    0 -0.22613081391E+02  0.26066729274E+02  0.28953197379E+02  0.46142318037E+02  0.10000002515E+02 0.  0.
        -12    1    3    3    0    0  0.22613081391E+02 -0.26066729274E+02 -0.28953197379E+02  0.45045681963E+02  0.00000000000E+00 0.  1.
         11    1    4    4    0    0 -0.55694251613E+00 -0.46456045623E+00  0.17765227165E+01  0.19188628422E+01  0.51100000000E-03 0. -1.
        -11    1    4    4    0    0  0.25678536100E+00  0.35507143391E+00  0.66397145864E+00  0.79553303125E+00  0.51100000000E-03 0.  1.
         12    1    4    4    0    0 -0.22312924236E+02  0.26176218297E+02  0.26512703204E+02  0.43427922163E+02  0.00000000000E+00 0. -1.
</event>
<event>
 8    1  0.2882335E-009  0.9118800E+02  0.7816164E-02  0.1184000E+00
        -11   -1    0    0    0    0  0.00000000000E+00  0.00000000000E+00  0.45593999997E+02  0.45594000000E+02  0.51100000000E-03 0. -1.
         11   -1    0    0    0    0 -0.00000000000E+00 -0.00000000000E+00 -0.45593999997E+02  0.45594000000E+02  0.51100000000E-03 0.  1.
         23    2    1    2    0    0  0.00000000000E+00  0.00000000000E+00  0.00000000000E+00  0.91188000000E+02  0.91188000000E+02 0.  0.
    9900012    2    3    3    0    0  0.44721499034E+02  0.48226617191E+01  0.24172601786E+01  0.46142315538E+02  0.99999797284E+01 0.  0.
         12    1    3    3    0    0 -0.44721499034E+02 -0.48226617191E+01 -0.24172601786E+01  0.45045684462E+02  0.00000000000E+00 0. -1.
         11    1    4    4    0    0  0.30964240263E+00  0.16234383717E+00 -0.88714119226E+00  0.95354795113E+00  0.51100000000E-03 0. -1.
        -11    1    4    4    0    0  0.14028489911E+02  0.24550317088E+01  0.37317053990E+01  0.14722477214E+02  0.51100000000E-03 0.  1.
         12    1    4    4    0    0  0.30383366720E+02  0.22052861731E+01 -0.42730402805E+00  0.30466290373E+02  0.00000000000E+00 0. -1.
</event>
<event>
 8    1  0.2882335E-009  0.9118800E+02  0.7816164E-02  0.1184000E+00
        -11   -1    0    0    0    0  0.00000000000E+00  0.00000000000E+00  0.45593999997E+02  0.45594000000E+02  0.51100000000E-03 0. -1.
         11   -1    0    0    0    0 -0.00000000000E+00 -0.00000000000E+00 -0.45593999997E+02  0.45594000000E+02  0.51100000000E-03 0.  1.
         23    2    1    2    0    0  0.00000000000E+00 -0.17763568394E-14  0.00000000000E+00  0.91188000000E+02  0.91188000000E+02 0.  0.
    9900012    2    3    3    0    0  0.12627223563E+02 -0.59800183021E+01  0.42824130696E+02  0.46142316925E+02  0.99999923792E+01 0.  0.
        -12    1    3    3    0    0 -0.12627223563E+02  0.59800183021E+01 -0.42824130696E+02  0.45045683075E+02  0.00000000000E+00 0.  1.
         11    1    4    4    0    0  0.33364347610E+01 -0.63693585231E+01  0.25094985292E+02  0.26104766077E+02  0.51100000000E-03 0. -1.
        -11    1    4    4    0    0  0.71270711564E+01 -0.38846959767E-01  0.13790642546E+02  0.15523481390E+02  0.51100000000E-03 0.  1.
         12    1    4    4    0    0  0.21637176460E+01  0.42818718069E+00  0.39385028580E+01  0.45140694585E+01  0.00000000000E+00 0. -1.
</event>
<event>
 8    1  0.2922411E-009  0.9118800E+02  0.7816164E-02  0.1184000E+00
        -11   -1    0    0    0    0  0.00000000000E+00  0.00000000000E+00  0.45593999997E+02  0.45594000000E+02  0.51100000000E-03 0. -1.
         11   -1    0    0    0    0 -0.00000000000E+00 -0.00000000000E+00 -0.45593999997E+02  0.45594000000E+02  0.51100000000E-03 0.  1.
         23    2    1    2    0    0  0.00000000000E+00  0.00000000000E+00  0.00000000000E+00  0.91188000000E+02  0.91188000000E+02 0.  0.
    9900012    2    3    3    0    0  0.11029963101E+02 -0.16291490918E+02 -0.40522097599E+02  0.46142321449E+02  0.10000033628E+02 0.  0.
         12    1    3    3    0    0 -0.11029963101E+02  0.16291490918E+02  0.40522097599E+02  0.45045678551E+02  0.00000000000E+00 0. -1.
         11    1    4    4    0    0  0.27695260733E+01 -0.52624525514E+01 -0.53985045083E+01  0.80316581547E+01  0.51100000000E-03 0. -1.
        -11    1    4    4    0    0  0.82039265874E+01 -0.74306938387E+01 -0.28472464029E+02  0.30548335970E+02  0.51100000000E-03 0.  1.
        -12    1    4    4    0    0  0.56510440419E-01 -0.35983445279E+01 -0.66511290610E+01  0.75623273241E+01  0.00000000000E+00 0.  1.
</event>
<event>
 8    1  0.2882335E-009  0.9118800E+02  0.7816164E-02  0.1184000E+00
        -11   -1    0    0    0    0  0.00000000000E+00  0.00000000000E+00  0.45593999997E+02  0.45594000000E+02  0.51100000000E-03 0.  1.
         11   -1    0    0    0    0 -0.00000000000E+00 -0.00000000000E+00 -0.45593999997E+02  0.45594000000E+02  0.51100000000E-03 0. -1.
         23    2    1    2    0    0  0.00000000000E+00  0.35527136788E-14 -0.17763568394E-14  0.91188000000E+02  0.91188000000E+02 0.  0.
    9900012    2    3    3    0    0 -0.29997706875E+02  0.30644146330E+02 -0.13790837867E+02  0.46142319506E+02  0.10000015915E+02 0.  0.
        -12    1    3    3    0    0  0.29997706875E+02 -0.30644146330E+02  0.13790837867E+02  0.45045680494E+02  0.00000000000E+00 0.  1.
         11    1    4    4    0    0 -0.85715223882E+01  0.85114342454E+01 -0.30846230390E+01  0.12467173237E+02  0.51100000000E-03 0. -1.
        -11    1    4    4    0    0 -0.86692691272E+01  0.73685132492E+01 -0.81519210627E+01  0.13996607874E+02  0.51100000000E-03 0.  1.
        -12    1    4    4    0    0 -0.12756915360E+02  0.14764198835E+02 -0.25542937653E+01  0.19678538395E+02  0.00000000000E+00 0.  1.
</event>
<event>
 8    1  0.2882335E-009  0.9118800E+02  0.7816164E-02  0.1184000E+00
        -11   -1    0    0    0    0  0.00000000000E+00  0.00000000000E+00  0.45593999997E+02  0.45594000000E+02  0.51100000000E-03 0. -1.
         11   -1    0    0    0    0 -0.00000000000E+00 -0.00000000000E+00 -0.45593999997E+02  0.45594000000E+02  0.51100000000E-03 0.  1.
         23    2    1    2    0    0 -0.35527136788E-14  0.00000000000E+00  0.00000000000E+00  0.91188000000E+02  0.91188000000E+02 0.  0.
    9900012    2    3    3    0    0  0.18515355996E+02 -0.26406208149E+02 -0.31448485993E+02  0.46142317546E+02  0.99999980373E+01 0.  0.
         12    1    3    3    0    0 -0.18515355996E+02  0.26406208149E+02  0.31448485993E+02  0.45045682454E+02  0.00000000000E+00 0. -1.
         11    1    4    4    0    0  0.77934492849E+01 -0.56251304284E+01 -0.71821680138E+01  0.11998478309E+02  0.51100000000E-03 0. -1.
        -11    1    4    4    0    0  0.94022107569E+01 -0.14775309075E+02 -0.20373393726E+02  0.26866084522E+02  0.51100000000E-03 0.  1.
        -12    1    4    4    0    0  0.13196959537E+01 -0.60057686461E+01 -0.38929242536E+01  0.72777547145E+01  0.00000000000E+00 0.  1.
</event>
<event>
 8    1  0.2882335E-009  0.9118800E+02  0.7816164E-02  0.1184000E+00
        -11   -1    0    0    0    0  0.00000000000E+00  0.00000000000E+00  0.45593999997E+02  0.45594000000E+02  0.51100000000E-03 0. -1.
         11   -1    0    0    0    0 -0.00000000000E+00 -0.00000000000E+00 -0.45593999997E+02  0.45594000000E+02  0.51100000000E-03 0.  1.
         23    2    1    2    0    0  0.00000000000E+00  0.00000000000E+00  0.00000000000E+00  0.91188000000E+02  0.91188000000E+02 0.  0.
    9900012    2    3    3    0    0  0.25631266334E+02  0.15012385313E+02 -0.33864140965E+02  0.46142316855E+02  0.99999917378E+01 0.  0.
         12    1    3    3    0    0 -0.25631266334E+02 -0.15012385313E+02  0.33864140965E+02  0.45045683145E+02  0.00000000000E+00 0. -1.
         11    1    4    4    0    0  0.10771749324E+02  0.71958157317E+01 -0.12205930107E+02  0.17798738090E+02  0.51100000000E-03 0.  1.
        -11    1    4    4    0    0 -0.44082937018E+00  0.31304050986E+00  0.24361432537E+00  0.59302031590E+00  0.51100000000E-03 0. -1.
        -12    1    4    4    0    0  0.15300346380E+02  0.75035290710E+01 -0.21901825184E+02  0.27750558449E+02  0.00000000000E+00 0.  1.
</event>
<event>
 8    1  0.2882335E-009  0.9118800E+02  0.7816164E-02  0.1184000E+00
        -11   -1    0    0    0    0  0.00000000000E+00  0.00000000000E+00  0.45593999997E+02  0.45594000000E+02  0.51100000000E-03 0.  1.
         11   -1    0    0    0    0 -0.00000000000E+00 -0.00000000000E+00 -0.45593999997E+02  0.45594000000E+02  0.51100000000E-03 0. -1.
         23    2    1    2    0    0 -0.88817841970E-15  0.00000000000E+00  0.35527136788E-14  0.91188000000E+02  0.91188000000E+02 0.  0.
    9900012    2    3    3    0    0 -0.77192603187E+01  0.40914545597E+02  0.17190882710E+02  0.46142317969E+02  0.10000001897E+02 0.  0.
        -12    1    3    3    0    0  0.77192603187E+01 -0.40914545597E+02 -0.17190882710E+02  0.45045682031E+02  0.00000000000E+00 0.  1.
         11    1    4    4    0    0 -0.21375875690E+01  0.16554900100E+02  0.79956631158E+01  0.18508501476E+02  0.51100000000E-03 0. -1.
        -11    1    4    4    0    0 -0.27286905444E+01  0.18195263043E+02  0.34112347463E+01  0.18712292004E+02  0.51100000000E-03 0.  1.
        -12    1    4    4    0    0 -0.28529822052E+01  0.61643824538E+01  0.57839848475E+01  0.89215244895E+01  0.00000000000E+00 0.  1.
</event>
<event>
 8    1  0.2882335E-009  0.9118800E+02  0.7816164E-02  0.1184000E+00
        -11   -1    0    0    0    0  0.00000000000E+00  0.00000000000E+00  0.45593999997E+02  0.45594000000E+02  0.51100000000E-03 0. -1.
         11   -1    0    0    0    0 -0.00000000000E+00 -0.00000000000E+00 -0.45593999997E+02  0.45594000000E+02  0.51100000000E-03 0.  1.
         23    2    1    2    0    0  0.00000000000E+00  0.00000000000E+00  0.00000000000E+00  0.91188000000E+02  0.91188000000E+02 0.  0.
    9900012    2    3    3    0    0  0.11886444065E+01  0.39002180810E+02 -0.22506231658E+02  0.46142318221E+02  0.10000004194E+02 0.  0.
         12    1    3    3    0    0 -0.11886444065E+01 -0.39002180810E+02  0.22506231658E+02  0.45045681779E+02  0.00000000000E+00 0. -1.
         11    1    4    4    0    0 -0.34091107559E+01  0.97816980027E+01 -0.44161705412E+01  0.11260826545E+02  0.51100000000E-03 0. -1.
        -11    1    4    4    0    0  0.30908985700E+01  0.15724416326E+02 -0.11882413042E+02  0.19950004078E+02  0.51100000000E-03 0.  1.
         12    1    4    4    0    0  0.15068565924E+01  0.13496066482E+02 -0.62076480747E+01  0.14931487598E+02  0.00000000000E+00 0. -1.
</event>
<event>
 8    1  0.2882335E-009  0.9118800E+02  0.7816164E-02  0.1184000E+00
        -11   -1    0    0    0    0  0.00000000000E+00  0.00000000000E+00  0.45593999997E+02  0.45594000000E+02  0.51100000000E-03 0. -1.
         11   -1    0    0    0    0 -0.00000000000E+00 -0.00000000000E+00 -0.45593999997E+02  0.45594000000E+02  0.51100000000E-03 0.  1.
         23    2    1    2    0    0  0.35527136788E-14  0.35527136788E-14  0.71054273576E-14  0.91188000000E+02  0.91188000000E+02 0.  0.
    9900012    2    3    3    0    0  0.22962975506E+02  0.18567818893E+02  0.34015457307E+02  0.46142317872E+02  0.10000001014E+02 0.  0.
        -12    1    3    3    0    0 -0.22962975506E+02 -0.18567818893E+02 -0.34015457307E+02  0.45045682128E+02  0.00000000000E+00 0.  1.
         11    1    4    4    0    0  0.38822358040E+01  0.71930555176E+01  0.13396482292E+02  0.15693232318E+02  0.51100000000E-03 0. -1.
        -11    1    4    4    0    0  0.16711496680E+02  0.88343586964E+01  0.16840303165E+02  0.25316315407E+02  0.51100000000E-03 0.  1.
        -12    1    4    4    0    0  0.23692430217E+01  0.25404046790E+01  0.37786718511E+01  0.51327701475E+01  0.00000000000E+00 0.  1.
</event>
<event>
 8    1  0.2882335E-009  0.9118800E+02  0.7816164E-02  0.1184000E+00
        -11   -1    0    0    0    0  0.00000000000E+00  0.00000000000E+00  0.45593999997E+02  0.45594000000E+02  0.51100000000E-03 0. -1.
         11   -1    0    0    0    0 -0.00000000000E+00 -0.00000000000E+00 -0.45593999997E+02  0.45594000000E+02  0.51100000000E-03 0.  1.
         23    2    1    2    0    0  0.00000000000E+00 -0.17763568394E-14  0.00000000000E+00  0.91188000000E+02  0.91188000000E+02 0.  0.
    9900012    2    3    3    0    0  0.20789604442E+02  0.10637774382E+02  0.38519395404E+02  0.46142315202E+02  0.99999766622E+01 0.  0.
        -12    1    3    3    0    0 -0.20789604442E+02 -0.10637774382E+02 -0.38519395404E+02  0.45045684798E+02  0.00000000000E+00 0.  1.
         11    1    4    4    0    0  0.63058957099E+01  0.36748863594E+01  0.80335351302E+01  0.10853883978E+02  0.51100000000E-03 0. -1.
        -11    1    4    4    0    0  0.24197139410E+01 -0.44456976975E+00  0.10577856515E+02  0.10860189066E+02  0.51100000000E-03 0.  1.
        -12    1    4    4    0    0  0.12063994791E+02  0.74074577925E+01  0.19908003759E+02  0.24428242158E+02  0.00000000000E+00 0.  1.
</event>
<event>
 8    1  0.2882335E-009  0.9118800E+02  0.7816164E-02  0.1184000E+00
        -11   -1    0    0    0    0  0.00000000000E+00  0.00000000000E+00  0.45593999997E+02  0.45594000000E+02  0.51100000000E-03 0. -1.
         11   -1    0    0    0    0 -0.00000000000E+00 -0.00000000000E+00 -0.45593999997E+02  0.45594000000E+02  0.51100000000E-03 0.  1.
         23    2    1    2    0    0 -0.35527136788E-14  0.00000000000E+00 -0.71054273576E-14  0.91188000000E+02  0.91188000000E+02 0.  0.
    9900012    2    3    3    0    0  0.18746395989E+02  0.71557853408E+00  0.40953315552E+02  0.46142317966E+02  0.10000001865E+02 0.  0.
        -12    1    3    3    0    0 -0.18746395989E+02 -0.71557853408E+00 -0.40953315552E+02  0.45045682034E+02  0.00000000000E+00 0.  1.
         11    1    4    4    0    0  0.61911187893E+01  0.13869400299E+01  0.21113182940E+02  0.22045862392E+02  0.51100000000E-03 0. -1.
        -11    1    4    4    0    0  0.85666938960E+01 -0.20156716540E+01  0.95917407132E+01  0.13017398615E+02  0.51100000000E-03 0.  1.
        -12    1    4    4    0    0  0.39885833040E+01  0.13443101583E+01  0.10248391899E+02  0.11079056959E+02  0.00000000000E+00 0.  1.
</event>
<event>
 8    1  0.2882335E-009  0.9118800E+02  0.7816164E-02  0.1184000E+00
        -11   -1    0    0    0    0  0.00000000000E+00  0.00000000000E+00  0.45593999997E+02  0.45594000000E+02  0.51100000000E-03 0. -1.
         11   -1    0    0    0    0 -0.00000000000E+00 -0.00000000000E+00 -0.45593999997E+02  0.45594000000E+02  0.51100000000E-03 0.  1.
         23    2    1    2    0    0  0.22204460493E-15  0.00000000000E+00  0.35527136788E-14  0.91188000000E+02  0.91188000000E+02 0.  0.
    9900012    2    3    3    0    0  0.17036034161E+01 -0.39921236645E+02  0.20796781333E+02  0.46142317480E+02  0.99999974365E+01 0.  0.
        -12    1    3    3    0    0 -0.17036034161E+01  0.39921236645E+02 -0.20796781333E+02  0.45045682520E+02  0.00000000000E+00 0.  1.
         11    1    4    4    0    0  0.46145006548E+01 -0.17010443638E+02  0.10161119235E+02  0.20344462476E+02  0.51100000000E-03 0. -1.
        -11    1    4    4    0    0 -0.22313368027E+01 -0.86909368358E+01  0.61259366118E+01  0.10864545395E+02  0.51100000000E-03 0.  1.
         12    1    4    4    0    0 -0.67956043607E+00 -0.14219856171E+02  0.45097254862E+01  0.14933309609E+02  0.00000000000E+00 0. -1.
</event>
<event>
 8    1  0.2882335E-009  0.9118800E+02  0.7816164E-02  0.1184000E+00
        -11   -1    0    0    0    0  0.00000000000E+00  0.00000000000E+00  0.45593999997E+02  0.45594000000E+02  0.51100000000E-03 0. -1.
         11   -1    0    0    0    0 -0.00000000000E+00 -0.00000000000E+00 -0.45593999997E+02  0.45594000000E+02  0.51100000000E-03 0.  1.
         23    2    1    2    0    0 -0.35527136788E-14  0.00000000000E+00  0.00000000000E+00  0.91188000000E+02  0.91188000000E+02 0.  0.
    9900012    2    3    3    0    0  0.30309111964E+02  0.32250328282E+02 -0.83897340321E+01  0.46142316750E+02  0.99999907832E+01 0.  0.
         12    1    3    3    0    0 -0.30309111964E+02 -0.32250328282E+02  0.83897340321E+01  0.45045683250E+02  0.00000000000E+00 0. -1.
         11    1    4    4    0    0  0.80030796963E+01  0.72958248936E+01 -0.32538880606E+01  0.11307790822E+02  0.51100000000E-03 0. -1.
        -11    1    4    4    0    0  0.15253848903E+02  0.10960694074E+02 -0.28356118347E+01  0.18996247410E+02  0.51100000000E-03 0.  1.
        -12    1    4    4    0    0  0.70521833643E+01  0.13993809314E+02 -0.23002341368E+01  0.15838278518E+02  0.00000000000E+00 0.  1.
</event>
<event>
 8    1  0.3253552E-009  0.9118800E+02  0.7816164E-02  0.1184000E+00
        -11   -1    0    0    0    0  0.00000000000E+00  0.00000000000E+00  0.45593999997E+02  0.45594000000E+02  0.51100000000E-03 0. -1.
         11   -1    0    0    0    0 -0.00000000000E+00 -0.00000000000E+00 -0.45593999997E+02  0.45594000000E+02  0.51100000000E-03 0.  1.
         23    2    1    2    0    0  0.35527136788E-14 -0.44408920985E-15  0.00000000000E+00  0.91188000000E+02  0.91188000000E+02 0.  0.
    9900012    2    3    3    0    0  0.25060419356E+02 -0.39107632225E+01 -0.37226263609E+02  0.46142318858E+02  0.10000010001E+02 0.  0.
         12    1    3    3    0    0 -0.25060419356E+02  0.39107632225E+01  0.37226263609E+02  0.45045681142E+02  0.00000000000E+00 0. -1.
         11    1    4    4    0    0  0.34743538245E+01  0.58635251221E+00 -0.22413978710E+01  0.41759799381E+01  0.51100000000E-03 0. -1.
        -11    1    4    4    0    0  0.18861303380E+01 -0.11875474244E+01 -0.85316719959E+01  0.88180033932E+01  0.51100000000E-03 0.  1.
        -12    1    4    4    0    0  0.19699935194E+02 -0.33095683103E+01 -0.26453193742E+02  0.33148335527E+02  0.00000000000E+00 0.  1.
</event>
<event>
 8    1  0.2882335E-009  0.9118800E+02  0.7816164E-02  0.1184000E+00
        -11   -1    0    0    0    0  0.00000000000E+00  0.00000000000E+00  0.45593999997E+02  0.45594000000E+02  0.51100000000E-03 0. -1.
         11   -1    0    0    0    0 -0.00000000000E+00 -0.00000000000E+00 -0.45593999997E+02  0.45594000000E+02  0.51100000000E-03 0.  1.
         23    2    1    2    0    0 -0.71054273576E-14  0.17763568394E-14  0.17763568394E-14  0.91188000000E+02  0.91188000000E+02 0.  0.
    9900012    2    3    3    0    0 -0.40380269832E+02  0.13329326803E+02  0.14861943057E+02  0.46142306575E+02  0.99998979932E+01 0.  0.
        -12    1    3    3    0    0  0.40380269832E+02 -0.13329326803E+02 -0.14861943057E+02  0.45045693425E+02  0.00000000000E+00 0.  1.
         11    1    4    4    0    0 -0.25782860205E+02  0.58293984919E+01  0.10952373081E+02  0.28612798596E+02  0.51100000000E-03 0. -1.
        -11    1    4    4    0    0 -0.14234706803E+02  0.73553010063E+01  0.26874567664E+01  0.16246530546E+02  0.51100000000E-03 0.  1.
        -12    1    4    4    0    0 -0.36270282459E+00  0.14462730455E+00  0.12221132095E+01  0.12829774328E+01  0.00000000000E+00 0.  1.
</event>
<event>
 8    1  0.2882335E-009  0.9118800E+02  0.7816164E-02  0.1184000E+00
        -11   -1    0    0    0    0  0.00000000000E+00  0.00000000000E+00  0.45593999997E+02  0.45594000000E+02  0.51100000000E-03 0. -1.
         11   -1    0    0    0    0 -0.00000000000E+00 -0.00000000000E+00 -0.45593999997E+02  0.45594000000E+02  0.51100000000E-03 0.  1.
         23    2    1    2    0    0  0.00000000000E+00  0.17763568394E-14  0.00000000000E+00  0.91188000000E+02  0.91188000000E+02 0.  0.
    9900012    2    3    3    0    0 -0.18159295689E+02 -0.12962444999E+02  0.39132193111E+02  0.46142317211E+02  0.99999949820E+01 0.  0.
        -12    1    3    3    0    0  0.18159295689E+02  0.12962444999E+02 -0.39132193111E+02  0.45045682789E+02  0.00000000000E+00 0.  1.
         11    1    4    4    0    0 -0.83795055161E+00  0.10246736038E+01  0.14570079088E+01  0.19684992834E+01  0.51100000000E-03 0. -1.
        -11    1    4    4    0    0 -0.99487045336E+01 -0.10519026023E+02  0.19795714878E+02  0.24525434923E+02  0.51100000000E-03 0.  1.
        -12    1    4    4    0    0 -0.73726406042E+01 -0.34680925795E+01  0.17879470324E+02  0.19648383004E+02  0.00000000000E+00 0.  1.
</event>
<event>
 8    1  0.2882335E-009  0.9118800E+02  0.7816164E-02  0.1184000E+00
        -11   -1    0    0    0    0  0.00000000000E+00  0.00000000000E+00  0.45593999997E+02  0.45594000000E+02  0.51100000000E-03 0. -1.
         11   -1    0    0    0    0 -0.00000000000E+00 -0.00000000000E+00 -0.45593999997E+02  0.45594000000E+02  0.51100000000E-03 0.  1.
         23    2    1    2    0    0 -0.35527136788E-14  0.00000000000E+00  0.00000000000E+00  0.91188000000E+02  0.91188000000E+02 0.  0.
    9900012    2    3    3    0    0  0.16192720171E+02  0.11896440713E+02  0.40316051736E+02  0.46142317457E+02  0.99999972306E+01 0.  0.
        -12    1    3    3    0    0 -0.16192720171E+02 -0.11896440713E+02 -0.40316051736E+02  0.45045682543E+02  0.00000000000E+00 0.  1.
         11    1    4    4    0    0  0.39159532461E+01  0.27738390276E+01  0.47365888579E+01  0.67427106602E+01  0.51100000000E-03 0. -1.
        -11    1    4    4    0    0  0.43295958689E+01  0.13753023455E+01  0.18357379359E+02  0.18911114037E+02  0.51100000000E-03 0.  1.
         12    1    4    4    0    0  0.79471710563E+01  0.77472993399E+01  0.17222083518E+02  0.20488492760E+02  0.00000000000E+00 0. -1.
</event>
<event>
 8    1  0.2882335E-009  0.9118800E+02  0.7816164E-02  0.1184000E+00
        -11   -1    0    0    0    0  0.00000000000E+00  0.00000000000E+00  0.45593999997E+02  0.45594000000E+02  0.51100000000E-03 0. -1.
         11   -1    0    0    0    0 -0.00000000000E+00 -0.00000000000E+00 -0.45593999997E+02  0.45594000000E+02  0.51100000000E-03 0.  1.
         23    2    1    2    0    0  0.00000000000E+00  0.22204460493E-15 -0.35527136788E-14  0.91188000000E+02  0.91188000000E+02 0.  0.
    9900012    2    3    3    0    0 -0.36257865544E+02 -0.19479110869E+01  0.26658697987E+02  0.46142319299E+02  0.10000014027E+02 0.  0.
        -12    1    3    3    0    0  0.36257865544E+02  0.19479110869E+01 -0.26658697987E+02  0.45045680701E+02  0.00000000000E+00 0.  1.
         11    1    4    4    0    0 -0.24649619585E+02  0.19549988069E+01  0.20048649773E+02  0.31833537724E+02  0.51100000000E-03 0. -1.
        -11    1    4    4    0    0 -0.10247575114E+02 -0.25669140876E+01  0.45521716304E+01  0.11503221743E+02  0.51100000000E-03 0.  1.
         12    1    4    4    0    0 -0.13606708455E+01 -0.13359958062E+01  0.20578765834E+01  0.28055598330E+01  0.00000000000E+00 0. -1.
</event>
<event>
 8    1  0.2882335E-009  0.9118800E+02  0.7816164E-02  0.1184000E+00
        -11   -1    0    0    0    0  0.00000000000E+00  0.00000000000E+00  0.45593999997E+02  0.45594000000E+02  0.51100000000E-03 0. -1.
         11   -1    0    0    0    0 -0.00000000000E+00 -0.00000000000E+00 -0.45593999997E+02  0.45594000000E+02  0.51100000000E-03 0.  1.
         23    2    1    2    0    0  0.00000000000E+00  0.00000000000E+00  0.00000000000E+00  0.91188000000E+02  0.91188000000E+02 0.  0.
    9900012    2    3    3    0    0  0.32293574955E+02 -0.28489973877E+02 -0.13212109529E+02  0.46142318375E+02  0.10000005599E+02 0.  0.
         12    1    3    3    0    0 -0.32293574955E+02  0.28489973877E+02  0.13212109529E+02  0.45045681625E+02  0.00000000000E+00 0. -1.
         11    1    4    4    0    0  0.91868505089E+01 -0.99915320681E+01 -0.94121643147E+00  0.13605690867E+02  0.51100000000E-03 0. -1.
        -11    1    4    4    0    0  0.19796289782E+02 -0.17678492033E+02 -0.11962456180E+02  0.29112240172E+02  0.51100000000E-03 0.  1.
        -12    1    4    4    0    0  0.33104346637E+01 -0.81994977576E+00 -0.30843691767E+00  0.34243873364E+01  0.00000000000E+00 0.  1.
</event>
<event>
 8    1  0.2882335E-009  0.9118800E+02  0.7816164E-02  0.1184000E+00
        -11   -1    0    0    0    0  0.00000000000E+00  0.00000000000E+00  0.45593999997E+02  0.45594000000E+02  0.51100000000E-03 0. -1.
         11   -1    0    0    0    0 -0.00000000000E+00 -0.00000000000E+00 -0.45593999997E+02  0.45594000000E+02  0.51100000000E-03 0.  1.
         23    2    1    2    0    0  0.88817841970E-15  0.00000000000E+00  0.71054273576E-14  0.91188000000E+02  0.91188000000E+02 0.  0.
    9900012    2    3    3    0    0  0.79645739865E+01  0.14857748490E+02  0.41772315173E+02  0.46142318255E+02  0.10000004501E+02 0.  0.
        -12    1    3    3    0    0 -0.79645739865E+01 -0.14857748490E+02 -0.41772315173E+02  0.45045681745E+02  0.00000000000E+00 0.  1.
         11    1    4    4    0    0  0.89064234191E+00  0.72700499930E+01  0.18504496222E+02  0.19901337929E+02  0.51100000000E-03 0. -1.
        -11    1    4    4    0    0 -0.63148039207E+00  0.28417406186E+01  0.77281802427E+01  0.82582702398E+01  0.51100000000E-03 0.  1.
         12    1    4    4    0    0  0.77054120366E+01  0.47459578786E+01  0.15539638708E+02  0.17982710086E+02  0.00000000000E+00 0. -1.
</event>
<event>
 8    1  0.2882335E-009  0.9118800E+02  0.7816164E-02  0.1184000E+00
        -11   -1    0    0    0    0  0.00000000000E+00  0.00000000000E+00  0.45593999997E+02  0.45594000000E+02  0.51100000000E-03 0. -1.
         11   -1    0    0    0    0 -0.00000000000E+00 -0.00000000000E+00 -0.45593999997E+02  0.45594000000E+02  0.51100000000E-03 0.  1.
         23    2    1    2    0    0  0.00000000000E+00  0.00000000000E+00  0.00000000000E+00  0.91188000000E+02  0.91188000000E+02 0.  0.
    9900012    2    3    3    0    0  0.49375569826E+01 -0.12881468253E+02 -0.42881254500E+02  0.46142315625E+02  0.99999805245E+01 0.  0.
         12    1    3    3    0    0 -0.49375569826E+01  0.12881468253E+02  0.42881254500E+02  0.45045684375E+02  0.00000000000E+00 0. -1.
         11    1    4    4    0    0  0.60883852812E+01 -0.47434771026E+01 -0.14536312545E+02  0.16458231771E+02  0.51100000000E-03 0. -1.
        -11    1    4    4    0    0 -0.10701676627E+01 -0.72139913890E+01 -0.27423499141E+02  0.28376667105E+02  0.51100000000E-03 0.  1.
         12    1    4    4    0    0 -0.80660635951E-01 -0.92399976184E+00 -0.92144281308E+00  0.13074167491E+01  0.00000000000E+00 0. -1.
</event>
<event>
 8    1  0.2882335E-009  0.9118800E+02  0.7816164E-02  0.1184000E+00
        -11   -1    0    0    0    0  0.00000000000E+00  0.00000000000E+00  0.45593999997E+02  0.45594000000E+02  0.51100000000E-03 0. -1.
         11   -1    0    0    0    0 -0.00000000000E+00 -0.00000000000E+00 -0.45593999997E+02  0.45594000000E+02  0.51100000000E-03 0.  1.
         23    2    1    2    0    0 -0.35527136788E-14  0.35527136788E-14  0.71054273576E-14  0.91188000000E+02  0.91188000000E+02 0.  0.
    9900012    2    3    3    0    0 -0.13984457456E+02  0.22818985735E+02  0.36233163917E+02  0.46142319544E+02  0.10000016255E+02 0.  0.
        -12    1    3    3    0    0  0.13984457456E+02 -0.22818985735E+02 -0.36233163917E+02  0.45045680456E+02  0.00000000000E+00 0.  1.
         11    1    4    4    0    0 -0.39249383491E+01  0.30704491558E+01  0.27148739692E+01  0.56747986742E+01  0.51100000000E-03 0. -1.
        -11    1    4    4    0    0 -0.61642050236E+01  0.15779648081E+02  0.27262284223E+02  0.32097147201E+02  0.51100000000E-03 0.  1.
        -12    1    4    4    0    0 -0.38953140831E+01  0.39688884981E+01  0.62560057256E+01  0.83703736688E+01  0.00000000000E+00 0.  1.
</event>
<event>
 8    1  0.2882335E-009  0.9118800E+02  0.7816164E-02  0.1184000E+00
        -11   -1    0    0    0    0  0.00000000000E+00  0.00000000000E+00  0.45593999997E+02  0.45594000000E+02  0.51100000000E-03 0. -1.
         11   -1    0    0    0    0 -0.00000000000E+00 -0.00000000000E+00 -0.45593999997E+02  0.45594000000E+02  0.51100000000E-03 0.  1.
         23    2    1    2    0    0 -0.17763568394E-14  0.35527136788E-14  0.00000000000E+00  0.91188000000E+02  0.91188000000E+02 0.  0.
    9900012    2    3    3    0    0  0.11710806540E+02 -0.17338454227E+02 -0.39891709847E+02  0.46142317639E+02  0.99999988889E+01 0.  0.
         12    1    3    3    0    0 -0.11710806540E+02  0.17338454227E+02  0.39891709847E+02  0.45045682361E+02  0.00000000000E+00 0. -1.
         11    1    4    4    0    0 -0.10155369800E+01 -0.48771525542E+01 -0.99490806437E+01  0.11126640927E+02  0.51100000000E-03 0. -1.
        -11    1    4    4    0    0  0.62097863763E+01 -0.38404409965E+01 -0.10878199501E+02  0.13101360942E+02  0.51100000000E-03 0.  1.
         12    1    4    4    0    0  0.65165571435E+01 -0.86208606766E+01 -0.19064429703E+02  0.21914315771E+02  0.00000000000E+00 0. -1.
</event>
<event>
 8    1  0.2882335E-009  0.9118800E+02  0.7816164E-02  0.1184000E+00
        -11   -1    0    0    0    0  0.00000000000E+00  0.00000000000E+00  0.45593999997E+02  0.45594000000E+02  0.51100000000E-03 0. -1.
         11   -1    0    0    0    0 -0.00000000000E+00 -0.00000000000E+00 -0.45593999997E+02  0.45594000000E+02  0.51100000000E-03 0.  1.
         23    2    1    2    0    0  0.35527136788E-14  0.00000000000E+00  0.00000000000E+00  0.91188000000E+02  0.91188000000E+02 0.  0.
    9900012    2    3    3    0    0 -0.23389807395E+02  0.21218484824E+02 -0.32121738826E+02  0.46142319925E+02  0.10000019736E+02 0.  0.
         12    1    3    3    0    0  0.23389807395E+02 -0.21218484824E+02  0.32121738826E+02  0.45045680075E+02  0.00000000000E+00 0. -1.
         11    1    4    4    0    0 -0.16109502511E+02  0.16488355140E+02 -0.17136666015E+02  0.28723635716E+02  0.51100000000E-03 0. -1.
        -11    1    4    4    0    0 -0.42018671528E+01  0.23960743941E+01 -0.65636252720E+01  0.81534064687E+01  0.51100000000E-03 0.  1.
         12    1    4    4    0    0 -0.30784377306E+01  0.23340552898E+01 -0.84214475389E+01  0.92652777404E+01  0.00000000000E+00 0. -1.
</event>
<event>
 8    1  0.2882335E-009  0.9118800E+02  0.7816164E-02  0.1184000E+00
        -11   -1    0    0    0    0  0.00000000000E+00  0.00000000000E+00  0.45593999997E+02  0.45594000000E+02  0.51100000000E-03 0. -1.
         11   -1    0    0    0    0 -0.00000000000E+00 -0.00000000000E+00 -0.45593999997E+02  0.45594000000E+02  0.51100000000E-03 0.  1.
         23    2    1    2    0    0  0.00000000000E+00  0.35527136788E-14  0.00000000000E+00  0.91188000000E+02  0.91188000000E+02 0.  0.
    9900012    2    3    3    0    0  0.65726453688E+01 -0.17515465372E+02 -0.40977095302E+02  0.46142317257E+02  0.99999954046E+01 0.  0.
         12    1    3    3    0    0 -0.65726453688E+01  0.17515465372E+02  0.40977095302E+02  0.45045682743E+02  0.00000000000E+00 0. -1.
         11    1    4    4    0    0 -0.10306942231E+01 -0.30998927145E+00 -0.80572109064E+01  0.81287804609E+01  0.51100000000E-03 0. -1.
        -11    1    4    4    0    0  0.60628932966E+01 -0.13025158985E+02 -0.27222140013E+02  0.30780811375E+02  0.51100000000E-03 0.  1.
         12    1    4    4    0    0  0.15404462954E+01 -0.41803171153E+01 -0.56977443828E+01  0.72327254217E+01  0.00000000000E+00 0. -1.
</event>
<event>
 8    1  0.2882335E-009  0.9118800E+02  0.7816164E-02  0.1184000E+00
        -11   -1    0    0    0    0  0.00000000000E+00  0.00000000000E+00  0.45593999997E+02  0.45594000000E+02  0.51100000000E-03 0. -1.
         11   -1    0    0    0    0 -0.00000000000E+00 -0.00000000000E+00 -0.45593999997E+02  0.45594000000E+02  0.51100000000E-03 0.  1.
         23    2    1    2    0    0  0.00000000000E+00  0.17763568394E-14  0.35527136788E-14  0.91188000000E+02  0.91188000000E+02 0.  0.
    9900012    2    3    3    0    0 -0.40917969374E+02  0.83289517616E+01  0.16895623635E+02  0.46142314823E+02  0.99999732034E+01 0.  0.
        -12    1    3    3    0    0  0.40917969374E+02 -0.83289517616E+01 -0.16895623635E+02  0.45045685177E+02  0.00000000000E+00 0.  1.
         11    1    4    4    0    0 -0.15872243986E+02  0.21229205628E+01  0.96740470086E+01  0.18708877750E+02  0.51100000000E-03 0. -1.
        -11    1    4    4    0    0 -0.16238918089E+02  0.64172587574E+01  0.32092455844E+01  0.17753392018E+02  0.51100000000E-03 0.  1.
        -12    1    4    4    0    0 -0.88068072984E+01 -0.21122755863E+00  0.40123310417E+01  0.96800450547E+01  0.00000000000E+00 0.  1.
</event>
<event>
 8    1  0.2882335E-009  0.9118800E+02  0.7816164E-02  0.1184000E+00
        -11   -1    0    0    0    0  0.00000000000E+00  0.00000000000E+00  0.45593999997E+02  0.45594000000E+02  0.51100000000E-03 0. -1.
         11   -1    0    0    0    0 -0.00000000000E+00 -0.00000000000E+00 -0.45593999997E+02  0.45594000000E+02  0.51100000000E-03 0.  1.
         23    2    1    2    0    0  0.00000000000E+00  0.00000000000E+00 -0.17763568394E-14  0.91188000000E+02  0.91188000000E+02 0.  0.
    9900012    2    3    3    0    0  0.34428857281E+02  0.24631122458E+02 -0.15397243520E+02  0.46142317463E+02  0.99999972789E+01 0.  0.
         12    1    3    3    0    0 -0.34428857281E+02 -0.24631122458E+02  0.15397243520E+02  0.45045682537E+02  0.00000000000E+00 0. -1.
         11    1    4    4    0    0  0.12603713948E+02  0.68946486170E+01 -0.93724019281E+01  0.17153183466E+02  0.51100000000E-03 0. -1.
        -11    1    4    4    0    0  0.73969641942E+01  0.74032836455E+01 -0.83262650010E+00  0.10498426319E+02  0.51100000000E-03 0.  1.
        -12    1    4    4    0    0  0.14428179138E+02  0.10333190196E+02 -0.51922150922E+01  0.18490707678E+02  0.00000000000E+00 0.  1.
</event>
<event>
 8    1  0.2882335E-009  0.9118800E+02  0.7816164E-02  0.1184000E+00
        -11   -1    0    0    0    0  0.00000000000E+00  0.00000000000E+00  0.45593999997E+02  0.45594000000E+02  0.51100000000E-03 0. -1.
         11   -1    0    0    0    0 -0.00000000000E+00 -0.00000000000E+00 -0.45593999997E+02  0.45594000000E+02  0.51100000000E-03 0.  1.
         23    2    1    2    0    0  0.71054273576E-14  0.00000000000E+00  0.35527136788E-14  0.91188000000E+02  0.91188000000E+02 0.  0.
    9900012    2    3    3    0    0 -0.37534356946E+02  0.51825339474E+01  0.24360353609E+02  0.46142318327E+02  0.10000005156E+02 0.  0.
        -12    1    3    3    0    0  0.37534356946E+02 -0.51825339474E+01 -0.24360353609E+02  0.45045681673E+02  0.00000000000E+00 0.  1.
         11    1    4    4    0    0 -0.71433949539E+01  0.96788609259E+00  0.91728931389E+01  0.11666484636E+02  0.51100000000E-03 0. -1.
        -11    1    4    4    0    0 -0.22112129647E+02  0.33323474597E+01  0.90103738127E+01  0.24108870849E+02  0.51100000000E-03 0.  1.
        -12    1    4    4    0    0 -0.82788323453E+01  0.88230039516E+00  0.61770866574E+01  0.10366962842E+02  0.00000000000E+00 0.  1.
</event>
<event>
 8    1  0.2882335E-009  0.9118800E+02  0.7816164E-02  0.1184000E+00
        -11   -1    0    0    0    0  0.00000000000E+00  0.00000000000E+00  0.45593999997E+02  0.45594000000E+02  0.51100000000E-03 0. -1.
         11   -1    0    0    0    0 -0.00000000000E+00 -0.00000000000E+00 -0.45593999997E+02  0.45594000000E+02  0.51100000000E-03 0.  1.
         23    2    1    2    0    0 -0.17763568394E-14  0.00000000000E+00  0.14210854715E-13  0.91188000000E+02  0.91188000000E+02 0.  0.
    9900012    2    3    3    0    0  0.13096421751E+02  0.86055572827E+01 -0.42232000186E+02  0.46142315206E+02  0.99999767045E+01 0.  0.
         12    1    3    3    0    0 -0.13096421751E+02 -0.86055572827E+01  0.42232000186E+02  0.45045684794E+02  0.00000000000E+00 0. -1.
         11    1    4    4    0    0  0.60500980563E+01  0.34859739557E+01 -0.23369159377E+02  0.24390024829E+02  0.51100000000E-03 0. -1.
        -11    1    4    4    0    0  0.35649930984E+01  0.46007212416E+01 -0.16542414668E+02  0.17536456171E+02  0.51100000000E-03 0.  1.
         12    1    4    4    0    0  0.34813305959E+01  0.51886208542E+00 -0.23204261416E+01  0.42158342069E+01  0.00000000000E+00 0. -1.
</event>
<event>
 8    1  0.2882335E-009  0.9118800E+02  0.7816164E-02  0.1184000E+00
        -11   -1    0    0    0    0  0.00000000000E+00  0.00000000000E+00  0.45593999997E+02  0.45594000000E+02  0.51100000000E-03 0. -1.
         11   -1    0    0    0    0 -0.00000000000E+00 -0.00000000000E+00 -0.45593999997E+02  0.45594000000E+02  0.51100000000E-03 0.  1.
         23    2    1    2    0    0  0.88817841970E-15  0.00000000000E+00  0.00000000000E+00  0.91188000000E+02  0.91188000000E+02 0.  0.
    9900012    2    3    3    0    0  0.73288435334E+01  0.34522764727E+02  0.27992504720E+02  0.46142317050E+02  0.99999935154E+01 0.  0.
        -12    1    3    3    0    0 -0.73288435334E+01 -0.34522764727E+02 -0.27992504720E+02  0.45045682950E+02  0.00000000000E+00 0.  1.
         11    1    4    4    0    0  0.58347223651E+00  0.63915246309E+01  0.41892471507E+01  0.76643211642E+01  0.51100000000E-03 0. -1.
        -11    1    4    4    0    0  0.52072087384E+01  0.61351470790E+01  0.80227845175E+01  0.11363103634E+02  0.51100000000E-03 0.  1.
        -12    1    4    4    0    0  0.15381625585E+01  0.21996093017E+02  0.15780473052E+02  0.27114892252E+02  0.00000000000E+00 0.  1.
</event>
<event>
 8    1  0.2882335E-009  0.9118800E+02  0.7816164E-02  0.1184000E+00
        -11   -1    0    0    0    0  0.00000000000E+00  0.00000000000E+00  0.45593999997E+02  0.45594000000E+02  0.51100000000E-03 0.  1.
         11   -1    0    0    0    0 -0.00000000000E+00 -0.00000000000E+00 -0.45593999997E+02  0.45594000000E+02  0.51100000000E-03 0. -1.
         23    2    1    2    0    0  0.00000000000E+00 -0.35527136788E-14  0.88817841970E-15  0.91188000000E+02  0.91188000000E+02 0.  0.
    9900012    2    3    3    0    0 -0.41897706707E+02  0.15436644046E+02 -0.59502716558E+01  0.46142317194E+02  0.99999948260E+01 0.  0.
         12    1    3    3    0    0  0.41897706707E+02 -0.15436644046E+02  0.59502716558E+01  0.45045682806E+02  0.00000000000E+00 0. -1.
         11    1    4    4    0    0 -0.61335191797E+01 -0.96794306093E-01 -0.76894564093E+00  0.61822895698E+01  0.51100000000E-03 0. -1.
        -11    1    4    4    0    0 -0.28305763163E+02  0.13681971430E+02 -0.66538294366E+01  0.32135432421E+02  0.51100000000E-03 0.  1.
        -12    1    4    4    0    0 -0.74584243645E+01  0.18514669220E+01  0.14725034217E+01  0.78245952030E+01  0.00000000000E+00 0.  1.
</event>
<event>
 8    1  0.2882335E-009  0.9118800E+02  0.7816164E-02  0.1184000E+00
        -11   -1    0    0    0    0  0.00000000000E+00  0.00000000000E+00  0.45593999997E+02  0.45594000000E+02  0.51100000000E-03 0. -1.
         11   -1    0    0    0    0 -0.00000000000E+00 -0.00000000000E+00 -0.45593999997E+02  0.45594000000E+02  0.51100000000E-03 0.  1.
         23    2    1    2    0    0  0.00000000000E+00 -0.17763568394E-14  0.00000000000E+00  0.91188000000E+02  0.91188000000E+02 0.  0.
    9900012    2    3    3    0    0  0.20936004599E+02 -0.72609561451E+01  0.39218306864E+02  0.46142319119E+02  0.10000012386E+02 0.  0.
        -12    1    3    3    0    0 -0.20936004599E+02  0.72609561451E+01 -0.39218306864E+02  0.45045680881E+02  0.00000000000E+00 0.  1.
         11    1    4    4    0    0  0.10803445874E+02 -0.77659735843E+01  0.25530586180E+02  0.28789505369E+02  0.51100000000E-03 0. -1.
        -11    1    4    4    0    0  0.10176831475E+02  0.17901289216E-01  0.13039678851E+02  0.16540902156E+02  0.51100000000E-03 0.  1.
         12    1    4    4    0    0 -0.44272749359E-01  0.48711614997E+00  0.64804183266E+00  0.81191159418E+00  0.00000000000E+00 0. -1.
</event>
<event>
 8    1  0.2882335E-009  0.9118800E+02  0.7816164E-02  0.1184000E+00
        -11   -1    0    0    0    0  0.00000000000E+00  0.00000000000E+00  0.45593999997E+02  0.45594000000E+02  0.51100000000E-03 0. -1.
         11   -1    0    0    0    0 -0.00000000000E+00 -0.00000000000E+00 -0.45593999997E+02  0.45594000000E+02  0.51100000000E-03 0.  1.
         23    2    1    2    0    0  0.00000000000E+00  0.66613381478E-15  0.00000000000E+00  0.91188000000E+02  0.91188000000E+02 0.  0.
    9900012    2    3    3    0    0 -0.58271274630E+01  0.18574288994E+01  0.44628558041E+02  0.46142315974E+02  0.99999837008E+01 0.  0.
        -12    1    3    3    0    0  0.58271274630E+01 -0.18574288994E+01 -0.44628558041E+02  0.45045684026E+02  0.00000000000E+00 0.  1.
         11    1    4    4    0    0 -0.55075424966E+00 -0.24687122549E+01  0.24594374534E+02  0.24724100174E+02  0.51100000000E-03 0. -1.
        -11    1    4    4    0    0 -0.44528903027E+01  0.47531727109E+01  0.18626339828E+02  0.19732243119E+02  0.51100000000E-03 0.  1.
         12    1    4    4    0    0 -0.82348291064E+00 -0.42703155656E+00  0.14078436788E+01  0.16859726802E+01  0.00000000000E+00 0. -1.
</event>
<event>
 8    1  0.2882335E-009  0.9118800E+02  0.7816164E-02  0.1184000E+00
        -11   -1    0    0    0    0  0.00000000000E+00  0.00000000000E+00  0.45593999997E+02  0.45594000000E+02  0.51100000000E-03 0. -1.
         11   -1    0    0    0    0 -0.00000000000E+00 -0.00000000000E+00 -0.45593999997E+02  0.45594000000E+02  0.51100000000E-03 0.  1.
         23    2    1    2    0    0  0.00000000000E+00  0.00000000000E+00  0.88817841970E-15  0.91188000000E+02  0.91188000000E+02 0.  0.
    9900012    2    3    3    0    0 -0.10814997236E+02 -0.43056770469E+02  0.76330997698E+01  0.46142313630E+02  0.99999623286E+01 0.  0.
        -12    1    3    3    0    0  0.10814997236E+02  0.43056770469E+02 -0.76330997698E+01  0.45045686370E+02  0.00000000000E+00 0.  1.
         11    1    4    4    0    0 -0.56835195176E+01 -0.27667376241E+02  0.39896498261E+01  0.28525486992E+02  0.51100000000E-03 0. -1.
        -11    1    4    4    0    0 -0.40210535067E+01 -0.42792628923E+01  0.41066798857E-03  0.58720492705E+01  0.51100000000E-03 0.  1.
        -12    1    4    4    0    0 -0.11104242115E+01 -0.11110131336E+02  0.36430392758E+01  0.11744777367E+02  0.00000000000E+00 0.  1.
</event>
<event>
 8    1  0.2882335E-009  0.9118800E+02  0.7816164E-02  0.1184000E+00
        -11   -1    0    0    0    0  0.00000000000E+00  0.00000000000E+00  0.45593999997E+02  0.45594000000E+02  0.51100000000E-03 0. -1.
         11   -1    0    0    0    0 -0.00000000000E+00 -0.00000000000E+00 -0.45593999997E+02  0.45594000000E+02  0.51100000000E-03 0.  1.
         23    2    1    2    0    0  0.00000000000E+00  0.00000000000E+00  0.00000000000E+00  0.91188000000E+02  0.91188000000E+02 0.  0.
    9900012    2    3    3    0    0 -0.10263754242E+02 -0.20521423486E+02  0.38763901315E+02  0.46142317430E+02  0.99999969772E+01 0.  0.
        -12    1    3    3    0    0  0.10263754242E+02  0.20521423486E+02 -0.38763901315E+02  0.45045682570E+02  0.00000000000E+00 0.  1.
         11    1    4    4    0    0  0.17892506116E+00 -0.71352948550E+01  0.97665380389E+01  0.12096681874E+02  0.51100000000E-03 0. -1.
        -11    1    4    4    0    0 -0.61989851159E+01 -0.10364047056E+02  0.23789575424E+02  0.26679295099E+02  0.51100000000E-03 0.  1.
        -12    1    4    4    0    0 -0.42436941874E+01 -0.30220815748E+01  0.52077878521E+01  0.73663404560E+01  0.00000000000E+00 0.  1.
</event>
<event>
 8    1  0.2882335E-009  0.9118800E+02  0.7816164E-02  0.1184000E+00
        -11   -1    0    0    0    0  0.00000000000E+00  0.00000000000E+00  0.45593999997E+02  0.45594000000E+02  0.51100000000E-03 0. -1.
         11   -1    0    0    0    0 -0.00000000000E+00 -0.00000000000E+00 -0.45593999997E+02  0.45594000000E+02  0.51100000000E-03 0.  1.
         23    2    1    2    0    0 -0.35527136788E-14  0.00000000000E+00  0.35527136788E-14  0.91188000000E+02  0.91188000000E+02 0.  0.
    9900012    2    3    3    0    0  0.28754825308E+02  0.20582742748E+02 -0.27903838591E+02  0.46142317792E+02  0.10000000280E+02 0.  0.
         12    1    3    3    0    0 -0.28754825308E+02 -0.20582742748E+02  0.27903838591E+02  0.45045682208E+02  0.00000000000E+00 0. -1.
         11    1    4    4    0    0  0.78108933131E+01  0.57523240940E+01 -0.12396809262E+02  0.15741034495E+02  0.51100000000E-03 0. -1.
        -11    1    4    4    0    0  0.19139462205E+02  0.12967377378E+02 -0.15451854186E+02  0.27807043849E+02  0.51100000000E-03 0.  1.
        -12    1    4    4    0    0  0.18044697896E+01  0.18630412757E+01 -0.55175142368E-01  0.25942394478E+01  0.00000000000E+00 0.  1.
</event>
<event>
 8    1  0.2882335E-009  0.9118800E+02  0.7816164E-02  0.1184000E+00
        -11   -1    0    0    0    0  0.00000000000E+00  0.00000000000E+00  0.45593999997E+02  0.45594000000E+02  0.51100000000E-03 0. -1.
         11   -1    0    0    0    0 -0.00000000000E+00 -0.00000000000E+00 -0.45593999997E+02  0.45594000000E+02  0.51100000000E-03 0.  1.
         23    2    1    2    0    0 -0.35527136788E-14 -0.35527136788E-14  0.35527136788E-14  0.91188000000E+02  0.91188000000E+02 0.  0.
    9900012    2    3    3    0    0 -0.16684009752E+02 -0.31454201380E+02  0.27593305456E+02  0.46142317944E+02  0.10000001667E+02 0.  0.
        -12    1    3    3    0    0  0.16684009752E+02  0.31454201380E+02 -0.27593305456E+02  0.45045682056E+02  0.00000000000E+00 0.  1.
         11    1    4    4    0    0 -0.93810072322E+01 -0.11781046986E+02  0.14875032355E+02  0.21167497552E+02  0.51100000000E-03 0. -1.
        -11    1    4    4    0    0 -0.28100030716E+01 -0.11097685022E+02  0.91560154520E+01  0.14659036439E+02  0.51100000000E-03 0.  1.
        -12    1    4    4    0    0 -0.44929994487E+01 -0.85754693726E+01  0.35622576494E+01  0.10315783953E+02  0.00000000000E+00 0.  1.
</event>
<event>
 8    1  0.3618865E-009  0.9118800E+02  0.7816164E-02  0.1184000E+00
        -11   -1    0    0    0    0  0.00000000000E+00  0.00000000000E+00  0.45593999997E+02  0.45594000000E+02  0.51100000000E-03 0. -1.
         11   -1    0    0    0    0 -0.00000000000E+00 -0.00000000000E+00 -0.45593999997E+02  0.45594000000E+02  0.51100000000E-03 0.  1.
         23    2    1    2    0    0 -0.17763568394E-14  0.00000000000E+00  0.00000000000E+00  0.91188000000E+02  0.91188000000E+02 0.  0.
    9900012    2    3    3    0    0 -0.13386723195E+02 -0.34347890757E+01  0.42873201334E+02  0.46142317337E+02  0.99999961362E+01 0.  0.
        -12    1    3    3    0    0  0.13386723195E+02  0.34347890757E+01 -0.42873201334E+02  0.45045682663E+02  0.00000000000E+00 0.  1.
         11    1    4    4    0    0 -0.16929959413E+00 -0.21600829370E+01  0.28880223811E+01  0.36104423804E+01  0.51100000000E-03 0. -1.
        -11    1    4    4    0    0 -0.28078963924E+00  0.11966714932E+01  0.22435491962E+01  0.25581983389E+01  0.51100000000E-03 0.  1.
         12    1    4    4    0    0 -0.12936633962E+02 -0.24713776318E+01  0.37741629757E+02  0.39973676618E+02  0.00000000000E+00 0. -1.
</event>
<event>
 8    1  0.2882335E-009  0.9118800E+02  0.7816164E-02  0.1184000E+00
        -11   -1    0    0    0    0  0.00000000000E+00  0.00000000000E+00  0.45593999997E+02  0.45594000000E+02  0.51100000000E-03 0.  1.
         11   -1    0    0    0    0 -0.00000000000E+00 -0.00000000000E+00 -0.45593999997E+02  0.45594000000E+02  0.51100000000E-03 0. -1.
         23    2    1    2    0    0  0.00000000000E+00  0.00000000000E+00 -0.17763568394E-14  0.91188000000E+02  0.91188000000E+02 0.  0.
    9900012    2    3    3    0    0  0.40240735353E+02 -0.16507989826E+02  0.11716780530E+02  0.46142318122E+02  0.10000003290E+02 0.  0.
        -12    1    3    3    0    0 -0.40240735353E+02  0.16507989826E+02 -0.11716780530E+02  0.45045681878E+02  0.00000000000E+00 0.  1.
         11    1    4    4    0    0  0.30628375297E+02 -0.13983313379E+02  0.69870382827E+01  0.34386758070E+02  0.51100000000E-03 0. -1.
        -11    1    4    4    0    0  0.80831242882E+00 -0.96410386207E+00 -0.54859252347E+00  0.13725229533E+01  0.51100000000E-03 0.  1.
         12    1    4    4    0    0  0.88040476279E+01 -0.15605725844E+01  0.52783347711E+01  0.10383037098E+02  0.00000000000E+00 0. -1.
</event>
<event>
 8    1  0.2882335E-009  0.9118800E+02  0.7816164E-02  0.1184000E+00
        -11   -1    0    0    0    0  0.00000000000E+00  0.00000000000E+00  0.45593999997E+02  0.45594000000E+02  0.51100000000E-03 0. -1.
         11   -1    0    0    0    0 -0.00000000000E+00 -0.00000000000E+00 -0.45593999997E+02  0.45594000000E+02  0.51100000000E-03 0.  1.
         23    2    1    2    0    0 -0.71054273576E-14 -0.88817841970E-15  0.00000000000E+00  0.91188000000E+02  0.91188000000E+02 0.  0.
    9900012    2    3    3    0    0  0.32862309289E+02 -0.73563825997E+01  0.29917649346E+02  0.46142317864E+02  0.10000000935E+02 0.  0.
        -12    1    3    3    0    0 -0.32862309289E+02  0.73563825997E+01 -0.29917649346E+02  0.45045682136E+02  0.00000000000E+00 0.  1.
         11    1    4    4    0    0  0.26920412788E+02 -0.60485060489E+01  0.23734684772E+02  0.36395443556E+02  0.51100000000E-03 0. -1.
        -11    1    4    4    0    0 -0.26090332711E-01  0.61220256223E+00 -0.33905741954E+00  0.70030912998E+00  0.51100000000E-03 0.  1.
        -12    1    4    4    0    0  0.59679868331E+01 -0.19200791130E+01  0.65220219932E+01  0.90465651780E+01  0.00000000000E+00 0.  1.
</event>
<event>
 8    1  0.2882335E-009  0.9118800E+02  0.7816164E-02  0.1184000E+00
        -11   -1    0    0    0    0  0.00000000000E+00  0.00000000000E+00  0.45593999997E+02  0.45594000000E+02  0.51100000000E-03 0. -1.
         11   -1    0    0    0    0 -0.00000000000E+00 -0.00000000000E+00 -0.45593999997E+02  0.45594000000E+02  0.51100000000E-03 0.  1.
         23    2    1    2    0    0 -0.35527136788E-14  0.00000000000E+00  0.00000000000E+00  0.91188000000E+02  0.91188000000E+02 0.  0.
    9900012    2    3    3    0    0 -0.27567519686E+02  0.27714314217E+02  0.22384409207E+02  0.46142321742E+02  0.10000036300E+02 0.  0.
        -12    1    3    3    0    0  0.27567519686E+02 -0.27714314217E+02 -0.22384409207E+02  0.45045678258E+02  0.00000000000E+00 0.  1.
         11    1    4    4    0    0  0.17851865207E+00  0.21062237646E+01  0.10461843745E+00  0.21163630913E+01  0.51100000000E-03 0. -1.
        -11    1    4    4    0    0 -0.31143773673E-01 -0.13904449025E+00  0.10217220424E+00  0.17533603550E+00  0.51100000000E-03 0.  1.
         12    1    4    4    0    0 -0.27714894565E+02  0.25747134942E+02  0.22177618566E+02  0.43850622615E+02  0.00000000000E+00 0. -1.
</event>
<event>
 8    1  0.2882335E-009  0.9118800E+02  0.7816164E-02  0.1184000E+00
        -11   -1    0    0    0    0  0.00000000000E+00  0.00000000000E+00  0.45593999997E+02  0.45594000000E+02  0.51100000000E-03 0. -1.
         11   -1    0    0    0    0 -0.00000000000E+00 -0.00000000000E+00 -0.45593999997E+02  0.45594000000E+02  0.51100000000E-03 0.  1.
         23    2    1    2    0    0  0.88817841970E-15  0.17763568394E-14  0.00000000000E+00  0.91188000000E+02  0.91188000000E+02 0.  0.
    9900012    2    3    3    0    0 -0.28262583532E+01 -0.15722263825E+02  0.42118122698E+02  0.46142316792E+02  0.99999911598E+01 0.  0.
        -12    1    3    3    0    0  0.28262583532E+01  0.15722263825E+02 -0.42118122698E+02  0.45045683208E+02  0.00000000000E+00 0.  1.
         11    1    4    4    0    0 -0.55338591147E+01 -0.14108320537E+02  0.34290403533E+02  0.37489999730E+02  0.51100000000E-03 0. -1.
        -11    1    4    4    0    0  0.15127040234E+01  0.19573054890E-01  0.46016411056E+01  0.48439403065E+01  0.51100000000E-03 0.  1.
         12    1    4    4    0    0  0.11948967380E+01 -0.16335163429E+01  0.32260780601E+01  0.38083767548E+01  0.00000000000E+00 0. -1.
</event>
<event>
 8    1  0.2882335E-009  0.9118800E+02  0.7816164E-02  0.1184000E+00
        -11   -1    0    0    0    0  0.00000000000E+00  0.00000000000E+00  0.45593999997E+02  0.45594000000E+02  0.51100000000E-03 0. -1.
         11   -1    0    0    0    0 -0.00000000000E+00 -0.00000000000E+00 -0.45593999997E+02  0.45594000000E+02  0.51100000000E-03 0.  1.
         23    2    1    2    0    0  0.00000000000E+00  0.00000000000E+00  0.00000000000E+00  0.91188000000E+02  0.91188000000E+02 0.  0.
    9900012    2    3    3    0    0  0.83023803272E+01 -0.20335694744E+01  0.44227238170E+02  0.46142317410E+02  0.99999967939E+01 0.  0.
        -12    1    3    3    0    0 -0.83023803272E+01  0.20335694744E+01 -0.44227238170E+02  0.45045682590E+02  0.00000000000E+00 0.  1.
         11    1    4    4    0    0 -0.59242715506E+00 -0.77414247705E+00  0.11896769769E+02  0.11936640973E+02  0.51100000000E-03 0. -1.
        -11    1    4    4    0    0  0.35644858403E+01  0.20183071698E+01  0.69693351567E+01  0.80839814402E+01  0.51100000000E-03 0.  1.
         12    1    4    4    0    0  0.53303216419E+01 -0.32777341671E+01  0.25361133244E+02  0.26121694996E+02  0.00000000000E+00 0. -1.
</event>
<event>
 8    1  0.2882335E-009  0.9118800E+02  0.7816164E-02  0.1184000E+00
        -11   -1    0    0    0    0  0.00000000000E+00  0.00000000000E+00  0.45593999997E+02  0.45594000000E+02  0.51100000000E-03 0.  1.
         11   -1    0    0    0    0 -0.00000000000E+00 -0.00000000000E+00 -0.45593999997E+02  0.45594000000E+02  0.51100000000E-03 0. -1.
         23    2    1    2    0    0  0.00000000000E+00 -0.35527136788E-14 -0.18735013541E-15  0.91188000000E+02  0.91188000000E+02 0.  0.
    9900012    2    3    3    0    0  0.39753947864E+02 -0.21183383789E+02 -0.37192681370E-01  0.46142317601E+02  0.99999985358E+01 0.  0.
         12    1    3    3    0    0 -0.39753947864E+02  0.21183383789E+02  0.37192681370E-01  0.45045682399E+02  0.00000000000E+00 0. -1.
         11    1    4    4    0    0 -0.90740992792E-01 -0.11541448446E+01 -0.92910765790E+00  0.14844276848E+01  0.51100000000E-03 0. -1.
        -11    1    4    4    0    0  0.29226655739E+02 -0.14635268725E+02  0.16178711603E+01  0.32726228070E+02  0.51100000000E-03 0.  1.
         12    1    4    4    0    0  0.10618033118E+02 -0.53939702200E+01 -0.72595618372E+00  0.11931661846E+02  0.00000000000E+00 0. -1.
</event>
<event>
 8    1  0.2882335E-009  0.9118800E+02  0.7816164E-02  0.1184000E+00
        -11   -1    0    0    0    0  0.00000000000E+00  0.00000000000E+00  0.45593999997E+02  0.45594000000E+02  0.51100000000E-03 0. -1.
         11   -1    0    0    0    0 -0.00000000000E+00 -0.00000000000E+00 -0.45593999997E+02  0.45594000000E+02  0.51100000000E-03 0.  1.
         23    2    1    2    0    0 -0.35527136788E-14  0.35527136788E-14  0.35527136788E-14  0.91188000000E+02  0.91188000000E+02 0.  0.
    9900012    2    3    3    0    0  0.28822119462E+02 -0.24908688429E+02 -0.24040718891E+02  0.46142317695E+02  0.99999993952E+01 0.  0.
         12    1    3    3    0    0 -0.28822119462E+02  0.24908688429E+02  0.24040718891E+02  0.45045682305E+02  0.00000000000E+00 0. -1.
         11    1    4    4    0    0 -0.44077946765E-01 -0.25947164371E+00 -0.22673335290E+01  0.22825577741E+01  0.51100000000E-03 0. -1.
        -11    1    4    4    0    0  0.12693268116E+01 -0.19095187062E+01 -0.16787535992E+01  0.28417716573E+01  0.51100000000E-03 0.  1.
         12    1    4    4    0    0  0.27596870597E+02 -0.22739698079E+02 -0.20094631763E+02  0.41017988263E+02  0.00000000000E+00 0. -1.
</event>
<event>
 8    1  0.2882335E-009  0.9118800E+02  0.7816164E-02  0.1184000E+00
        -11   -1    0    0    0    0  0.00000000000E+00  0.00000000000E+00  0.45593999997E+02  0.45594000000E+02  0.51100000000E-03 0. -1.
         11   -1    0    0    0    0 -0.00000000000E+00 -0.00000000000E+00 -0.45593999997E+02  0.45594000000E+02  0.51100000000E-03 0.  1.
         23    2    1    2    0    0  0.00000000000E+00  0.00000000000E+00  0.00000000000E+00  0.91188000000E+02  0.91188000000E+02 0.  0.
    9900012    2    3    3    0    0 -0.20371897499E+02  0.48648234894E+01  0.39880217647E+02  0.46142329011E+02  0.10000102581E+02 0.  0.
        -12    1    3    3    0    0  0.20371897499E+02 -0.48648234894E+01 -0.39880217647E+02  0.45045670989E+02  0.00000000000E+00 0.  1.
         11    1    4    4    0    0 -0.12570926788E+02  0.54677037521E+01  0.27794444342E+02  0.30991210385E+02  0.51100000000E-03 0. -1.
        -11    1    4    4    0    0 -0.15967642290E+01 -0.12671936208E+01  0.63736326833E+01  0.66916836087E+01  0.51100000000E-03 0.  1.
         12    1    4    4    0    0 -0.62042064821E+01  0.66431335810E+00  0.57121406223E+01  0.84594350166E+01  0.00000000000E+00 0. -1.
</event>
<event>
 8    1  0.2882335E-009  0.9118800E+02  0.7816164E-02  0.1184000E+00
        -11   -1    0    0    0    0  0.00000000000E+00  0.00000000000E+00  0.45593999997E+02  0.45594000000E+02  0.51100000000E-03 0. -1.
         11   -1    0    0    0    0 -0.00000000000E+00 -0.00000000000E+00 -0.45593999997E+02  0.45594000000E+02  0.51100000000E-03 0.  1.
         23    2    1    2    0    0  0.00000000000E+00  0.00000000000E+00  0.71054273576E-14  0.91188000000E+02  0.91188000000E+02 0.  0.
    9900012    2    3    3    0    0  0.26067325669E+02  0.20511459331E+02  0.30477665031E+02  0.46142317664E+02  0.99999991110E+01 0.  0.
        -12    1    3    3    0    0 -0.26067325669E+02 -0.20511459331E+02 -0.30477665031E+02  0.45045682336E+02  0.00000000000E+00 0.  1.
         11    1    4    4    0    0  0.20224166260E+02  0.16434371645E+02  0.20583466120E+02  0.33208200042E+02  0.51100000000E-03 0. -1.
        -11    1    4    4    0    0  0.99838480282E+00  0.21821078225E+01  0.59191470049E+01  0.63870703996E+01  0.51100000000E-03 0.  1.
        -12    1    4    4    0    0  0.48447746061E+01  0.18949798634E+01  0.39750519059E+01  0.65470472215E+01  0.00000000000E+00 0.  1.
</event>
<event>
 8    1  0.2882335E-009  0.9118800E+02  0.7816164E-02  0.1184000E+00
        -11   -1    0    0    0    0  0.00000000000E+00  0.00000000000E+00  0.45593999997E+02  0.45594000000E+02  0.51100000000E-03 0. -1.
         11   -1    0    0    0    0 -0.00000000000E+00 -0.00000000000E+00 -0.45593999997E+02  0.45594000000E+02  0.51100000000E-03 0.  1.
         23    2    1    2    0    0  0.00000000000E+00  0.00000000000E+00  0.71054273576E-14  0.91188000000E+02  0.91188000000E+02 0.  0.
    9900012    2    3    3    0    0 -0.30145540365E+02 -0.27169765033E+01  0.33361325703E+02  0.46142316323E+02  0.99999868899E+01 0.  0.
        -12    1    3    3    0    0  0.30145540365E+02  0.27169765033E+01 -0.33361325703E+02  0.45045683677E+02  0.00000000000E+00 0.  1.
         11    1    4    4    0    0 -0.12459663982E+02 -0.18256791021E+01  0.97190472973E+01  0.15907111974E+02  0.51100000000E-03 0. -1.
        -11    1    4    4    0    0 -0.87152516389E+01  0.24525549586E+01  0.13799468935E+02  0.16504423046E+02  0.51100000000E-03 0.  1.
         12    1    4    4    0    0 -0.89706247447E+01 -0.33438523598E+01  0.98428094710E+01  0.13730781303E+02  0.00000000000E+00 0. -1.
</event>
<event>
 8    1  0.2882335E-009  0.9118800E+02  0.7816164E-02  0.1184000E+00
        -11   -1    0    0    0    0  0.00000000000E+00  0.00000000000E+00  0.45593999997E+02  0.45594000000E+02  0.51100000000E-03 0.  1.
         11   -1    0    0    0    0 -0.00000000000E+00 -0.00000000000E+00 -0.45593999997E+02  0.45594000000E+02  0.51100000000E-03 0. -1.
         23    2    1    2    0    0  0.71054273576E-14 -0.17763568394E-14 -0.88817841970E-15  0.91188000000E+02  0.91188000000E+02 0.  0.
    9900012    2    3    3    0    0 -0.42536555999E+02  0.13011732767E+02  0.71028055282E+01  0.46142316165E+02  0.99999854421E+01 0.  0.
        -12    1    3    3    0    0  0.42536555999E+02 -0.13011732767E+02 -0.71028055282E+01  0.45045683835E+02  0.00000000000E+00 0.  1.
         11    1    4    4    0    0 -0.24589972121E+02  0.74771783414E+01  0.42286566042E+00  0.25705130626E+02  0.51100000000E-03 0. -1.
        -11    1    4    4    0    0 -0.10337233200E+02  0.84534552627E+00  0.33613183057E+01  0.10902818916E+02  0.51100000000E-03 0.  1.
         12    1    4    4    0    0 -0.76093506777E+01  0.46892088995E+01  0.33186215621E+01  0.95343666235E+01  0.00000000000E+00 0. -1.
</event>
<event>
 8    1  0.2882335E-009  0.9118800E+02  0.7816164E-02  0.1184000E+00
        -11   -1    0    0    0    0  0.00000000000E+00  0.00000000000E+00  0.45593999997E+02  0.45594000000E+02  0.51100000000E-03 0. -1.
         11   -1    0    0    0    0 -0.00000000000E+00 -0.00000000000E+00 -0.45593999997E+02  0.45594000000E+02  0.51100000000E-03 0.  1.
         23    2    1    2    0    0  0.00000000000E+00  0.00000000000E+00  0.35527136788E-14  0.91188000000E+02  0.91188000000E+02 0.  0.
    9900012    2    3    3    0    0 -0.34954504355E+02  0.16598799677E+02 -0.23060268840E+02  0.46142317362E+02  0.99999963573E+01 0.  0.
         12    1    3    3    0    0  0.34954504355E+02 -0.16598799677E+02  0.23060268840E+02  0.45045682638E+02  0.00000000000E+00 0. -1.
         11    1    4    4    0    0 -0.11257470367E+02  0.10646181456E+01 -0.78570297045E+01  0.13769421444E+02  0.51100000000E-03 0. -1.
        -11    1    4    4    0    0 -0.18833750665E+02  0.10854785099E+02 -0.12692034340E+02  0.25171894240E+02  0.51100000000E-03 0.  1.
         12    1    4    4    0    0 -0.48632833226E+01  0.46793964324E+01 -0.25112047954E+01  0.72010016784E+01  0.00000000000E+00 0. -1.
</event>
<event>
 8    1  0.2882335E-009  0.9118800E+02  0.7816164E-02  0.1184000E+00
        -11   -1    0    0    0    0  0.00000000000E+00  0.00000000000E+00  0.45593999997E+02  0.45594000000E+02  0.51100000000E-03 0. -1.
         11   -1    0    0    0    0 -0.00000000000E+00 -0.00000000000E+00 -0.45593999997E+02  0.45594000000E+02  0.51100000000E-03 0.  1.
         23    2    1    2    0    0  0.00000000000E+00  0.35527136788E-14  0.00000000000E+00  0.91188000000E+02  0.91188000000E+02 0.  0.
    9900012    2    3    3    0    0 -0.76565823835E+01  0.28473575756E+02 -0.34055043189E+02  0.46142315004E+02  0.99999748563E+01 0.  0.
         12    1    3    3    0    0  0.76565823835E+01 -0.28473575756E+02  0.34055043189E+02  0.45045684996E+02  0.00000000000E+00 0. -1.
         11    1    4    4    0    0 -0.60873735641E-01  0.37590979372E+00  0.54491371294E+00  0.66478944064E+00  0.51100000000E-03 0. -1.
        -11    1    4    4    0    0 -0.41950794150E+01  0.10145234174E+02 -0.10125375937E+02  0.14934781748E+02  0.51100000000E-03 0.  1.
        -12    1    4    4    0    0 -0.34006292329E+01  0.17952431788E+02 -0.24474580966E+02  0.30542743815E+02  0.00000000000E+00 0.  1.
</event>
<event>
 8    1  0.2882335E-009  0.9118800E+02  0.7816164E-02  0.1184000E+00
        -11   -1    0    0    0    0  0.00000000000E+00  0.00000000000E+00  0.45593999997E+02  0.45594000000E+02  0.51100000000E-03 0. -1.
         11   -1    0    0    0    0 -0.00000000000E+00 -0.00000000000E+00 -0.45593999997E+02  0.45594000000E+02  0.51100000000E-03 0.  1.
         23    2    1    2    0    0  0.00000000000E+00 -0.17763568394E-14 -0.71054273576E-14  0.91188000000E+02  0.91188000000E+02 0.  0.
    9900012    2    3    3    0    0  0.16006440273E+02 -0.14788391192E+02 -0.39423480572E+02  0.46142318024E+02  0.10000002395E+02 0.  0.
         12    1    3    3    0    0 -0.16006440273E+02  0.14788391192E+02  0.39423480572E+02  0.45045681976E+02  0.00000000000E+00 0. -1.
         11    1    4    4    0    0  0.57488975379E+01 -0.26704815202E+01 -0.63070659329E+01  0.89420565529E+01  0.51100000000E-03 0. -1.
        -11    1    4    4    0    0  0.59635067965E+01 -0.88988085000E+01 -0.27087469838E+02  0.29128735443E+02  0.51100000000E-03 0.  1.
        -12    1    4    4    0    0  0.42940359385E+01 -0.32191011721E+01 -0.60289448016E+01  0.80715260278E+01  0.00000000000E+00 0.  1.
</event>
<event>
 8    1  0.3910995E-009  0.9118800E+02  0.7816164E-02  0.1184000E+00
        -11   -1    0    0    0    0  0.00000000000E+00  0.00000000000E+00  0.45593999997E+02  0.45594000000E+02  0.51100000000E-03 0. -1.
         11   -1    0    0    0    0 -0.00000000000E+00 -0.00000000000E+00 -0.45593999997E+02  0.45594000000E+02  0.51100000000E-03 0.  1.
         23    2    1    2    0    0 -0.22204460493E-15  0.00000000000E+00  0.00000000000E+00  0.91188000000E+02  0.91188000000E+02 0.  0.
    9900012    2    3    3    0    0  0.18773324111E+01  0.30853000931E+02  0.32767083278E+02  0.46142314413E+02  0.99999694716E+01 0.  0.
        -12    1    3    3    0    0 -0.18773324111E+01 -0.30853000931E+02 -0.32767083278E+02  0.45045685587E+02  0.00000000000E+00 0.  1.
         11    1    4    4    0    0 -0.11455343546E+01  0.73372716037E+01  0.12414937934E+02  0.14466460787E+02  0.51100000000E-03 0. -1.
        -11    1    4    4    0    0 -0.81535209866E+00  0.13407523842E+01  0.44790546125E+00  0.16318809895E+01  0.51100000000E-03 0.  1.
         12    1    4    4    0    0  0.38382188643E+01  0.22174976943E+02  0.19904239884E+02  0.30043972637E+02  0.00000000000E+00 0. -1.
</event>
<event>
 8    1  0.2882335E-009  0.9118800E+02  0.7816164E-02  0.1184000E+00
        -11   -1    0    0    0    0  0.00000000000E+00  0.00000000000E+00  0.45593999997E+02  0.45594000000E+02  0.51100000000E-03 0. -1.
         11   -1    0    0    0    0 -0.00000000000E+00 -0.00000000000E+00 -0.45593999997E+02  0.45594000000E+02  0.51100000000E-03 0.  1.
         23    2    1    2    0    0  0.00000000000E+00  0.00000000000E+00  0.00000000000E+00  0.91188000000E+02  0.91188000000E+02 0.  0.
    9900012    2    3    3    0    0  0.11566273619E+02  0.88594966894E+01 -0.42624452930E+02  0.46142319246E+02  0.10000013538E+02 0.  0.
         12    1    3    3    0    0 -0.11566273619E+02 -0.88594966894E+01  0.42624452930E+02  0.45045680754E+02  0.00000000000E+00 0. -1.
         11    1    4    4    0    0  0.72034700780E+00  0.44906419830E+01 -0.18332543108E+02  0.18888274201E+02  0.51100000000E-03 0. -1.
        -11    1    4    4    0    0  0.71552265764E+01  0.44770408112E+01 -0.19112637345E+02  0.20893397721E+02  0.51100000000E-03 0.  1.
         12    1    4    4    0    0  0.36907000353E+01 -0.10818610478E+00 -0.51792724777E+01  0.63606473241E+01  0.00000000000E+00 0. -1.
</event>
<event>
 8    1  0.2882335E-009  0.9118800E+02  0.7816164E-02  0.1184000E+00
        -11   -1    0    0    0    0  0.00000000000E+00  0.00000000000E+00  0.45593999997E+02  0.45594000000E+02  0.51100000000E-03 0. -1.
         11   -1    0    0    0    0 -0.00000000000E+00 -0.00000000000E+00 -0.45593999997E+02  0.45594000000E+02  0.51100000000E-03 0.  1.
         23    2    1    2    0    0  0.17763568394E-14 -0.13322676296E-14  0.71054273576E-14  0.91188000000E+02  0.91188000000E+02 0.  0.
    9900012    2    3    3    0    0 -0.12034047182E+02  0.20224375113E+01 -0.43361331680E+02  0.46142316188E+02  0.99999856515E+01 0.  0.
         12    1    3    3    0    0  0.12034047182E+02 -0.20224375113E+01  0.43361331680E+02  0.45045683812E+02  0.00000000000E+00 0. -1.
         11    1    4    4    0    0 -0.82274261713E+01  0.45922954901E+01 -0.17699420427E+02  0.20051164629E+02  0.51100000000E-03 0. -1.
        -11    1    4    4    0    0 -0.81539217497E+00 -0.45702463860E+00 -0.32401573161E+01  0.33722923381E+01  0.51100000000E-03 0.  1.
         12    1    4    4    0    0 -0.29912288360E+01 -0.21128333402E+01 -0.22421753937E+02  0.22718859220E+02  0.00000000000E+00 0. -1.
</event>
<event>
 8    1  0.2882335E-009  0.9118800E+02  0.7816164E-02  0.1184000E+00
        -11   -1    0    0    0    0  0.00000000000E+00  0.00000000000E+00  0.45593999997E+02  0.45594000000E+02  0.51100000000E-03 0. -1.
         11   -1    0    0    0    0 -0.00000000000E+00 -0.00000000000E+00 -0.45593999997E+02  0.45594000000E+02  0.51100000000E-03 0.  1.
         23    2    1    2    0    0  0.44408920985E-15  0.00000000000E+00 -0.71054273576E-14  0.91188000000E+02  0.91188000000E+02 0.  0.
    9900012    2    3    3    0    0  0.24931826589E+01  0.19874448877E+02  0.40347289358E+02  0.46142318337E+02  0.10000005253E+02 0.  0.
        -12    1    3    3    0    0 -0.24931826589E+01 -0.19874448877E+02 -0.40347289358E+02  0.45045681663E+02  0.00000000000E+00 0.  1.
         11    1    4    4    0    0  0.84315831984E+00  0.17792562165E+02  0.39407527161E+02  0.43246264365E+02  0.51100000000E-03 0. -1.
        -11    1    4    4    0    0  0.58850305714E+00  0.12580082385E+01  0.57921908676E+00  0.15047975239E+01  0.51100000000E-03 0.  1.
         12    1    4    4    0    0  0.10615212820E+01  0.82387847294E+00  0.36054311085E+00  0.13912564483E+01  0.00000000000E+00 0. -1.
</event>
<event>
 8    1  0.2882335E-009  0.9118800E+02  0.7816164E-02  0.1184000E+00
        -11   -1    0    0    0    0  0.00000000000E+00  0.00000000000E+00  0.45593999997E+02  0.45594000000E+02  0.51100000000E-03 0. -1.
         11   -1    0    0    0    0 -0.00000000000E+00 -0.00000000000E+00 -0.45593999997E+02  0.45594000000E+02  0.51100000000E-03 0.  1.
         23    2    1    2    0    0 -0.35527136788E-14  0.00000000000E+00  0.35527136788E-14  0.91188000000E+02  0.91188000000E+02 0.  0.
    9900012    2    3    3    0    0 -0.19042684928E+02 -0.27137660522E+02  0.30496508889E+02  0.46142317385E+02  0.99999965663E+01 0.  0.
        -12    1    3    3    0    0  0.19042684928E+02  0.27137660522E+02 -0.30496508889E+02  0.45045682615E+02  0.00000000000E+00 0.  1.
         11    1    4    4    0    0 -0.68370433072E+01 -0.47681213024E+01  0.65738867966E+01  0.10615843340E+02  0.51100000000E-03 0. -1.
        -11    1    4    4    0    0 -0.29581758625E+01 -0.53630014782E+01  0.98300355573E+01  0.11581976887E+02  0.51100000000E-03 0.  1.
         12    1    4    4    0    0 -0.92474657582E+01 -0.17006537741E+02  0.14092586535E+02  0.23944497158E+02  0.00000000000E+00 0. -1.
</event>
<event>
 8    1  0.2882335E-009  0.9118800E+02  0.7816164E-02  0.1184000E+00
        -11   -1    0    0    0    0  0.00000000000E+00  0.00000000000E+00  0.45593999997E+02  0.45594000000E+02  0.51100000000E-03 0. -1.
         11   -1    0    0    0    0 -0.00000000000E+00 -0.00000000000E+00 -0.45593999997E+02  0.45594000000E+02  0.51100000000E-03 0.  1.
         23    2    1    2    0    0  0.44408920985E-15  0.00000000000E+00  0.00000000000E+00  0.91188000000E+02  0.91188000000E+02 0.  0.
    9900012    2    3    3    0    0  0.23089926960E+01  0.12956958665E+02  0.43080149410E+02  0.46142317650E+02  0.99999989913E+01 0.  0.
        -12    1    3    3    0    0 -0.23089926960E+01 -0.12956958665E+02 -0.43080149410E+02  0.45045682350E+02  0.00000000000E+00 0.  1.
         11    1    4    4    0    0  0.17816365110E+01  0.41734423156E+01  0.15173694978E+02  0.15837704030E+02  0.51100000000E-03 0. -1.
        -11    1    4    4    0    0 -0.32356131335E+01  0.60379245917E+01  0.13103512870E+02  0.14786066939E+02  0.51100000000E-03 0.  1.
        -12    1    4    4    0    0  0.37629693184E+01  0.27455917581E+01  0.14802941563E+02  0.15518546681E+02  0.00000000000E+00 0.  1.
</event>
<event>
 8    1  0.2882335E-009  0.9118800E+02  0.7816164E-02  0.1184000E+00
        -11   -1    0    0    0    0  0.00000000000E+00  0.00000000000E+00  0.45593999997E+02  0.45594000000E+02  0.51100000000E-03 0. -1.
         11   -1    0    0    0    0 -0.00000000000E+00 -0.00000000000E+00 -0.45593999997E+02  0.45594000000E+02  0.51100000000E-03 0.  1.
         23    2    1    2    0    0 -0.35527136788E-14  0.00000000000E+00  0.35527136788E-14  0.91188000000E+02  0.91188000000E+02 0.  0.
    9900012    2    3    3    0    0  0.28904222911E+02  0.22487327951E+02 -0.26229361296E+02  0.46142318581E+02  0.10000007477E+02 0.  0.
         12    1    3    3    0    0 -0.28904222911E+02 -0.22487327951E+02  0.26229361296E+02  0.45045681419E+02  0.00000000000E+00 0. -1.
         11    1    4    4    0    0  0.71579715864E+01  0.17968080213E+01 -0.66216413152E+01  0.99152009695E+01  0.51100000000E-03 0. -1.
        -11    1    4    4    0    0  0.15139428391E+02  0.10917062653E+02 -0.12028424981E+02  0.22205124561E+02  0.51100000000E-03 0.  1.
         12    1    4    4    0    0  0.66068229340E+01  0.97734572766E+01 -0.75792950004E+01  0.14021993051E+02  0.00000000000E+00 0. -1.
</event>
<event>
 8    1  0.2882335E-009  0.9118800E+02  0.7816164E-02  0.1184000E+00
        -11   -1    0    0    0    0  0.00000000000E+00  0.00000000000E+00  0.45593999997E+02  0.45594000000E+02  0.51100000000E-03 0. -1.
         11   -1    0    0    0    0 -0.00000000000E+00 -0.00000000000E+00 -0.45593999997E+02  0.45594000000E+02  0.51100000000E-03 0.  1.
         23    2    1    2    0    0  0.35527136788E-14 -0.35527136788E-14  0.35527136788E-14  0.91188000000E+02  0.91188000000E+02 0.  0.
    9900012    2    3    3    0    0 -0.31926201801E+02  0.18393620163E+02 -0.25913430813E+02  0.46142317402E+02  0.99999967286E+01 0.  0.
         12    1    3    3    0    0  0.31926201801E+02 -0.18393620163E+02  0.25913430813E+02  0.45045682598E+02  0.00000000000E+00 0. -1.
         11    1    4    4    0    0 -0.11279152059E+01  0.28204658253E+01 -0.19668418095E+01  0.36187963673E+01  0.51100000000E-03 0. -1.
        -11    1    4    4    0    0 -0.21881774401E+02  0.82236936071E+01 -0.13797899155E+02  0.27144487633E+02  0.51100000000E-03 0.  1.
        -12    1    4    4    0    0 -0.89165121944E+01  0.73494607311E+01 -0.10148689849E+02  0.15379033402E+02  0.00000000000E+00 0.  1.
</event>
<event>
 8    1  0.2882335E-009  0.9118800E+02  0.7816164E-02  0.1184000E+00
        -11   -1    0    0    0    0  0.00000000000E+00  0.00000000000E+00  0.45593999997E+02  0.45594000000E+02  0.51100000000E-03 0. -1.
         11   -1    0    0    0    0 -0.00000000000E+00 -0.00000000000E+00 -0.45593999997E+02  0.45594000000E+02  0.51100000000E-03 0.  1.
         23    2    1    2    0    0 -0.17763568394E-14 -0.22204460493E-15  0.00000000000E+00  0.91188000000E+02  0.91188000000E+02 0.  0.
    9900012    2    3    3    0    0 -0.90376237231E+01 -0.12463091621E+01  0.44112147630E+02  0.46142317659E+02  0.99999990662E+01 0.  0.
        -12    1    3    3    0    0  0.90376237231E+01  0.12463091621E+01 -0.44112147630E+02  0.45045682341E+02  0.00000000000E+00 0.  1.
         11    1    4    4    0    0 -0.19980803245E+01 -0.20530832703E+01  0.12971584254E+02  0.13284181353E+02  0.51100000000E-03 0. -1.
        -11    1    4    4    0    0  0.13087333995E+01 -0.12440075222E+01  0.39993878348E+01  0.43881022254E+01  0.51100000000E-03 0.  1.
        -12    1    4    4    0    0 -0.83482767982E+01  0.20507816304E+01  0.27141175541E+02  0.28470034080E+02  0.00000000000E+00 0.  1.
</event>
<event>
 8    1  0.2882335E-009  0.9118800E+02  0.7816164E-02  0.1184000E+00
        -11   -1    0    0    0    0  0.00000000000E+00  0.00000000000E+00  0.45593999997E+02  0.45594000000E+02  0.51100000000E-03 0. -1.
         11   -1    0    0    0    0 -0.00000000000E+00 -0.00000000000E+00 -0.45593999997E+02  0.45594000000E+02  0.51100000000E-03 0.  1.
         23    2    1    2    0    0  0.22204460493E-15  0.35527136788E-14  0.00000000000E+00  0.91188000000E+02  0.91188000000E+02 0.  0.
    9900012    2    3    3    0    0  0.14326906362E+01 -0.22696273611E+02 -0.38883673754E+02  0.46142317378E+02  0.99999965076E+01 0.  0.
         12    1    3    3    0    0 -0.14326906362E+01  0.22696273611E+02  0.38883673754E+02  0.45045682622E+02  0.00000000000E+00 0. -1.
         11    1    4    4    0    0  0.53632986318E+00 -0.10657606809E+01 -0.58330712597E+01  0.59538404524E+01  0.51100000000E-03 0. -1.
        -11    1    4    4    0    0 -0.10457857911E+00 -0.21777852342E+02 -0.30807988886E+02  0.37728211842E+02  0.51100000000E-03 0.  1.
        -12    1    4    4    0    0  0.10009393521E+01  0.14733941188E+00 -0.22426136080E+01  0.24602650840E+01  0.00000000000E+00 0.  1.
</event>
<event>
 8    1  0.2882335E-009  0.9118800E+02  0.7816164E-02  0.1184000E+00
        -11   -1    0    0    0    0  0.00000000000E+00  0.00000000000E+00  0.45593999997E+02  0.45594000000E+02  0.51100000000E-03 0. -1.
         11   -1    0    0    0    0 -0.00000000000E+00 -0.00000000000E+00 -0.45593999997E+02  0.45594000000E+02  0.51100000000E-03 0.  1.
         23    2    1    2    0    0  0.00000000000E+00 -0.35527136788E-14  0.00000000000E+00  0.91188000000E+02  0.91188000000E+02 0.  0.
    9900012    2    3    3    0    0  0.92464460915E+01 -0.26882796150E+02 -0.34941837339E+02  0.46142317734E+02  0.99999997573E+01 0.  0.
         12    1    3    3    0    0 -0.92464460915E+01  0.26882796150E+02  0.34941837339E+02  0.45045682266E+02  0.00000000000E+00 0. -1.
         11    1    4    4    0    0  0.17097450990E+01 -0.11389767600E+00 -0.40971111731E+01  0.44410045271E+01  0.51100000000E-03 0. -1.
        -11    1    4    4    0    0  0.30436114185E+01 -0.76778054376E+01 -0.69964207440E+01  0.10824147555E+02  0.51100000000E-03 0.  1.
         12    1    4    4    0    0  0.44930895740E+01 -0.19091093036E+02 -0.23848305422E+02  0.30877165652E+02  0.00000000000E+00 0. -1.
</event>
<event>
 8    1  0.2882335E-009  0.9118800E+02  0.7816164E-02  0.1184000E+00
        -11   -1    0    0    0    0  0.00000000000E+00  0.00000000000E+00  0.45593999997E+02  0.45594000000E+02  0.51100000000E-03 0. -1.
         11   -1    0    0    0    0 -0.00000000000E+00 -0.00000000000E+00 -0.45593999997E+02  0.45594000000E+02  0.51100000000E-03 0.  1.
         23    2    1    2    0    0  0.35527136788E-14  0.35527136788E-14  0.71054273576E-14  0.91188000000E+02  0.91188000000E+02 0.  0.
    9900012    2    3    3    0    0  0.18416724775E+02  0.17570437219E+02  0.37164734574E+02  0.46142317504E+02  0.99999976580E+01 0.  0.
        -12    1    3    3    0    0 -0.18416724775E+02 -0.17570437219E+02 -0.37164734574E+02  0.45045682496E+02  0.00000000000E+00 0.  1.
         11    1    4    4    0    0  0.16217217392E+02  0.11405704749E+02  0.27071517527E+02  0.33555257445E+02  0.51100000000E-03 0. -1.
        -11    1    4    4    0    0 -0.48202855663E+00  0.17936874910E+01  0.90817217614E+00  0.20674726860E+01  0.51100000000E-03 0.  1.
        -12    1    4    4    0    0  0.26815359402E+01  0.43710449797E+01  0.91850448710E+01  0.10519587373E+02  0.00000000000E+00 0.  1.
</event>
<event>
 8    1  0.2882335E-009  0.9118800E+02  0.7816164E-02  0.1184000E+00
        -11   -1    0    0    0    0  0.00000000000E+00  0.00000000000E+00  0.45593999997E+02  0.45594000000E+02  0.51100000000E-03 0. -1.
         11   -1    0    0    0    0 -0.00000000000E+00 -0.00000000000E+00 -0.45593999997E+02  0.45594000000E+02  0.51100000000E-03 0.  1.
         23    2    1    2    0    0  0.35527136788E-14  0.00000000000E+00  0.00000000000E+00  0.91188000000E+02  0.91188000000E+02 0.  0.
    9900012    2    3    3    0    0 -0.31550042845E+02 -0.24411877868E+01  0.32058523229E+02  0.46142317488E+02  0.99999975133E+01 0.  0.
        -12    1    3    3    0    0  0.31550042845E+02  0.24411877868E+01 -0.32058523229E+02  0.45045682512E+02  0.00000000000E+00 0.  1.
         11    1    4    4    0    0 -0.81114911815E+01  0.24447546681E+01  0.12867155818E+02  0.15405739634E+02  0.51100000000E-03 0. -1.
        -11    1    4    4    0    0 -0.15186002223E+02 -0.34805133236E+01  0.13486397321E+02  0.20606104665E+02  0.51100000000E-03 0.  1.
         12    1    4    4    0    0 -0.82525494400E+01 -0.14054291313E+01  0.57049700906E+01  0.10130473189E+02  0.00000000000E+00 0. -1.
</event>
<event>
 8    1  0.2882335E-009  0.9118800E+02  0.7816164E-02  0.1184000E+00
        -11   -1    0    0    0    0  0.00000000000E+00  0.00000000000E+00  0.45593999997E+02  0.45594000000E+02  0.51100000000E-03 0. -1.
         11   -1    0    0    0    0 -0.00000000000E+00 -0.00000000000E+00 -0.45593999997E+02  0.45594000000E+02  0.51100000000E-03 0.  1.
         23    2    1    2    0    0  0.00000000000E+00 -0.88817841970E-15  0.00000000000E+00  0.91188000000E+02  0.91188000000E+02 0.  0.
    9900012    2    3    3    0    0 -0.28396746205E+02 -0.56456882000E+01 -0.34508904586E+02  0.46142317787E+02  0.10000000241E+02 0.  0.
         12    1    3    3    0    0  0.28396746205E+02  0.56456882000E+01  0.34508904586E+02  0.45045682213E+02  0.00000000000E+00 0. -1.
         11    1    4    4    0    0  0.14559334641E+00 -0.16053487115E+01 -0.15607169199E+01  0.22436977232E+01  0.51100000000E-03 0. -1.
        -11    1    4    4    0    0 -0.22060062763E+02 -0.28545682849E+01 -0.27336622909E+02  0.35243238806E+02  0.51100000000E-03 0.  1.
        -12    1    4    4    0    0 -0.64822767882E+01 -0.11857712037E+01 -0.56115647572E+01  0.86553812585E+01  0.00000000000E+00 0.  1.
</event>
<event>
 8    1  0.2882335E-009  0.9118800E+02  0.7816164E-02  0.1184000E+00
        -11   -1    0    0    0    0  0.00000000000E+00  0.00000000000E+00  0.45593999997E+02  0.45594000000E+02  0.51100000000E-03 0. -1.
         11   -1    0    0    0    0 -0.00000000000E+00 -0.00000000000E+00 -0.45593999997E+02  0.45594000000E+02  0.51100000000E-03 0.  1.
         23    2    1    2    0    0  0.17763568394E-14  0.00000000000E+00  0.00000000000E+00  0.91188000000E+02  0.91188000000E+02 0.  0.
    9900012    2    3    3    0    0  0.74483970071E+01  0.25652274347E+02  0.36271141218E+02  0.46142317827E+02  0.10000000604E+02 0.  0.
        -12    1    3    3    0    0 -0.74483970071E+01 -0.25652274347E+02 -0.36271141218E+02  0.45045682173E+02  0.00000000000E+00 0.  1.
         11    1    4    4    0    0  0.32673151354E+01  0.37199511225E+01  0.31580650562E+01  0.58725428656E+01  0.51100000000E-03 0. -1.
        -11    1    4    4    0    0  0.39635662792E+01  0.18370230854E+02  0.23996729673E+02  0.30479801091E+02  0.51100000000E-03 0.  1.
         12    1    4    4    0    0  0.21751559247E+00  0.35620923702E+01  0.91163464886E+01  0.97899738706E+01  0.00000000000E+00 0. -1.
</event>
<event>
 8    1  0.2882335E-009  0.9118800E+02  0.7816164E-02  0.1184000E+00
        -11   -1    0    0    0    0  0.00000000000E+00  0.00000000000E+00  0.45593999997E+02  0.45594000000E+02  0.51100000000E-03 0. -1.
         11   -1    0    0    0    0 -0.00000000000E+00 -0.00000000000E+00 -0.45593999997E+02  0.45594000000E+02  0.51100000000E-03 0.  1.
         23    2    1    2    0    0  0.00000000000E+00  0.35527136788E-14 -0.35527136788E-14  0.91188000000E+02  0.91188000000E+02 0.  0.
    9900012    2    3    3    0    0 -0.35325180913E+02 -0.22388865148E+02  0.16732717642E+02  0.46142317312E+02  0.99999959080E+01 0.  0.
        -12    1    3    3    0    0  0.35325180913E+02  0.22388865148E+02 -0.16732717642E+02  0.45045682688E+02  0.00000000000E+00 0.  1.
         11    1    4    4    0    0 -0.63343950948E+01 -0.22697808317E+01  0.59800523630E+00  0.67552999019E+01  0.51100000000E-03 0.  1.
        -11    1    4    4    0    0 -0.74589341812E+01 -0.88656157739E+01  0.61826609582E+01  0.13132407965E+02  0.51100000000E-03 0. -1.
         12    1    4    4    0    0 -0.21531851637E+02 -0.11253468542E+02  0.99520514473E+01  0.26254609446E+02  0.00000000000E+00 0. -1.
</event>
<event>
 8    1  0.2882335E-009  0.9118800E+02  0.7816164E-02  0.1184000E+00
        -11   -1    0    0    0    0  0.00000000000E+00  0.00000000000E+00  0.45593999997E+02  0.45594000000E+02  0.51100000000E-03 0.  1.
         11   -1    0    0    0    0 -0.00000000000E+00 -0.00000000000E+00 -0.45593999997E+02  0.45594000000E+02  0.51100000000E-03 0. -1.
         23    2    1    2    0    0  0.88817841970E-15  0.71054273576E-14 -0.35527136788E-14  0.91188000000E+02  0.91188000000E+02 0.  0.
    9900012    2    3    3    0    0 -0.66300383608E+01 -0.33899160005E+02  0.28913717741E+02  0.46142317284E+02  0.99999956500E+01 0.  0.
        -12    1    3    3    0    0  0.66300383608E+01  0.33899160005E+02 -0.28913717741E+02  0.45045682716E+02  0.00000000000E+00 0.  1.
         11    1    4    4    0    0 -0.10745455605E+01 -0.23068256850E+02  0.17752317540E+02  0.29128060364E+02  0.51100000000E-03 0. -1.
        -11    1    4    4    0    0 -0.22049430094E+01 -0.33209381042E+01  0.13418056520E+01  0.42060487677E+01  0.51100000000E-03 0.  1.
        -12    1    4    4    0    0 -0.33505497909E+01 -0.75099650508E+01  0.98195945491E+01  0.12808208152E+02  0.00000000000E+00 0.  1.
</event>
<event>
 8    1  0.2882335E-009  0.9118800E+02  0.7816164E-02  0.1184000E+00
        -11   -1    0    0    0    0  0.00000000000E+00  0.00000000000E+00  0.45593999997E+02  0.45594000000E+02  0.51100000000E-03 0. -1.
         11   -1    0    0    0    0 -0.00000000000E+00 -0.00000000000E+00 -0.45593999997E+02  0.45594000000E+02  0.51100000000E-03 0.  1.
         23    2    1    2    0    0  0.00000000000E+00 -0.35527136788E-14  0.00000000000E+00  0.91188000000E+02  0.91188000000E+02 0.  0.
    9900012    2    3    3    0    0  0.31255063486E+02 -0.21844451548E+02 -0.23980292941E+02  0.46142317560E+02  0.99999981644E+01 0.  0.
         12    1    3    3    0    0 -0.31255063486E+02  0.21844451548E+02  0.23980292941E+02  0.45045682440E+02  0.00000000000E+00 0. -1.
         11    1    4    4    0    0  0.41764752300E+01 -0.55936687845E+01 -0.17490193292E+01  0.71966064706E+01  0.51100000000E-03 0. -1.
        -11    1    4    4    0    0  0.66173226947E+01 -0.52384411119E+01 -0.83829661261E+01  0.11895559939E+02  0.51100000000E-03 0.  1.
        -12    1    4    4    0    0  0.20461265562E+02 -0.11012341651E+02 -0.13848307486E+02  0.27050151150E+02  0.00000000000E+00 0.  1.
</event>
<event>
 8    1  0.2882335E-009  0.9118800E+02  0.7816164E-02  0.1184000E+00
        -11   -1    0    0    0    0  0.00000000000E+00  0.00000000000E+00  0.45593999997E+02  0.45594000000E+02  0.51100000000E-03 0. -1.
         11   -1    0    0    0    0 -0.00000000000E+00 -0.00000000000E+00 -0.45593999997E+02  0.45594000000E+02  0.51100000000E-03 0.  1.
         23    2    1    2    0    0  0.35527136788E-14  0.00000000000E+00  0.00000000000E+00  0.91188000000E+02  0.91188000000E+02 0.  0.
    9900012    2    3    3    0    0  0.29836968419E+02  0.24444366638E+02  0.23266748391E+02  0.46142319569E+02  0.10000016488E+02 0.  0.
        -12    1    3    3    0    0 -0.29836968419E+02 -0.24444366638E+02 -0.23266748391E+02  0.45045680431E+02  0.00000000000E+00 0.  1.
         11    1    4    4    0    0  0.41014167528E+01  0.71203966140E+01  0.25049802254E+01  0.85904943694E+01  0.51100000000E-03 0.  1.
        -11    1    4    4    0    0  0.44557017955E+00  0.12435576133E+01  0.89047960465E+00  0.15930858451E+01  0.51100000000E-03 0. -1.
         12    1    4    4    0    0  0.25289981487E+02  0.16080412411E+02  0.19871288561E+02  0.35958739355E+02  0.00000000000E+00 0. -1.
</event>
<event>
 8    1  0.2882335E-009  0.9118800E+02  0.7816164E-02  0.1184000E+00
        -11   -1    0    0    0    0  0.00000000000E+00  0.00000000000E+00  0.45593999997E+02  0.45594000000E+02  0.51100000000E-03 0. -1.
         11   -1    0    0    0    0 -0.00000000000E+00 -0.00000000000E+00 -0.45593999997E+02  0.45594000000E+02  0.51100000000E-03 0.  1.
         23    2    1    2    0    0  0.35527136788E-14 -0.88817841970E-15  0.71054273576E-14  0.91188000000E+02  0.91188000000E+02 0.  0.
    9900012    2    3    3    0    0  0.25558356489E+02 -0.77432234819E+01 -0.36275700138E+02  0.46142317445E+02  0.99999971187E+01 0.  0.
         12    1    3    3    0    0 -0.25558356489E+02  0.77432234819E+01  0.36275700138E+02  0.45045682555E+02  0.00000000000E+00 0. -1.
         11    1    4    4    0    0  0.55853400165E+01 -0.49390117591E+01 -0.73662409290E+01  0.10481000236E+02  0.51100000000E-03 0. -1.
        -11    1    4    4    0    0  0.16532885474E+02 -0.22935616810E+01 -0.26862560804E+02  0.31625842289E+02  0.51100000000E-03 0.  1.
         12    1    4    4    0    0  0.34401309984E+01 -0.51065004180E+00 -0.20468984056E+01  0.40354749206E+01  0.00000000000E+00 0. -1.
</event>
<event>
 8    1  0.2882335E-009  0.9118800E+02  0.7816164E-02  0.1184000E+00
        -11   -1    0    0    0    0  0.00000000000E+00  0.00000000000E+00  0.45593999997E+02  0.45594000000E+02  0.51100000000E-03 0. -1.
         11   -1    0    0    0    0 -0.00000000000E+00 -0.00000000000E+00 -0.45593999997E+02  0.45594000000E+02  0.51100000000E-03 0.  1.
         23    2    1    2    0    0  0.00000000000E+00 -0.44408920985E-15  0.00000000000E+00  0.91188000000E+02  0.91188000000E+02 0.  0.
    9900012    2    3    3    0    0  0.27751022790E+02 -0.27372312596E+01 -0.35376574995E+02  0.46142314755E+02  0.99999725868E+01 0.  0.
         12    1    3    3    0    0 -0.27751022790E+02  0.27372312596E+01  0.35376574995E+02  0.45045685245E+02  0.00000000000E+00 0. -1.
         11    1    4    4    0    0  0.88703014515E+01 -0.51482599863E+00 -0.16595177057E+02  0.18824112076E+02  0.51100000000E-03 0. -1.
        -11    1    4    4    0    0  0.56705797978E+01 -0.28545938934E+01 -0.82624842121E+01  0.10419828557E+02  0.51100000000E-03 0.  1.
         12    1    4    4    0    0  0.13210141540E+02  0.63218863243E+00 -0.10518913726E+02  0.16898374122E+02  0.00000000000E+00 0. -1.
</event>
<event>
 8    1  0.2882335E-009  0.9118800E+02  0.7816164E-02  0.1184000E+00
        -11   -1    0    0    0    0  0.00000000000E+00  0.00000000000E+00  0.45593999997E+02  0.45594000000E+02  0.51100000000E-03 0. -1.
         11   -1    0    0    0    0 -0.00000000000E+00 -0.00000000000E+00 -0.45593999997E+02  0.45594000000E+02  0.51100000000E-03 0.  1.
         23    2    1    2    0    0  0.00000000000E+00 -0.22204460493E-15  0.35527136788E-14  0.91188000000E+02  0.91188000000E+02 0.  0.
    9900012    2    3    3    0    0 -0.34752654217E+02 -0.17963165678E+01  0.28603140801E+02  0.46142318831E+02  0.10000009755E+02 0.  0.
        -12    1    3    3    0    0  0.34752654217E+02  0.17963165678E+01 -0.28603140801E+02  0.45045681169E+02  0.00000000000E+00 0.  1.
         11    1    4    4    0    0 -0.99513653169E+01 -0.77222712024E+00  0.76823808737E+01  0.12595434988E+02  0.51100000000E-03 0. -1.
        -11    1    4    4    0    0 -0.15631468089E+02 -0.36768869850E+01  0.94832404401E+01  0.18649239717E+02  0.51100000000E-03 0.  1.
        -12    1    4    4    0    0 -0.91698208109E+01  0.26527975374E+01  0.11437519487E+02  0.14897644126E+02  0.00000000000E+00 0.  1.
</event>
<event>
 8    1  0.3866247E-009  0.9118800E+02  0.7816164E-02  0.1184000E+00
        -11   -1    0    0    0    0  0.00000000000E+00  0.00000000000E+00  0.45593999997E+02  0.45594000000E+02  0.51100000000E-03 0. -1.
         11   -1    0    0    0    0 -0.00000000000E+00 -0.00000000000E+00 -0.45593999997E+02  0.45594000000E+02  0.51100000000E-03 0.  1.
         23    2    1    2    0    0  0.00000000000E+00  0.00000000000E+00  0.00000000000E+00  0.91188000000E+02  0.91188000000E+02 0.  0.
    9900012    2    3    3    0    0  0.73380532518E+01  0.17587447759E+02 -0.40816028255E+02  0.46142317557E+02  0.99999981403E+01 0.  0.
         12    1    3    3    0    0 -0.73380532518E+01 -0.17587447759E+02  0.40816028255E+02  0.45045682443E+02  0.00000000000E+00 0. -1.
         11    1    4    4    0    0  0.22265075764E+01 -0.90438027394E-01 -0.39293314318E+01  0.45172071888E+01  0.51100000000E-03 0. -1.
        -11    1    4    4    0    0  0.61054584078E+01  0.13868598394E+02 -0.26638533673E+02  0.30646796249E+02  0.51100000000E-03 0.  1.
        -12    1    4    4    0    0 -0.99391273238E+00  0.38092873922E+01 -0.10248163150E+02  0.10978314120E+02  0.00000000000E+00 0.  1.
</event>
<event>
 8    1  0.2882335E-009  0.9118800E+02  0.7816164E-02  0.1184000E+00
        -11   -1    0    0    0    0  0.00000000000E+00  0.00000000000E+00  0.45593999997E+02  0.45594000000E+02  0.51100000000E-03 0. -1.
         11   -1    0    0    0    0 -0.00000000000E+00 -0.00000000000E+00 -0.45593999997E+02  0.45594000000E+02  0.51100000000E-03 0.  1.
         23    2    1    2    0    0 -0.71054273576E-14  0.35527136788E-14  0.35527136788E-14  0.91188000000E+02  0.91188000000E+02 0.  0.
    9900012    2    3    3    0    0  0.28170539814E+02 -0.24885510401E+02 -0.24824294732E+02  0.46142317074E+02  0.99999937328E+01 0.  0.
         12    1    3    3    0    0 -0.28170539814E+02  0.24885510401E+02  0.24824294732E+02  0.45045682926E+02  0.00000000000E+00 0. -1.
         11    1    4    4    0    0  0.67617650230E+01 -0.88618539649E+01 -0.52324615379E+01  0.12313917976E+02  0.51100000000E-03 0. -1.
        -11    1    4    4    0    0  0.11235371206E+02 -0.63938206528E+01 -0.57953181988E+01  0.14166870577E+02  0.51100000000E-03 0.  1.
        -12    1    4    4    0    0  0.10173403585E+02 -0.96298357836E+01 -0.13796514995E+02  0.19661528520E+02  0.00000000000E+00 0.  1.
</event>
<event>
 8    1  0.2882335E-009  0.9118800E+02  0.7816164E-02  0.1184000E+00
        -11   -1    0    0    0    0  0.00000000000E+00  0.00000000000E+00  0.45593999997E+02  0.45594000000E+02  0.51100000000E-03 0. -1.
         11   -1    0    0    0    0 -0.00000000000E+00 -0.00000000000E+00 -0.45593999997E+02  0.45594000000E+02  0.51100000000E-03 0.  1.
         23    2    1    2    0    0  0.44408920985E-15  0.71054273576E-14  0.00000000000E+00  0.91188000000E+02  0.91188000000E+02 0.  0.
    9900012    2    3    3    0    0 -0.10517665187E+01  0.31512901151E+02 -0.32170551851E+02  0.46142316987E+02  0.99999929394E+01 0.  0.
         12    1    3    3    0    0  0.10517665187E+01 -0.31512901151E+02  0.32170551851E+02  0.45045683013E+02  0.00000000000E+00 0. -1.
         11    1    4    4    0    0  0.11592972846E+01  0.59717546968E+01 -0.80495078636E+01  0.10089618499E+02  0.51100000000E-03 0. -1.
        -11    1    4    4    0    0  0.23195986383E+01  0.16160571197E+02 -0.15803715994E+02  0.22722280667E+02  0.51100000000E-03 0.  1.
        -12    1    4    4    0    0 -0.45306624416E+01  0.93805752574E+01 -0.83173279930E+01  0.13330417820E+02  0.00000000000E+00 0.  1.
</event>
<event>
 8    1  0.2882335E-009  0.9118800E+02  0.7816164E-02  0.1184000E+00
        -11   -1    0    0    0    0  0.00000000000E+00  0.00000000000E+00  0.45593999997E+02  0.45594000000E+02  0.51100000000E-03 0. -1.
         11   -1    0    0    0    0 -0.00000000000E+00 -0.00000000000E+00 -0.45593999997E+02  0.45594000000E+02  0.51100000000E-03 0.  1.
         23    2    1    2    0    0 -0.35527136788E-14 -0.71054273576E-14  0.35527136788E-14  0.91188000000E+02  0.91188000000E+02 0.  0.
    9900012    2    3    3    0    0 -0.23815494022E+02 -0.23775265415E+02  0.29944491231E+02  0.46142317008E+02  0.99999931364E+01 0.  0.
        -12    1    3    3    0    0  0.23815494022E+02  0.23775265415E+02 -0.29944491231E+02  0.45045682992E+02  0.00000000000E+00 0.  1.
         11    1    4    4    0    0 -0.65768343083E+01 -0.60810207963E+01  0.71284598016E+01  0.11447641803E+02  0.51100000000E-03 0. -1.
        -11    1    4    4    0    0 -0.17949187622E+02 -0.17654954412E+02  0.21144477857E+02  0.32877951513E+02  0.51100000000E-03 0.  1.
        -12    1    4    4    0    0  0.71052790838E+00 -0.39290206943E-01  0.16715535725E+01  0.18167236924E+01  0.00000000000E+00 0.  1.
</event>
<event>
 8    1  0.2882335E-009  0.9118800E+02  0.7816164E-02  0.1184000E+00
        -11   -1    0    0    0    0  0.00000000000E+00  0.00000000000E+00  0.45593999997E+02  0.45594000000E+02  0.51100000000E-03 0. -1.
         11   -1    0    0    0    0 -0.00000000000E+00 -0.00000000000E+00 -0.45593999997E+02  0.45594000000E+02  0.51100000000E-03 0.  1.
         23    2    1    2    0    0  0.71054273576E-14  0.17763568394E-14  0.44408920985E-15  0.91188000000E+02  0.91188000000E+02 0.  0.
    9900012    2    3    3    0    0 -0.41982391862E+02 -0.15927683377E+02 -0.35918039203E+01  0.46142318968E+02  0.10000011009E+02 0.  0.
        -12    1    3    3    0    0  0.41982391862E+02  0.15927683377E+02  0.35918039203E+01  0.45045681032E+02  0.00000000000E+00 0.  1.
         11    1    4    4    0    0 -0.50656225780E+01 -0.28821340584E+01 -0.58830939214E+00  0.58577587041E+01  0.51100000000E-03 0. -1.
        -11    1    4    4    0    0 -0.30811217506E+01 -0.28977822998E+01 -0.25857565078E+01  0.49574782377E+01  0.51100000000E-03 0.  1.
        -12    1    4    4    0    0 -0.33835647533E+02 -0.10147767019E+02 -0.41773802037E+00  0.35327082027E+02  0.00000000000E+00 0.  1.
</event>
<event>
 8    1  0.2882335E-009  0.9118800E+02  0.7816164E-02  0.1184000E+00
        -11   -1    0    0    0    0  0.00000000000E+00  0.00000000000E+00  0.45593999997E+02  0.45594000000E+02  0.51100000000E-03 0. -1.
         11   -1    0    0    0    0 -0.00000000000E+00 -0.00000000000E+00 -0.45593999997E+02  0.45594000000E+02  0.51100000000E-03 0.  1.
         23    2    1    2    0    0  0.00000000000E+00 -0.35527136788E-14  0.00000000000E+00  0.91188000000E+02  0.91188000000E+02 0.  0.
    9900012    2    3    3    0    0  0.24798681204E+02 -0.22354402051E+02 -0.30239373087E+02  0.46142316908E+02  0.99999922196E+01 0.  0.
         12    1    3    3    0    0 -0.24798681204E+02  0.22354402051E+02  0.30239373087E+02  0.45045683092E+02  0.00000000000E+00 0. -1.
         11    1    4    4    0    0  0.16813998929E+02 -0.16300336737E+02 -0.16015843960E+02  0.28371090845E+02  0.51100000000E-03 0. -1.
        -11    1    4    4    0    0  0.43867193385E+01 -0.51824952516E+01 -0.10619681578E+02  0.12604729298E+02  0.51100000000E-03 0.  1.
         12    1    4    4    0    0  0.35979629364E+01 -0.87157006288E+00 -0.36038475491E+01  0.51664967651E+01  0.00000000000E+00 0. -1.
</event>
<event>
 8    1  0.2882335E-009  0.9118800E+02  0.7816164E-02  0.1184000E+00
        -11   -1    0    0    0    0  0.00000000000E+00  0.00000000000E+00  0.45593999997E+02  0.45594000000E+02  0.51100000000E-03 0. -1.
         11   -1    0    0    0    0 -0.00000000000E+00 -0.00000000000E+00 -0.45593999997E+02  0.45594000000E+02  0.51100000000E-03 0.  1.
         23    2    1    2    0    0  0.00000000000E+00  0.00000000000E+00 -0.88817841970E-15  0.91188000000E+02  0.91188000000E+02 0.  0.
    9900012    2    3    3    0    0  0.19609955457E+02 -0.40220343574E+02  0.51852737768E+01  0.46142318139E+02  0.10000003442E+02 0.  0.
        -12    1    3    3    0    0 -0.19609955457E+02  0.40220343574E+02 -0.51852737768E+01  0.45045681861E+02  0.00000000000E+00 0.  1.
         11    1    4    4    0    0  0.12157940059E+02 -0.24718732070E+02  0.54380751739E+01  0.28078530650E+02  0.51100000000E-03 0. -1.
        -11    1    4    4    0    0  0.56348172918E+01 -0.13001907614E+02  0.19003161199E+01  0.14297271388E+02  0.51100000000E-03 0.  1.
         12    1    4    4    0    0  0.18171981060E+01 -0.24997038903E+01 -0.21531175170E+01  0.37665161008E+01  0.00000000000E+00 0. -1.
</event>
<event>
 8    1  0.2882335E-009  0.9118800E+02  0.7816164E-02  0.1184000E+00
        -11   -1    0    0    0    0  0.00000000000E+00  0.00000000000E+00  0.45593999997E+02  0.45594000000E+02  0.51100000000E-03 0. -1.
         11   -1    0    0    0    0 -0.00000000000E+00 -0.00000000000E+00 -0.45593999997E+02  0.45594000000E+02  0.51100000000E-03 0.  1.
         23    2    1    2    0    0  0.00000000000E+00  0.27755575616E-15  0.00000000000E+00  0.91188000000E+02  0.91188000000E+02 0.  0.
    9900012    2    3    3    0    0  0.22329998786E+02  0.49698974708E+00 -0.39118259554E+02  0.46142311249E+02  0.99999406141E+01 0.  0.
         12    1    3    3    0    0 -0.22329998786E+02 -0.49698974708E+00  0.39118259554E+02  0.45045688751E+02  0.00000000000E+00 0. -1.
         11    1    4    4    0    0  0.27462263080E+01 -0.21864147654E+01 -0.25661903141E+01  0.43482756870E+01  0.51100000000E-03 0. -1.
        -11    1    4    4    0    0  0.15985505660E+02  0.39353991169E+00 -0.29380134890E+02  0.33449717357E+02  0.51100000000E-03 0.  1.
        -12    1    4    4    0    0  0.35982668176E+01  0.22898646008E+01 -0.71719343497E+01  0.83443182044E+01  0.00000000000E+00 0.  1.
</event>
<event>
 8    1  0.2882335E-009  0.9118800E+02  0.7816164E-02  0.1184000E+00
        -11   -1    0    0    0    0  0.00000000000E+00  0.00000000000E+00  0.45593999997E+02  0.45594000000E+02  0.51100000000E-03 0. -1.
         11   -1    0    0    0    0 -0.00000000000E+00 -0.00000000000E+00 -0.45593999997E+02  0.45594000000E+02  0.51100000000E-03 0.  1.
         23    2    1    2    0    0  0.35527136788E-14  0.00000000000E+00  0.00000000000E+00  0.91188000000E+02  0.91188000000E+02 0.  0.
    9900012    2    3    3    0    0  0.23764481279E+02  0.17015384135E+02 -0.34275920369E+02  0.46142327790E+02  0.10000091447E+02 0.  0.
         12    1    3    3    0    0 -0.23764481279E+02 -0.17015384135E+02  0.34275920369E+02  0.45045672210E+02  0.00000000000E+00 0. -1.
         11    1    4    4    0    0  0.19737456421E+00 -0.71637914539E+00 -0.30379763869E+01  0.31275320281E+01  0.51100000000E-03 0. -1.
        -11    1    4    4    0    0  0.14121154389E+02  0.11756840692E+02 -0.20177376557E+02  0.27290233222E+02  0.51100000000E-03 0.  1.
         12    1    4    4    0    0  0.94459523263E+01  0.59749225880E+01 -0.11060567425E+02  0.15724562539E+02  0.00000000000E+00 0. -1.
</event>
<event>
 8    1  0.2882335E-009  0.9118800E+02  0.7816164E-02  0.1184000E+00
        -11   -1    0    0    0    0  0.00000000000E+00  0.00000000000E+00  0.45593999997E+02  0.45594000000E+02  0.51100000000E-03 0.  1.
         11   -1    0    0    0    0 -0.00000000000E+00 -0.00000000000E+00 -0.45593999997E+02  0.45594000000E+02  0.51100000000E-03 0. -1.
         23    2    1    2    0    0 -0.17763568394E-14 -0.71054273576E-14  0.88817841970E-15  0.91188000000E+02  0.91188000000E+02 0.  0.
    9900012    2    3    3    0    0  0.14438280333E+02  0.42201855693E+02  0.62970516553E+01  0.46142318493E+02  0.10000006670E+02 0.  0.
         12    1    3    3    0    0 -0.14438280333E+02 -0.42201855693E+02 -0.62970516553E+01  0.45045681507E+02  0.00000000000E+00 0. -1.
         11    1    4    4    0    0  0.53427660957E+01  0.24356166360E+02 -0.26217260986E+00  0.24936654227E+02  0.51100000000E-03 0. -1.
        -11    1    4    4    0    0  0.60815853738E+01  0.10162828337E+02  0.47260065281E+01  0.12751623364E+02  0.51100000000E-03 0.  1.
         12    1    4    4    0    0  0.30139288637E+01  0.76828609962E+01  0.18332177371E+01  0.84540409009E+01  0.00000000000E+00 0. -1.
</event>
<event>
 8    1  0.2882335E-009  0.9118800E+02  0.7816164E-02  0.1184000E+00
        -11   -1    0    0    0    0  0.00000000000E+00  0.00000000000E+00  0.45593999997E+02  0.45594000000E+02  0.51100000000E-03 0. -1.
         11   -1    0    0    0    0 -0.00000000000E+00 -0.00000000000E+00 -0.45593999997E+02  0.45594000000E+02  0.51100000000E-03 0.  1.
         23    2    1    2    0    0 -0.17763568394E-14  0.00000000000E+00  0.00000000000E+00  0.91188000000E+02  0.91188000000E+02 0.  0.
    9900012    2    3    3    0    0  0.14172766321E+02  0.18353982860E+02  0.38618356770E+02  0.46142317947E+02  0.10000001695E+02 0.  0.
        -12    1    3    3    0    0 -0.14172766321E+02 -0.18353982860E+02 -0.38618356770E+02  0.45045682053E+02  0.00000000000E+00 0.  1.
         11    1    4    4    0    0  0.54486552078E+01  0.42095530299E+01  0.13071171256E+02  0.14773750321E+02  0.51100000000E-03 0. -1.
        -11    1    4    4    0    0  0.76726990405E+00  0.98579548585E+00 -0.30758698161E+00  0.12865091752E+01  0.51100000000E-03 0.  1.
        -12    1    4    4    0    0  0.79568412090E+01  0.13158634344E+02  0.25854772496E+02  0.30082058451E+02  0.00000000000E+00 0.  1.
</event>
<event>
 8    1  0.2882335E-009  0.9118800E+02  0.7816164E-02  0.1184000E+00
        -11   -1    0    0    0    0  0.00000000000E+00  0.00000000000E+00  0.45593999997E+02  0.45594000000E+02  0.51100000000E-03 0. -1.
         11   -1    0    0    0    0 -0.00000000000E+00 -0.00000000000E+00 -0.45593999997E+02  0.45594000000E+02  0.51100000000E-03 0.  1.
         23    2    1    2    0    0 -0.35527136788E-14  0.17763568394E-14  0.35527136788E-14  0.91188000000E+02  0.91188000000E+02 0.  0.
    9900012    2    3    3    0    0  0.28885544949E+02 -0.15353051057E+02 -0.30968088458E+02  0.46142318891E+02  0.10000010307E+02 0.  0.
         12    1    3    3    0    0 -0.28885544949E+02  0.15353051057E+02  0.30968088458E+02  0.45045681109E+02  0.00000000000E+00 0. -1.
         11    1    4    4    0    0  0.16391397045E+02 -0.45631269501E+01 -0.17014842433E+02  0.24062520398E+02  0.51100000000E-03 0. -1.
        -11    1    4    4    0    0  0.11876575582E+02 -0.84983670729E+01 -0.12891194263E+02  0.19479686349E+02  0.51100000000E-03 0.  1.
         12    1    4    4    0    0  0.61757232157E+00 -0.22915570345E+01 -0.10620517623E+01  0.26001121438E+01  0.00000000000E+00 0. -1.
</event>
<event>
 8    1  0.2882335E-009  0.9118800E+02  0.7816164E-02  0.1184000E+00
        -11   -1    0    0    0    0  0.00000000000E+00  0.00000000000E+00  0.45593999997E+02  0.45594000000E+02  0.51100000000E-03 0. -1.
         11   -1    0    0    0    0 -0.00000000000E+00 -0.00000000000E+00 -0.45593999997E+02  0.45594000000E+02  0.51100000000E-03 0.  1.
         23    2    1    2    0    0 -0.71054273576E-14  0.00000000000E+00 -0.17763568394E-14  0.91188000000E+02  0.91188000000E+02 0.  0.
    9900012    2    3    3    0    0 -0.40523134712E+02  0.17939166144E+02  0.80731248482E+01  0.46142317925E+02  0.10000001494E+02 0.  0.
        -12    1    3    3    0    0  0.40523134712E+02 -0.17939166144E+02 -0.80731248482E+01  0.45045682075E+02  0.00000000000E+00 0.  1.
         11    1    4    4    0    0 -0.11368412315E+02  0.24870279799E+01  0.54355927444E+01  0.12844133894E+02  0.51100000000E-03 0. -1.
        -11    1    4    4    0    0 -0.17421989849E+02  0.11153749775E+02  0.20728175653E+01  0.20790104311E+02  0.51100000000E-03 0.  1.
         12    1    4    4    0    0 -0.11732732548E+02  0.42983883886E+01  0.56471453850E+00  0.12508079720E+02  0.00000000000E+00 0. -1.
</event>
<event>
 8    1  0.2882335E-009  0.9118800E+02  0.7816164E-02  0.1184000E+00
        -11   -1    0    0    0    0  0.00000000000E+00  0.00000000000E+00  0.45593999997E+02  0.45594000000E+02  0.51100000000E-03 0. -1.
         11   -1    0    0    0    0 -0.00000000000E+00 -0.00000000000E+00 -0.45593999997E+02  0.45594000000E+02  0.51100000000E-03 0.  1.
         23    2    1    2    0    0  0.00000000000E+00 -0.11102230246E-15  0.00000000000E+00  0.91188000000E+02  0.91188000000E+02 0.  0.
    9900012    2    3    3    0    0  0.36688243010E+02  0.63955443256E+00  0.26128093620E+02  0.46142317840E+02  0.10000000718E+02 0.  0.
        -12    1    3    3    0    0 -0.36688243010E+02 -0.63955443256E+00 -0.26128093620E+02  0.45045682160E+02  0.00000000000E+00 0.  1.
         11    1    4    4    0    0  0.24981680393E+01  0.22593229421E+00 -0.77721168720E+00  0.26260135609E+01  0.51100000000E-03 0. -1.
        -11    1    4    4    0    0  0.27591885624E+02  0.34939936134E+00  0.21307022545E+02  0.34862923603E+02  0.51100000000E-03 0.  1.
         12    1    4    4    0    0  0.65981893469E+01  0.64222777006E-01  0.55982827629E+01  0.86533806756E+01  0.00000000000E+00 0. -1.
</event>
<event>
 8    1  0.2882335E-009  0.9118800E+02  0.7816164E-02  0.1184000E+00
        -11   -1    0    0    0    0  0.00000000000E+00  0.00000000000E+00  0.45593999997E+02  0.45594000000E+02  0.51100000000E-03 0. -1.
         11   -1    0    0    0    0 -0.00000000000E+00 -0.00000000000E+00 -0.45593999997E+02  0.45594000000E+02  0.51100000000E-03 0.  1.
         23    2    1    2    0    0 -0.44408920985E-15 -0.35527136788E-14  0.00000000000E+00  0.91188000000E+02  0.91188000000E+02 0.  0.
    9900012    2    3    3    0    0 -0.38896862780E+01  0.20665154554E+02 -0.39836357971E+02  0.46142315540E+02  0.99999797449E+01 0.  0.
         12    1    3    3    0    0  0.38896862780E+01 -0.20665154554E+02  0.39836357971E+02  0.45045684460E+02  0.00000000000E+00 0. -1.
         11    1    4    4    0    0 -0.19938277544E+01 -0.28201172978E+00 -0.22827400874E+01  0.30439747532E+01  0.51100000000E-03 0. -1.
        -11    1    4    4    0    0 -0.20867973732E+01  0.11183563995E+02 -0.20668243314E+02  0.23592437535E+02  0.51100000000E-03 0.  1.
        -12    1    4    4    0    0  0.19093884962E+00  0.97636022886E+01 -0.16885374570E+02  0.19505903252E+02  0.00000000000E+00 0.  1.
</event>
<event>
 8    1  0.2882335E-009  0.9118800E+02  0.7816164E-02  0.1184000E+00
        -11   -1    0    0    0    0  0.00000000000E+00  0.00000000000E+00  0.45593999997E+02  0.45594000000E+02  0.51100000000E-03 0.  1.
         11   -1    0    0    0    0 -0.00000000000E+00 -0.00000000000E+00 -0.45593999997E+02  0.45594000000E+02  0.51100000000E-03 0. -1.
         23    2    1    2    0    0  0.71054273576E-14 -0.35527136788E-14 -0.44408920985E-15  0.91188000000E+02  0.91188000000E+02 0.  0.
    9900012    2    3    3    0    0 -0.38734314575E+02  0.22925477547E+02  0.17857163997E+01  0.46142318416E+02  0.10000005969E+02 0.  0.
         12    1    3    3    0    0  0.38734314575E+02 -0.22925477547E+02 -0.17857163997E+01  0.45045681584E+02  0.00000000000E+00 0. -1.
         11    1    4    4    0    0 -0.66285257500E+00  0.86341241077E+00  0.13436173684E+01  0.17292086112E+01  0.51100000000E-03 0. -1.
        -11    1    4    4    0    0 -0.32206189241E+02  0.20995158764E+02  0.59010371460E+00  0.38449753440E+02  0.51100000000E-03 0.  1.
        -12    1    4    4    0    0 -0.58652727592E+01  0.10669063722E+01 -0.14800468328E+00  0.59633563648E+01  0.00000000000E+00 0.  1.
</event>
<event>
 8    1  0.2882335E-009  0.9118800E+02  0.7816164E-02  0.1184000E+00
        -11   -1    0    0    0    0  0.00000000000E+00  0.00000000000E+00  0.45593999997E+02  0.45594000000E+02  0.51100000000E-03 0. -1.
         11   -1    0    0    0    0 -0.00000000000E+00 -0.00000000000E+00 -0.45593999997E+02  0.45594000000E+02  0.51100000000E-03 0.  1.
         23    2    1    2    0    0  0.00000000000E+00  0.00000000000E+00  0.00000000000E+00  0.91188000000E+02  0.91188000000E+02 0.  0.
    9900012    2    3    3    0    0  0.12967048669E+02  0.13548045424E+02  0.40956314083E+02  0.46142317086E+02  0.99999938425E+01 0.  0.
        -12    1    3    3    0    0 -0.12967048669E+02 -0.13548045424E+02 -0.40956314083E+02  0.45045682914E+02  0.00000000000E+00 0.  1.
         11    1    4    4    0    0  0.57910462574E+01  0.36241137050E+01  0.13318007791E+02  0.14967957398E+02  0.51100000000E-03 0. -1.
        -11    1    4    4    0    0  0.50431266183E+01  0.21771379313E+01  0.62189244060E+01  0.82974741149E+01  0.51100000000E-03 0.  1.
        -12    1    4    4    0    0  0.21328757928E+01  0.77467937872E+01  0.21419381886E+02  0.22876885572E+02  0.00000000000E+00 0.  1.
</event>
<event>
 8    1  0.2882335E-009  0.9118800E+02  0.7816164E-02  0.1184000E+00
        -11   -1    0    0    0    0  0.00000000000E+00  0.00000000000E+00  0.45593999997E+02  0.45594000000E+02  0.51100000000E-03 0. -1.
         11   -1    0    0    0    0 -0.00000000000E+00 -0.00000000000E+00 -0.45593999997E+02  0.45594000000E+02  0.51100000000E-03 0.  1.
         23    2    1    2    0    0  0.88817841970E-15  0.17763568394E-14  0.71054273576E-14  0.91188000000E+02  0.91188000000E+02 0.  0.
    9900012    2    3    3    0    0  0.21141936210E+01  0.11059942508E+02  0.43615609431E+02  0.46142317310E+02  0.99999958886E+01 0.  0.
        -12    1    3    3    0    0 -0.21141936210E+01 -0.11059942508E+02 -0.43615609431E+02  0.45045682690E+02  0.00000000000E+00 0.  1.
         11    1    4    4    0    0  0.52797326793E+01  0.74147648682E+01  0.27364013207E+02  0.28838230429E+02  0.51100000000E-03 0. -1.
        -11    1    4    4    0    0 -0.31547812276E+01  0.14660188453E+01  0.72350767329E+01  0.80279630942E+01  0.51100000000E-03 0.  1.
        -12    1    4    4    0    0 -0.10757830729E-01  0.21791587940E+01  0.90165194912E+01  0.92761237872E+01  0.00000000000E+00 0.  1.
</event>
<event>
 8    1  0.2882335E-009  0.9118800E+02  0.7816164E-02  0.1184000E+00
        -11   -1    0    0    0    0  0.00000000000E+00  0.00000000000E+00  0.45593999997E+02  0.45594000000E+02  0.51100000000E-03 0. -1.
         11   -1    0    0    0    0 -0.00000000000E+00 -0.00000000000E+00 -0.45593999997E+02  0.45594000000E+02  0.51100000000E-03 0.  1.
         23    2    1    2    0    0 -0.35527136788E-14  0.00000000000E+00  0.00000000000E+00  0.91188000000E+02  0.91188000000E+02 0.  0.
    9900012    2    3    3    0    0  0.16214547379E+02 -0.21401375289E+02 -0.36168813555E+02  0.46142317799E+02  0.10000000346E+02 0.  0.
         12    1    3    3    0    0 -0.16214547379E+02  0.21401375289E+02  0.36168813555E+02  0.45045682201E+02  0.00000000000E+00 0. -1.
         11    1    4    4    0    0  0.81571069464E+01 -0.11581281388E+02 -0.22511027972E+02  0.26597196336E+02  0.51100000000E-03 0.  1.
        -11    1    4    4    0    0  0.16168918241E+01 -0.58078518021E+01 -0.38840059648E+01  0.71715398850E+01  0.51100000000E-03 0. -1.
        -12    1    4    4    0    0  0.64405486089E+01 -0.40122420989E+01 -0.97737796183E+01  0.12373581578E+02  0.00000000000E+00 0.  1.
</event>
<event>
 8    1  0.2882335E-009  0.9118800E+02  0.7816164E-02  0.1184000E+00
        -11   -1    0    0    0    0  0.00000000000E+00  0.00000000000E+00  0.45593999997E+02  0.45594000000E+02  0.51100000000E-03 0. -1.
         11   -1    0    0    0    0 -0.00000000000E+00 -0.00000000000E+00 -0.45593999997E+02  0.45594000000E+02  0.51100000000E-03 0.  1.
         23    2    1    2    0    0  0.00000000000E+00  0.00000000000E+00  0.00000000000E+00  0.91188000000E+02  0.91188000000E+02 0.  0.
    9900012    2    3    3    0    0  0.43737654904E+02  0.10285914721E+02  0.32141988586E+01  0.46142316828E+02  0.99999914868E+01 0.  0.
         12    1    3    3    0    0 -0.43737654904E+02 -0.10285914721E+02 -0.32141988586E+01  0.45045683172E+02  0.00000000000E+00 0. -1.
         11    1    4    4    0    0  0.11837186753E+02 -0.69331526221E+00 -0.11722728124E+01  0.11915280109E+02  0.51100000000E-03 0. -1.
        -11    1    4    4    0    0  0.10677087671E+02  0.55708089050E+01  0.15132867354E+01  0.12137716012E+02  0.51100000000E-03 0.  1.
         12    1    4    4    0    0  0.21223380481E+02  0.54084210781E+01  0.28731849356E+01  0.22089320706E+02  0.00000000000E+00 0. -1.
</event>
<event>
 8    1  0.2882335E-009  0.9118800E+02  0.7816164E-02  0.1184000E+00
        -11   -1    0    0    0    0  0.00000000000E+00  0.00000000000E+00  0.45593999997E+02  0.45594000000E+02  0.51100000000E-03 0. -1.
         11   -1    0    0    0    0 -0.00000000000E+00 -0.00000000000E+00 -0.45593999997E+02  0.45594000000E+02  0.51100000000E-03 0.  1.
         23    2    1    2    0    0  0.00000000000E+00  0.34694469520E-16  0.00000000000E+00  0.91188000000E+02  0.91188000000E+02 0.  0.
    9900012    2    3    3    0    0 -0.21586015585E+02  0.35868031457E-01  0.39536767702E+02  0.46142319234E+02  0.10000013431E+02 0.  0.
        -12    1    3    3    0    0  0.21586015585E+02 -0.35868031457E-01 -0.39536767702E+02  0.45045680766E+02  0.00000000000E+00 0.  1.
         11    1    4    4    0    0 -0.29886098225E+01 -0.10171049355E+01  0.84391259557E+01  0.90102795893E+01  0.51100000000E-03 0. -1.
        -11    1    4    4    0    0 -0.17896147247E+02  0.30548143733E+01  0.27390540513E+02  0.32861005569E+02  0.51100000000E-03 0.  1.
        -12    1    4    4    0    0 -0.70125851496E+00 -0.20018414063E+01  0.37071012337E+01  0.42710340759E+01  0.00000000000E+00 0.  1.
</event>
<event>
 8    1  0.2882335E-009  0.9118800E+02  0.7816164E-02  0.1184000E+00
        -11   -1    0    0    0    0  0.00000000000E+00  0.00000000000E+00  0.45593999997E+02  0.45594000000E+02  0.51100000000E-03 0. -1.
         11   -1    0    0    0    0 -0.00000000000E+00 -0.00000000000E+00 -0.45593999997E+02  0.45594000000E+02  0.51100000000E-03 0.  1.
         23    2    1    2    0    0  0.00000000000E+00  0.11102230246E-15 -0.35527136788E-14  0.91188000000E+02  0.91188000000E+02 0.  0.
    9900012    2    3    3    0    0  0.39268923402E+02 -0.11428567501E+00 -0.22069256166E+02  0.46142317919E+02  0.10000001440E+02 0.  0.
         12    1    3    3    0    0 -0.39268923402E+02  0.11428567501E+00  0.22069256166E+02  0.45045682081E+02  0.00000000000E+00 0. -1.
         11    1    4    4    0    0  0.67782180558E-01 -0.34119783345E+00  0.30711973438E+00  0.46404006068E+00  0.51100000000E-03 0. -1.
        -11    1    4    4    0    0  0.81705626960E+01 -0.28014837225E+01 -0.45126945999E+01  0.97452972571E+01  0.51100000000E-03 0.  1.
        -12    1    4    4    0    0  0.31030578526E+02  0.30283958810E+01 -0.17863681301E+02  0.35932980601E+02  0.00000000000E+00 0.  1.
</event>
<event>
 8    1  0.2882335E-009  0.9118800E+02  0.7816164E-02  0.1184000E+00
        -11   -1    0    0    0    0  0.00000000000E+00  0.00000000000E+00  0.45593999997E+02  0.45594000000E+02  0.51100000000E-03 0. -1.
         11   -1    0    0    0    0 -0.00000000000E+00 -0.00000000000E+00 -0.45593999997E+02  0.45594000000E+02  0.51100000000E-03 0.  1.
         23    2    1    2    0    0  0.00000000000E+00  0.00000000000E+00  0.00000000000E+00  0.91188000000E+02  0.91188000000E+02 0.  0.
    9900012    2    3    3    0    0  0.41754537404E+02  0.16509469482E+02  0.36206865408E+01  0.46142319325E+02  0.10000014262E+02 0.  0.
        -12    1    3    3    0    0 -0.41754537404E+02 -0.16509469482E+02 -0.36206865408E+01  0.45045680675E+02  0.00000000000E+00 0.  1.
         11    1    4    4    0    0  0.24385938885E+02  0.85417020570E+01 -0.15809561937E+01  0.25886948683E+02  0.51100000000E-03 0. -1.
        -11    1    4    4    0    0  0.14001470773E+01  0.14942831039E+01  0.17248485624E+01  0.26773861613E+01  0.51100000000E-03 0.  1.
        -12    1    4    4    0    0  0.15968451442E+02  0.64734843210E+01  0.34767941721E+01  0.17577984481E+02  0.00000000000E+00 0.  1.
</event>
<event>
 8    1  0.2882335E-009  0.9118800E+02  0.7816164E-02  0.1184000E+00
        -11   -1    0    0    0    0  0.00000000000E+00  0.00000000000E+00  0.45593999997E+02  0.45594000000E+02  0.51100000000E-03 0. -1.
         11   -1    0    0    0    0 -0.00000000000E+00 -0.00000000000E+00 -0.45593999997E+02  0.45594000000E+02  0.51100000000E-03 0.  1.
         23    2    1    2    0    0  0.00000000000E+00 -0.22204460493E-15  0.00000000000E+00  0.91188000000E+02  0.91188000000E+02 0.  0.
    9900012    2    3    3    0    0  0.18449392471E+02 -0.15789208291E+01  0.41063855971E+02  0.46142319400E+02  0.10000014941E+02 0.  0.
        -12    1    3    3    0    0 -0.18449392471E+02  0.15789208291E+01 -0.41063855971E+02  0.45045680600E+02  0.00000000000E+00 0.  1.
         11    1    4    4    0    0  0.11691903408E+02 -0.13938614305E+01  0.26559174337E+02  0.29052249426E+02  0.51100000000E-03 0. -1.
        -11    1    4    4    0    0  0.66298283262E+01  0.50079642505E+00  0.73877514789E+01  0.99390287690E+01  0.51100000000E-03 0.  1.
        -12    1    4    4    0    0  0.12766073658E+00 -0.68585582363E+00  0.71169301555E+01  0.71510412048E+01  0.00000000000E+00 0.  1.
</event>
<event>
 8    1  0.2882335E-009  0.9118800E+02  0.7816164E-02  0.1184000E+00
        -11   -1    0    0    0    0  0.00000000000E+00  0.00000000000E+00  0.45593999997E+02  0.45594000000E+02  0.51100000000E-03 0. -1.
         11   -1    0    0    0    0 -0.00000000000E+00 -0.00000000000E+00 -0.45593999997E+02  0.45594000000E+02  0.51100000000E-03 0.  1.
         23    2    1    2    0    0  0.00000000000E+00 -0.88817841970E-15  0.00000000000E+00  0.91188000000E+02  0.91188000000E+02 0.  0.
    9900012    2    3    3    0    0  0.43380269471E+01 -0.78888539310E+01 -0.44136850529E+02  0.46142311318E+02  0.99999412504E+01 0.  0.
         12    1    3    3    0    0 -0.43380269471E+01  0.78888539310E+01  0.44136850529E+02  0.45045688682E+02  0.00000000000E+00 0. -1.
         11    1    4    4    0    0  0.25187567483E+01 -0.39995887790E+01 -0.64633791058E+01  0.80072539416E+01  0.51100000000E-03 0. -1.
        -11    1    4    4    0    0  0.30760327318E+01 -0.32863225751E+01 -0.30037166291E+02  0.30372574018E+02  0.51100000000E-03 0.  1.
        -12    1    4    4    0    0 -0.12567625331E+01 -0.60294257692E+00 -0.76363051324E+01  0.77624833585E+01  0.00000000000E+00 0.  1.
</event>
<event>
 8    1  0.2882335E-009  0.9118800E+02  0.7816164E-02  0.1184000E+00
        -11   -1    0    0    0    0  0.00000000000E+00  0.00000000000E+00  0.45593999997E+02  0.45594000000E+02  0.51100000000E-03 0. -1.
         11   -1    0    0    0    0 -0.00000000000E+00 -0.00000000000E+00 -0.45593999997E+02  0.45594000000E+02  0.51100000000E-03 0.  1.
         23    2    1    2    0    0  0.00000000000E+00  0.35527136788E-14  0.00000000000E+00  0.91188000000E+02  0.91188000000E+02 0.  0.
    9900012    2    3    3    0    0  0.32801833599E+02  0.21876183702E+02  0.21784991487E+02  0.46142317023E+02  0.99999932719E+01 0.  0.
        -12    1    3    3    0    0 -0.32801833599E+02 -0.21876183702E+02 -0.21784991487E+02  0.45045682977E+02  0.00000000000E+00 0.  1.
         11    1    4    4    0    0  0.28917645392E+02  0.15376821317E+02  0.17622297552E+02  0.37191695580E+02  0.51100000000E-03 0. -1.
        -11    1    4    4    0    0  0.27320647864E+01  0.49419950077E+01  0.18686527820E+01  0.59480548194E+01  0.51100000000E-03 0.  1.
         12    1    4    4    0    0  0.11521234197E+01  0.15573673767E+01  0.22940411523E+01  0.30025666236E+01  0.00000000000E+00 0. -1.
</event>
<event>
 8    1  0.2882335E-009  0.9118800E+02  0.7816164E-02  0.1184000E+00
        -11   -1    0    0    0    0  0.00000000000E+00  0.00000000000E+00  0.45593999997E+02  0.45594000000E+02  0.51100000000E-03 0. -1.
         11   -1    0    0    0    0 -0.00000000000E+00 -0.00000000000E+00 -0.45593999997E+02  0.45594000000E+02  0.51100000000E-03 0.  1.
         23    2    1    2    0    0 -0.35527136788E-14  0.00000000000E+00 -0.88817841970E-15  0.91188000000E+02  0.91188000000E+02 0.  0.
    9900012    2    3    3    0    0  0.16822437584E+02  0.41525585708E+02  0.46631310637E+01  0.46142318010E+02  0.10000002269E+02 0.  0.
         12    1    3    3    0    0 -0.16822437584E+02 -0.41525585708E+02 -0.46631310637E+01  0.45045681990E+02  0.00000000000E+00 0. -1.
         11    1    4    4    0    0  0.32990282055E+01  0.92850918436E+01 -0.27696712041E+01  0.10235604354E+02  0.51100000000E-03 0. -1.
        -11    1    4    4    0    0  0.54541452169E+01  0.14720634800E+02  0.49400667645E+01  0.16457492180E+02  0.51100000000E-03 0.  1.
        -12    1    4    4    0    0  0.80692641619E+01  0.17519859064E+02  0.24927355033E+01  0.19449221476E+02  0.00000000000E+00 0.  1.
</event>
<event>
 8    1  0.2882335E-009  0.9118800E+02  0.7816164E-02  0.1184000E+00
        -11   -1    0    0    0    0  0.00000000000E+00  0.00000000000E+00  0.45593999997E+02  0.45594000000E+02  0.51100000000E-03 0. -1.
         11   -1    0    0    0    0 -0.00000000000E+00 -0.00000000000E+00 -0.45593999997E+02  0.45594000000E+02  0.51100000000E-03 0.  1.
         23    2    1    2    0    0 -0.44408920985E-15  0.00000000000E+00  0.00000000000E+00  0.91188000000E+02  0.91188000000E+02 0.  0.
    9900012    2    3    3    0    0  0.31328724490E+01 -0.39988459592E+02  0.20499313396E+02  0.46142316078E+02  0.99999846510E+01 0.  0.
        -12    1    3    3    0    0 -0.31328724490E+01  0.39988459592E+02 -0.20499313396E+02  0.45045683922E+02  0.00000000000E+00 0.  1.
         11    1    4    4    0    0  0.54214208367E+01 -0.28112795210E+02  0.13457876006E+02  0.31635984025E+02  0.51100000000E-03 0. -1.
        -11    1    4    4    0    0 -0.15788327949E+01 -0.81380349022E+01  0.26653170027E+01  0.87077115277E+01  0.51100000000E-03 0.  1.
         12    1    4    4    0    0 -0.70971559284E+00 -0.37376294802E+01  0.43761203867E+01  0.57986205250E+01  0.00000000000E+00 0. -1.
</event>
<event>
 8    1  0.2882335E-009  0.9118800E+02  0.7816164E-02  0.1184000E+00
        -11   -1    0    0    0    0  0.00000000000E+00  0.00000000000E+00  0.45593999997E+02  0.45594000000E+02  0.51100000000E-03 0. -1.
         11   -1    0    0    0    0 -0.00000000000E+00 -0.00000000000E+00 -0.45593999997E+02  0.45594000000E+02  0.51100000000E-03 0.  1.
         23    2    1    2    0    0  0.00000000000E+00  0.00000000000E+00  0.00000000000E+00  0.91188000000E+02  0.91188000000E+02 0.  0.
    9900012    2    3    3    0    0 -0.25728065318E+02 -0.45350981161E+01  0.36696225811E+02  0.46142318202E+02  0.10000004018E+02 0.  0.
        -12    1    3    3    0    0  0.25728065318E+02  0.45350981161E+01 -0.36696225811E+02  0.45045681798E+02  0.00000000000E+00 0.  1.
         11    1    4    4    0    0 -0.72539023638E+00 -0.30778011488E-01  0.58275703998E+01  0.58726242266E+01  0.51100000000E-03 0. -1.
        -11    1    4    4    0    0 -0.14232937697E+02 -0.49456344875E+01  0.18650331953E+02  0.23976461336E+02  0.51100000000E-03 0.  1.
         12    1    4    4    0    0 -0.10769737384E+02  0.44131438281E+00  0.12218323458E+02  0.16293232639E+02  0.00000000000E+00 0. -1.
</event>
<event>
 8    1  0.2882335E-009  0.9118800E+02  0.7816164E-02  0.1184000E+00
        -11   -1    0    0    0    0  0.00000000000E+00  0.00000000000E+00  0.45593999997E+02  0.45594000000E+02  0.51100000000E-03 0. -1.
         11   -1    0    0    0    0 -0.00000000000E+00 -0.00000000000E+00 -0.45593999997E+02  0.45594000000E+02  0.51100000000E-03 0.  1.
         23    2    1    2    0    0  0.17763568394E-14  0.00000000000E+00 -0.71054273576E-14  0.91188000000E+02  0.91188000000E+02 0.  0.
    9900012    2    3    3    0    0 -0.62244579069E+01 -0.30086385835E+02  0.32942054521E+02  0.46142318244E+02  0.10000004403E+02 0.  0.
        -12    1    3    3    0    0  0.62244579069E+01  0.30086385835E+02 -0.32942054521E+02  0.45045681756E+02  0.00000000000E+00 0.  1.
         11    1    4    4    0    0 -0.37699562133E+01 -0.14442390667E+02  0.11984204103E+02  0.19142005283E+02  0.51100000000E-03 0. -1.
        -11    1    4    4    0    0  0.18694220649E-01 -0.31682269828E+01  0.90069286877E+01  0.95479200005E+01  0.51100000000E-03 0.  1.
         12    1    4    4    0    0 -0.24731959143E+01 -0.12475768185E+02  0.11950921730E+02  0.17452392960E+02  0.00000000000E+00 0. -1.
</event>
<event>
 8    1  0.2882335E-009  0.9118800E+02  0.7816164E-02  0.1184000E+00
        -11   -1    0    0    0    0  0.00000000000E+00  0.00000000000E+00  0.45593999997E+02  0.45594000000E+02  0.51100000000E-03 0. -1.
         11   -1    0    0    0    0 -0.00000000000E+00 -0.00000000000E+00 -0.45593999997E+02  0.45594000000E+02  0.51100000000E-03 0.  1.
         23    2    1    2    0    0  0.71054273576E-14 -0.35527136788E-14  0.00000000000E+00  0.91188000000E+02  0.91188000000E+02 0.  0.
    9900012    2    3    3    0    0  0.35205851902E+02 -0.19764418401E+02 -0.19975716359E+02  0.46142317777E+02  0.10000000145E+02 0.  0.
         12    1    3    3    0    0 -0.35205851902E+02  0.19764418401E+02  0.19975716359E+02  0.45045682223E+02  0.00000000000E+00 0. -1.
         11    1    4    4    0    0  0.73887474523E+00 -0.30490932130E+01 -0.94985719056E+00  0.32779771589E+01  0.51100000000E-03 0. -1.
        -11    1    4    4    0    0  0.24715811195E+02 -0.12083516491E+02 -0.15058750911E+02  0.31363173836E+02  0.51100000000E-03 0.  1.
        -12    1    4    4    0    0  0.97511659616E+01 -0.46318086967E+01 -0.39671082574E+01  0.11501166782E+02  0.00000000000E+00 0.  1.
</event>
<event>
 8    1  0.2882335E-009  0.9118800E+02  0.7816164E-02  0.1184000E+00
        -11   -1    0    0    0    0  0.00000000000E+00  0.00000000000E+00  0.45593999997E+02  0.45594000000E+02  0.51100000000E-03 0. -1.
         11   -1    0    0    0    0 -0.00000000000E+00 -0.00000000000E+00 -0.45593999997E+02  0.45594000000E+02  0.51100000000E-03 0.  1.
         23    2    1    2    0    0  0.00000000000E+00  0.00000000000E+00  0.00000000000E+00  0.91188000000E+02  0.91188000000E+02 0.  0.
    9900012    2    3    3    0    0  0.24048059972E+02 -0.37564644317E+02 -0.63009126755E+01  0.46142321055E+02  0.10000030033E+02 0.  0.
         12    1    3    3    0    0 -0.24048059972E+02  0.37564644317E+02  0.63009126755E+01  0.45045678945E+02  0.00000000000E+00 0. -1.
         11    1    4    4    0    0  0.11800430415E+02 -0.25315124213E+02 -0.51030730684E+01  0.28392728416E+02  0.51100000000E-03 0. -1.
        -11    1    4    4    0    0  0.71718518373E+01 -0.87198991274E+01 -0.21531946641E+01  0.11493839528E+02  0.51100000000E-03 0.  1.
         12    1    4    4    0    0  0.50757777196E+01 -0.35296209770E+01  0.95535505699E+00  0.62557531109E+01  0.00000000000E+00 0. -1.
</event>
<event>
 8    1  0.2882335E-009  0.9118800E+02  0.7816164E-02  0.1184000E+00
        -11   -1    0    0    0    0  0.00000000000E+00  0.00000000000E+00  0.45593999997E+02  0.45594000000E+02  0.51100000000E-03 0. -1.
         11   -1    0    0    0    0 -0.00000000000E+00 -0.00000000000E+00 -0.45593999997E+02  0.45594000000E+02  0.51100000000E-03 0.  1.
         23    2    1    2    0    0  0.71054273576E-14 -0.17763568394E-14  0.44408920985E-15  0.91188000000E+02  0.91188000000E+02 0.  0.
    9900012    2    3    3    0    0 -0.43284891855E+02  0.11972229316E+02  0.34924761456E+01  0.46142317329E+02  0.99999960560E+01 0.  0.
        -12    1    3    3    0    0  0.43284891855E+02 -0.11972229316E+02 -0.34924761456E+01  0.45045682671E+02  0.00000000000E+00 0.  1.
         11    1    4    4    0    0 -0.21542356598E+02  0.84990579077E+01  0.32302710696E+01  0.23382509800E+02  0.51100000000E-03 0. -1.
        -11    1    4    4    0    0 -0.71282852208E+01  0.38634642017E+01 -0.47428597903E+00  0.81218072667E+01  0.51100000000E-03 0.  1.
         12    1    4    4    0    0 -0.14614250037E+02 -0.39029279292E+00  0.73649105503E+00  0.14638000262E+02  0.00000000000E+00 0. -1.
</event>
<event>
 8    1  0.2882335E-009  0.9118800E+02  0.7816164E-02  0.1184000E+00
        -11   -1    0    0    0    0  0.00000000000E+00  0.00000000000E+00  0.45593999997E+02  0.45594000000E+02  0.51100000000E-03 0. -1.
         11   -1    0    0    0    0 -0.00000000000E+00 -0.00000000000E+00 -0.45593999997E+02  0.45594000000E+02  0.51100000000E-03 0.  1.
         23    2    1    2    0    0 -0.35527136788E-14  0.44408920985E-15 -0.71054273576E-14  0.91188000000E+02  0.91188000000E+02 0.  0.
    9900012    2    3    3    0    0  0.15980521777E+02 -0.32927810578E+01  0.41986831295E+02  0.46142317792E+02  0.10000000282E+02 0.  0.
        -12    1    3    3    0    0 -0.15980521777E+02  0.32927810578E+01 -0.41986831295E+02  0.45045682208E+02  0.00000000000E+00 0.  1.
         11    1    4    4    0    0  0.71306177287E+01  0.71771683209E+00  0.15223182823E+02  0.16825757700E+02  0.51100000000E-03 0. -1.
        -11    1    4    4    0    0  0.57687581964E+01 -0.72303603565E+00  0.22018217920E+02  0.22772862641E+02  0.51100000000E-03 0.  1.
         12    1    4    4    0    0  0.30811458517E+01 -0.32874618543E+01  0.47454305516E+01  0.65436974505E+01  0.00000000000E+00 0. -1.
</event>
<event>
 8    1  0.2882335E-009  0.9118800E+02  0.7816164E-02  0.1184000E+00
        -11   -1    0    0    0    0  0.00000000000E+00  0.00000000000E+00  0.45593999997E+02  0.45594000000E+02  0.51100000000E-03 0. -1.
         11   -1    0    0    0    0 -0.00000000000E+00 -0.00000000000E+00 -0.45593999997E+02  0.45594000000E+02  0.51100000000E-03 0.  1.
         23    2    1    2    0    0 -0.35527136788E-14  0.00000000000E+00 -0.71054273576E-14  0.91188000000E+02  0.91188000000E+02 0.  0.
    9900012    2    3    3    0    0 -0.16216537750E+02 -0.11587803273E+02 -0.40396290154E+02  0.46142317194E+02  0.99999948292E+01 0.  0.
         12    1    3    3    0    0  0.16216537750E+02  0.11587803273E+02  0.40396290154E+02  0.45045682806E+02  0.00000000000E+00 0. -1.
         11    1    4    4    0    0 -0.13738665299E+01 -0.22672989778E+01 -0.10596501907E+01  0.28549978432E+01  0.51100000000E-03 0. -1.
        -11    1    4    4    0    0 -0.13413021246E+02 -0.97323267248E+01 -0.36424613866E+02  0.40017244008E+02  0.51100000000E-03 0.  1.
         12    1    4    4    0    0 -0.14296499741E+01  0.41182242943E+00 -0.29120260969E+01  0.32700753433E+01  0.00000000000E+00 0. -1.
</event>
<event>
 8    1  0.2882335E-009  0.9118800E+02  0.7816164E-02  0.1184000E+00
        -11   -1    0    0    0    0  0.00000000000E+00  0.00000000000E+00  0.45593999997E+02  0.45594000000E+02  0.51100000000E-03 0. -1.
         11   -1    0    0    0    0 -0.00000000000E+00 -0.00000000000E+00 -0.45593999997E+02  0.45594000000E+02  0.51100000000E-03 0.  1.
         23    2    1    2    0    0 -0.17763568394E-14  0.00000000000E+00  0.00000000000E+00  0.91188000000E+02  0.91188000000E+02 0.  0.
    9900012    2    3    3    0    0 -0.11604509380E+02  0.24926431679E+02 -0.35680834451E+02  0.46142316729E+02  0.99999905926E+01 0.  0.
         12    1    3    3    0    0  0.11604509380E+02 -0.24926431679E+02  0.35680834451E+02  0.45045683271E+02  0.00000000000E+00 0. -1.
         11    1    4    4    0    0  0.51317629184E+00  0.36586171862E+01 -0.18658507751E+01  0.41388680817E+01  0.51100000000E-03 0. -1.
        -11    1    4    4    0    0 -0.79361865802E+01  0.15296461002E+02 -0.26958961529E+02  0.31996099506E+02  0.51100000000E-03 0.  1.
         12    1    4    4    0    0 -0.41814990915E+01  0.59713534909E+01 -0.68560221470E+01  0.10007349142E+02  0.00000000000E+00 0. -1.
</event>
<event>
 8    1  0.2882335E-009  0.9118800E+02  0.7816164E-02  0.1184000E+00
        -11   -1    0    0    0    0  0.00000000000E+00  0.00000000000E+00  0.45593999997E+02  0.45594000000E+02  0.51100000000E-03 0.  1.
         11   -1    0    0    0    0 -0.00000000000E+00 -0.00000000000E+00 -0.45593999997E+02  0.45594000000E+02  0.51100000000E-03 0. -1.
         23    2    1    2    0    0  0.00000000000E+00  0.35527136788E-14  0.00000000000E+00  0.91188000000E+02  0.91188000000E+02 0.  0.
    9900012    2    3    3    0    0  0.28770345359E+02 -0.24555311124E+02 -0.24462571201E+02  0.46142318007E+02  0.10000002244E+02 0.  0.
         12    1    3    3    0    0 -0.28770345359E+02  0.24555311124E+02  0.24462571201E+02  0.45045681993E+02  0.00000000000E+00 0. -1.
         11    1    4    4    0    0  0.24946841578E+01 -0.40970685309E+01 -0.37387387436E+01  0.60817421228E+01  0.51100000000E-03 0. -1.
        -11    1    4    4    0    0  0.15896228054E+02 -0.13987831427E+02 -0.86465851654E+01  0.22871662153E+02  0.51100000000E-03 0.  1.
        -12    1    4    4    0    0  0.10379433147E+02 -0.64704111654E+01 -0.12077247292E+02  0.17188913731E+02  0.00000000000E+00 0.  1.
</event>
<event>
 8    1  0.2882335E-009  0.9118800E+02  0.7816164E-02  0.1184000E+00
        -11   -1    0    0    0    0  0.00000000000E+00  0.00000000000E+00  0.45593999997E+02  0.45594000000E+02  0.51100000000E-03 0. -1.
         11   -1    0    0    0    0 -0.00000000000E+00 -0.00000000000E+00 -0.45593999997E+02  0.45594000000E+02  0.51100000000E-03 0.  1.
         23    2    1    2    0    0  0.00000000000E+00  0.00000000000E+00  0.35527136788E-14  0.91188000000E+02  0.91188000000E+02 0.  0.
    9900012    2    3    3    0    0 -0.31242064407E+02  0.10426770806E+02 -0.30729942732E+02  0.46142317430E+02  0.99999969796E+01 0.  0.
         12    1    3    3    0    0  0.31242064407E+02 -0.10426770806E+02  0.30729942732E+02  0.45045682570E+02  0.00000000000E+00 0. -1.
         11    1    4    4    0    0 -0.13949891617E+01  0.65173893884E-01 -0.37302449172E+01  0.39830854625E+01  0.51100000000E-03 0. -1.
        -11    1    4    4    0    0 -0.43244919837E+01 -0.95672341432E+00 -0.30849496260E+01  0.53975425024E+01  0.51100000000E-03 0.  1.
        -12    1    4    4    0    0 -0.25522583262E+02  0.11318320327E+02 -0.23914748189E+02  0.36761689465E+02  0.00000000000E+00 0.  1.
</event>
<event>
 8    1  0.2882335E-009  0.9118800E+02  0.7816164E-02  0.1184000E+00
        -11   -1    0    0    0    0  0.00000000000E+00  0.00000000000E+00  0.45593999997E+02  0.45594000000E+02  0.51100000000E-03 0. -1.
         11   -1    0    0    0    0 -0.00000000000E+00 -0.00000000000E+00 -0.45593999997E+02  0.45594000000E+02  0.51100000000E-03 0.  1.
         23    2    1    2    0    0 -0.35527136788E-14  0.00000000000E+00  0.00000000000E+00  0.91188000000E+02  0.91188000000E+02 0.  0.
    9900012    2    3    3    0    0  0.19613797164E+02  0.19021701638E+02 -0.35813228664E+02  0.46142317412E+02  0.99999968200E+01 0.  0.
         12    1    3    3    0    0 -0.19613797164E+02 -0.19021701638E+02  0.35813228664E+02  0.45045682588E+02  0.00000000000E+00 0. -1.
         11    1    4    4    0    0  0.11957582124E+01  0.48314777900E+01 -0.97465714654E+01  0.10943887377E+02  0.51100000000E-03 0. -1.
        -11    1    4    4    0    0  0.68097641277E+01  0.47759959692E+01 -0.12493825346E+02  0.15009287025E+02  0.51100000000E-03 0.  1.
        -12    1    4    4    0    0  0.11608274824E+02  0.94142278789E+01 -0.13572831853E+02  0.20189143010E+02  0.00000000000E+00 0.  1.
</event>
<event>
 8    1  0.2882335E-009  0.9118800E+02  0.7816164E-02  0.1184000E+00
        -11   -1    0    0    0    0  0.00000000000E+00  0.00000000000E+00  0.45593999997E+02  0.45594000000E+02  0.51100000000E-03 0. -1.
         11   -1    0    0    0    0 -0.00000000000E+00 -0.00000000000E+00 -0.45593999997E+02  0.45594000000E+02  0.51100000000E-03 0.  1.
         23    2    1    2    0    0  0.44408920985E-15  0.00000000000E+00 -0.71054273576E-14  0.91188000000E+02  0.91188000000E+02 0.  0.
    9900012    2    3    3    0    0  0.24609895643E+01  0.20291125210E+02  0.40141340897E+02  0.46142317844E+02  0.10000000754E+02 0.  0.
        -12    1    3    3    0    0 -0.24609895643E+01 -0.20291125210E+02 -0.40141340897E+02  0.45045682156E+02  0.00000000000E+00 0.  1.
         11    1    4    4    0    0  0.24097837130E+01  0.68853563666E+01  0.16825151347E+02  0.18338508880E+02  0.51100000000E-03 0. -1.
        -11    1    4    4    0    0  0.33079457589E+01  0.64841060269E+01  0.13723724236E+02  0.15534694824E+02  0.51100000000E-03 0.  1.
        -12    1    4    4    0    0 -0.32567399076E+01  0.69216628168E+01  0.95924653134E+01  0.12269114139E+02  0.00000000000E+00 0.  1.
</event>
<event>
 8    1  0.2882335E-009  0.9118800E+02  0.7816164E-02  0.1184000E+00
        -11   -1    0    0    0    0  0.00000000000E+00  0.00000000000E+00  0.45593999997E+02  0.45594000000E+02  0.51100000000E-03 0. -1.
         11   -1    0    0    0    0 -0.00000000000E+00 -0.00000000000E+00 -0.45593999997E+02  0.45594000000E+02  0.51100000000E-03 0.  1.
         23    2    1    2    0    0  0.00000000000E+00 -0.17763568394E-14  0.00000000000E+00  0.91188000000E+02  0.91188000000E+02 0.  0.
    9900012    2    3    3    0    0  0.33356801611E+02 -0.14416063005E+02 -0.26619811871E+02  0.46142317961E+02  0.10000001825E+02 0.  0.
         12    1    3    3    0    0 -0.33356801611E+02  0.14416063005E+02  0.26619811871E+02  0.45045682039E+02  0.00000000000E+00 0. -1.
         11    1    4    4    0    0  0.14217849448E+01  0.10843227458E+01 -0.11460567629E+01  0.21238348832E+01  0.51100000000E-03 0. -1.
        -11    1    4    4    0    0  0.20484577368E+02 -0.76753857932E+01 -0.13576538846E+02  0.25745909662E+02  0.51100000000E-03 0.  1.
        -12    1    4    4    0    0  0.11450439298E+02 -0.78249999578E+01 -0.11897216262E+02  0.18272573416E+02  0.00000000000E+00 0.  1.
</event>
<event>
 8    1  0.2882335E-009  0.9118800E+02  0.7816164E-02  0.1184000E+00
        -11   -1    0    0    0    0  0.00000000000E+00  0.00000000000E+00  0.45593999997E+02  0.45594000000E+02  0.51100000000E-03 0.  1.
         11   -1    0    0    0    0 -0.00000000000E+00 -0.00000000000E+00 -0.45593999997E+02  0.45594000000E+02  0.51100000000E-03 0. -1.
         23    2    1    2    0    0  0.35527136788E-14  0.00000000000E+00 -0.17763568394E-14  0.91188000000E+02  0.91188000000E+02 0.  0.
    9900012    2    3    3    0    0 -0.27173049107E+02 -0.33534980817E+02 -0.12889683132E+02  0.46142317994E+02  0.10000002124E+02 0.  0.
         12    1    3    3    0    0  0.27173049107E+02  0.33534980817E+02  0.12889683132E+02  0.45045682006E+02  0.00000000000E+00 0. -1.
         11    1    4    4    0    0 -0.36618404538E+01 -0.40307392006E+01 -0.41218582237E+01  0.68297620376E+01  0.51100000000E-03 0. -1.
        -11    1    4    4    0    0 -0.21926106442E+02 -0.26051440616E+02 -0.96911950272E+01  0.35402697117E+02  0.51100000000E-03 0.  1.
        -12    1    4    4    0    0 -0.15851022109E+01 -0.34528010001E+01  0.92337011860E+00  0.39098588390E+01  0.00000000000E+00 0.  1.
</event>
<event>
 8    1  0.2882335E-009  0.9118800E+02  0.7816164E-02  0.1184000E+00
        -11   -1    0    0    0    0  0.00000000000E+00  0.00000000000E+00  0.45593999997E+02  0.45594000000E+02  0.51100000000E-03 0.  1.
         11   -1    0    0    0    0 -0.00000000000E+00 -0.00000000000E+00 -0.45593999997E+02  0.45594000000E+02  0.51100000000E-03 0. -1.
         23    2    1    2    0    0  0.00000000000E+00 -0.35527136788E-14  0.00000000000E+00  0.91188000000E+02  0.91188000000E+02 0.  0.
    9900012    2    3    3    0    0 -0.29388072097E+02  0.27951569103E+02 -0.19600113100E+02  0.46142318404E+02  0.10000005863E+02 0.  0.
         12    1    3    3    0    0  0.29388072097E+02 -0.27951569103E+02  0.19600113100E+02  0.45045681596E+02  0.00000000000E+00 0. -1.
         11    1    4    4    0    0 -0.80752012238E+00 -0.40270722790E+00  0.60879682933E-01  0.90441608586E+00  0.51100000000E-03 0. -1.
        -11    1    4    4    0    0 -0.17029659437E+02  0.15782266470E+02 -0.14614706279E+02  0.27434993628E+02  0.51100000000E-03 0.  1.
        -12    1    4    4    0    0 -0.11550892538E+02  0.12572009861E+02 -0.50462865038E+01  0.17802908691E+02  0.00000000000E+00 0.  1.
</event>
<event>
 8    1  0.2882335E-009  0.9118800E+02  0.7816164E-02  0.1184000E+00
        -11   -1    0    0    0    0  0.00000000000E+00  0.00000000000E+00  0.45593999997E+02  0.45594000000E+02  0.51100000000E-03 0. -1.
         11   -1    0    0    0    0 -0.00000000000E+00 -0.00000000000E+00 -0.45593999997E+02  0.45594000000E+02  0.51100000000E-03 0.  1.
         23    2    1    2    0    0  0.00000000000E+00  0.00000000000E+00  0.00000000000E+00  0.91188000000E+02  0.91188000000E+02 0.  0.
    9900012    2    3    3    0    0  0.22125054066E+02 -0.95588940994E+01 -0.38055525560E+02  0.46142317638E+02  0.99999988745E+01 0.  0.
         12    1    3    3    0    0 -0.22125054066E+02  0.95588940994E+01  0.38055525560E+02  0.45045682362E+02  0.00000000000E+00 0. -1.
         11    1    4    4    0    0  0.97233705200E+00 -0.27283911715E+01 -0.19212007058E+01  0.34757114582E+01  0.51100000000E-03 0. -1.
        -11    1    4    4    0    0  0.16711842340E+02 -0.35278336369E+01 -0.25753460820E+02  0.30902621718E+02  0.51100000000E-03 0.  1.
        -12    1    4    4    0    0  0.44408746742E+01 -0.33026692910E+01 -0.10380864034E+02  0.11763984461E+02  0.00000000000E+00 0.  1.
</event>
<event>
 8    1  0.2882335E-009  0.9118800E+02  0.7816164E-02  0.1184000E+00
        -11   -1    0    0    0    0  0.00000000000E+00  0.00000000000E+00  0.45593999997E+02  0.45594000000E+02  0.51100000000E-03 0. -1.
         11   -1    0    0    0    0 -0.00000000000E+00 -0.00000000000E+00 -0.45593999997E+02  0.45594000000E+02  0.51100000000E-03 0.  1.
         23    2    1    2    0    0  0.00000000000E+00 -0.44408920985E-15  0.71054273576E-14  0.91188000000E+02  0.91188000000E+02 0.  0.
    9900012    2    3    3    0    0  0.82489071054E+01  0.33812852514E+01 -0.44154681866E+02  0.46142317753E+02  0.99999999244E+01 0.  0.
         12    1    3    3    0    0 -0.82489071054E+01 -0.33812852514E+01  0.44154681866E+02  0.45045682247E+02  0.00000000000E+00 0. -1.
         11    1    4    4    0    0  0.20845172083E+01 -0.19209146532E+01 -0.91237302325E+01  0.95539300141E+01  0.51100000000E-03 0. -1.
        -11    1    4    4    0    0  0.59074133921E+01  0.92093140680E+00 -0.16655136329E+02  0.17695739997E+02  0.51100000000E-03 0.  1.
         12    1    4    4    0    0  0.25697650500E+00  0.43812684978E+01 -0.18375815305E+02  0.18892647742E+02  0.00000000000E+00 0. -1.
</event>
<event>
 8    1  0.2882335E-009  0.9118800E+02  0.7816164E-02  0.1184000E+00
        -11   -1    0    0    0    0  0.00000000000E+00  0.00000000000E+00  0.45593999997E+02  0.45594000000E+02  0.51100000000E-03 0. -1.
         11   -1    0    0    0    0 -0.00000000000E+00 -0.00000000000E+00 -0.45593999997E+02  0.45594000000E+02  0.51100000000E-03 0.  1.
         23    2    1    2    0    0  0.00000000000E+00  0.00000000000E+00 -0.35527136788E-14  0.91188000000E+02  0.91188000000E+02 0.  0.
    9900012    2    3    3    0    0 -0.10595005112E+02  0.32843073529E+02  0.28951544006E+02  0.46142317493E+02  0.99999975584E+01 0.  0.
        -12    1    3    3    0    0  0.10595005112E+02 -0.32843073529E+02 -0.28951544006E+02  0.45045682507E+02  0.00000000000E+00 0.  1.
         11    1    4    4    0    0 -0.87920070116E+01  0.25329682887E+02  0.23076777283E+02  0.35375554731E+02  0.51100000000E-03 0. -1.
        -11    1    4    4    0    0 -0.26995977780E+01  0.34302501080E+01  0.12671421753E+01  0.45453375584E+01  0.51100000000E-03 0.  1.
        -12    1    4    4    0    0  0.89659967788E+00  0.40831405335E+01  0.46076245476E+01  0.62214252041E+01  0.00000000000E+00 0.  1.
</event>
<event>
 8    1  0.2882335E-009  0.9118800E+02  0.7816164E-02  0.1184000E+00
        -11   -1    0    0    0    0  0.00000000000E+00  0.00000000000E+00  0.45593999997E+02  0.45594000000E+02  0.51100000000E-03 0. -1.
         11   -1    0    0    0    0 -0.00000000000E+00 -0.00000000000E+00 -0.45593999997E+02  0.45594000000E+02  0.51100000000E-03 0.  1.
         23    2    1    2    0    0  0.00000000000E+00  0.00000000000E+00  0.35527136788E-14  0.91188000000E+02  0.91188000000E+02 0.  0.
    9900012    2    3    3    0    0 -0.36818370573E+02 -0.99552241924E+01 -0.23966947895E+02  0.46142317723E+02  0.99999996525E+01 0.  0.
         12    1    3    3    0    0  0.36818370573E+02  0.99552241924E+01  0.23966947895E+02  0.45045682277E+02  0.00000000000E+00 0. -1.
         11    1    4    4    0    0 -0.70473327899E+01 -0.40067219524E+01 -0.83157268520E+01  0.11613355828E+02  0.51100000000E-03 0. -1.
        -11    1    4    4    0    0 -0.85187927126E+01 -0.34696052820E+01 -0.64707296134E+01  0.11246258582E+02  0.51100000000E-03 0.  1.
         12    1    4    4    0    0 -0.21252245071E+02 -0.24788969581E+01 -0.91804914296E+01  0.23282703313E+02  0.00000000000E+00 0. -1.
</event>
<event>
 8    1  0.2882335E-009  0.9118800E+02  0.7816164E-02  0.1184000E+00
        -11   -1    0    0    0    0  0.00000000000E+00  0.00000000000E+00  0.45593999997E+02  0.45594000000E+02  0.51100000000E-03 0. -1.
         11   -1    0    0    0    0 -0.00000000000E+00 -0.00000000000E+00 -0.45593999997E+02  0.45594000000E+02  0.51100000000E-03 0.  1.
         23    2    1    2    0    0  0.00000000000E+00  0.00000000000E+00  0.00000000000E+00  0.91188000000E+02  0.91188000000E+02 0.  0.
    9900012    2    3    3    0    0  0.33142109408E+02  0.12566018369E+02  0.27799446958E+02  0.46142317801E+02  0.10000000359E+02 0.  0.
        -12    1    3    3    0    0 -0.33142109408E+02 -0.12566018369E+02 -0.27799446958E+02  0.45045682199E+02  0.00000000000E+00 0.  1.
         11    1    4    4    0    0 -0.27976514501E+00  0.34695511048E+00  0.72732806026E-01  0.45159351994E+00  0.51100000000E-03 0. -1.
        -11    1    4    4    0    0  0.18639007820E+02  0.49819957277E+01  0.10931325519E+02  0.22174913118E+02  0.51100000000E-03 0.  1.
         12    1    4    4    0    0  0.14782866733E+02  0.72370675310E+01  0.16795388633E+02  0.23515811162E+02  0.00000000000E+00 0. -1.
</event>
<event>
 8    1  0.2882335E-009  0.9118800E+02  0.7816164E-02  0.1184000E+00
        -11   -1    0    0    0    0  0.00000000000E+00  0.00000000000E+00  0.45593999997E+02  0.45594000000E+02  0.51100000000E-03 0. -1.
         11   -1    0    0    0    0 -0.00000000000E+00 -0.00000000000E+00 -0.45593999997E+02  0.45594000000E+02  0.51100000000E-03 0.  1.
         23    2    1    2    0    0  0.00000000000E+00  0.71054273576E-14  0.00000000000E+00  0.91188000000E+02  0.91188000000E+02 0.  0.
    9900012    2    3    3    0    0 -0.17247579300E+02 -0.33912711423E+02 -0.24115608541E+02  0.46142316931E+02  0.99999924339E+01 0.  0.
         12    1    3    3    0    0  0.17247579300E+02  0.33912711423E+02  0.24115608541E+02  0.45045683069E+02  0.00000000000E+00 0. -1.
         11    1    4    4    0    0 -0.36740954910E+01 -0.28990221749E+01 -0.13260056261E+01  0.48643189070E+01  0.51100000000E-03 0. -1.
        -11    1    4    4    0    0 -0.14164718386E+02 -0.30518314292E+02 -0.22271024457E+02  0.40348547493E+02  0.51100000000E-03 0.  1.
        -12    1    4    4    0    0  0.59123457704E+00 -0.49537495669E+00 -0.51857845845E+00  0.92945053143E+00  0.00000000000E+00 0.  1.
</event>
<event>
 8    1  0.2882335E-009  0.9118800E+02  0.7816164E-02  0.1184000E+00
        -11   -1    0    0    0    0  0.00000000000E+00  0.00000000000E+00  0.45593999997E+02  0.45594000000E+02  0.51100000000E-03 0. -1.
         11   -1    0    0    0    0 -0.00000000000E+00 -0.00000000000E+00 -0.45593999997E+02  0.45594000000E+02  0.51100000000E-03 0.  1.
         23    2    1    2    0    0  0.00000000000E+00 -0.35527136788E-14  0.00000000000E+00  0.91188000000E+02  0.91188000000E+02 0.  0.
    9900012    2    3    3    0    0  0.22016392378E+02  0.26037396263E+02  0.29435453271E+02  0.46142318223E+02  0.10000004210E+02 0.  0.
        -12    1    3    3    0    0 -0.22016392378E+02 -0.26037396263E+02 -0.29435453271E+02  0.45045681777E+02  0.00000000000E+00 0.  1.
         11    1    4    4    0    0  0.60911839167E+00  0.17732656322E+01 -0.55782263075E+00  0.19561857186E+01  0.51100000000E-03 0.  1.
        -11    1    4    4    0    0  0.16026179140E+02  0.18526929545E+02  0.24032560507E+02  0.34316898185E+02  0.51100000000E-03 0. -1.
        -12    1    4    4    0    0  0.53810948464E+01  0.57372010853E+01  0.59607153945E+01  0.98692343195E+01  0.00000000000E+00 0.  1.
</event>
<event>
 8    1  0.2882335E-009  0.9118800E+02  0.7816164E-02  0.1184000E+00
        -11   -1    0    0    0    0  0.00000000000E+00  0.00000000000E+00  0.45593999997E+02  0.45594000000E+02  0.51100000000E-03 0. -1.
         11   -1    0    0    0    0 -0.00000000000E+00 -0.00000000000E+00 -0.45593999997E+02  0.45594000000E+02  0.51100000000E-03 0.  1.
         23    2    1    2    0    0  0.00000000000E+00  0.00000000000E+00 -0.71054273576E-14  0.91188000000E+02  0.91188000000E+02 0.  0.
    9900012    2    3    3    0    0 -0.14865991942E+02 -0.17215022608E+02 -0.38881341637E+02  0.46142318217E+02  0.10000004156E+02 0.  0.
         12    1    3    3    0    0  0.14865991942E+02  0.17215022608E+02  0.38881341637E+02  0.45045681783E+02  0.00000000000E+00 0. -1.
         11    1    4    4    0    0 -0.49185925706E+01 -0.39171337104E+01 -0.14667804849E+02  0.15958727667E+02  0.51100000000E-03 0. -1.
        -11    1    4    4    0    0 -0.62870925698E+01 -0.75923645628E+01 -0.19732356382E+02  0.22057593279E+02  0.51100000000E-03 0.  1.
         12    1    4    4    0    0 -0.36603068021E+01 -0.57055243348E+01 -0.44811804060E+01  0.81259972712E+01  0.00000000000E+00 0. -1.
</event>
<event>
 8    1  0.2882335E-009  0.9118800E+02  0.7816164E-02  0.1184000E+00
        -11   -1    0    0    0    0  0.00000000000E+00  0.00000000000E+00  0.45593999997E+02  0.45594000000E+02  0.51100000000E-03 0. -1.
         11   -1    0    0    0    0 -0.00000000000E+00 -0.00000000000E+00 -0.45593999997E+02  0.45594000000E+02  0.51100000000E-03 0.  1.
         23    2    1    2    0    0  0.35527136788E-14  0.00000000000E+00  0.00000000000E+00  0.91188000000E+02  0.91188000000E+02 0.  0.
    9900012    2    3    3    0    0  0.28531157150E+02  0.19152946313E+01 -0.34805433284E+02  0.46142317988E+02  0.10000002069E+02 0.  0.
         12    1    3    3    0    0 -0.28531157150E+02 -0.19152946313E+01  0.34805433284E+02  0.45045682012E+02  0.00000000000E+00 0. -1.
         11    1    4    4    0    0  0.19314164291E+01  0.20316605624E+01 -0.13550017769E+01  0.31135259979E+01  0.51100000000E-03 0. -1.
        -11    1    4    4    0    0  0.26473199421E+02  0.45747232369E+00 -0.32771516149E+02  0.42130889375E+02  0.51100000000E-03 0.  1.
        -12    1    4    4    0    0  0.12654129920E+00 -0.57383825472E+00 -0.67891535839E+00  0.89790261545E+00  0.00000000000E+00 0.  1.
</event>
<event>
 8    1  0.3563200E-009  0.9118800E+02  0.7816164E-02  0.1184000E+00
        -11   -1    0    0    0    0  0.00000000000E+00  0.00000000000E+00  0.45593999997E+02  0.45594000000E+02  0.51100000000E-03 0.  1.
         11   -1    0    0    0    0 -0.00000000000E+00 -0.00000000000E+00 -0.45593999997E+02  0.45594000000E+02  0.51100000000E-03 0. -1.
         23    2    1    2    0    0  0.00000000000E+00  0.00000000000E+00  0.00000000000E+00  0.91188000000E+02  0.91188000000E+02 0.  0.
    9900012    2    3    3    0    0 -0.92709613980E+01  0.42926500706E+02 -0.10023880935E+02  0.46142318996E+02  0.10000011260E+02 0.  0.
         12    1    3    3    0    0  0.92709613980E+01 -0.42926500706E+02  0.10023880935E+02  0.45045681004E+02  0.00000000000E+00 0. -1.
         11    1    4    4    0    0 -0.37216384737E+01  0.87401412294E+01 -0.42549574134E+01  0.10408906018E+02  0.51100000000E-03 0. -1.
        -11    1    4    4    0    0  0.40272239173E+00  0.16387446165E+02 -0.13192661009E+01  0.16445395721E+02  0.51100000000E-03 0.  1.
        -12    1    4    4    0    0 -0.59520453160E+01  0.17798913312E+02 -0.44496574207E+01  0.19288017257E+02  0.00000000000E+00 0.  1.
</event>
<event>
 8    1  0.2882335E-009  0.9118800E+02  0.7816164E-02  0.1184000E+00
        -11   -1    0    0    0    0  0.00000000000E+00  0.00000000000E+00  0.45593999997E+02  0.45594000000E+02  0.51100000000E-03 0. -1.
         11   -1    0    0    0    0 -0.00000000000E+00 -0.00000000000E+00 -0.45593999997E+02  0.45594000000E+02  0.51100000000E-03 0.  1.
         23    2    1    2    0    0 -0.17763568394E-14  0.00000000000E+00  0.35527136788E-14  0.91188000000E+02  0.91188000000E+02 0.  0.
    9900012    2    3    3    0    0 -0.97175897682E+01  0.34316901833E+02 -0.27514217897E+02  0.46142317756E+02  0.99999999566E+01 0.  0.
         12    1    3    3    0    0  0.97175897682E+01 -0.34316901833E+02  0.27514217897E+02  0.45045682244E+02  0.00000000000E+00 0. -1.
         11    1    4    4    0    0 -0.93132320318E+01  0.23328862752E+02 -0.15445170176E+02  0.29487716260E+02  0.51100000000E-03 0. -1.
        -11    1    4    4    0    0 -0.18848837331E+00  0.11153664312E+02 -0.11977177653E+02  0.16367423140E+02  0.51100000000E-03 0.  1.
         12    1    4    4    0    0 -0.21586936306E+00 -0.16562523118E+00 -0.91870067742E-01  0.28717835653E+00  0.00000000000E+00 0. -1.
</event>
<event>
 8    1  0.2882335E-009  0.9118800E+02  0.7816164E-02  0.1184000E+00
        -11   -1    0    0    0    0  0.00000000000E+00  0.00000000000E+00  0.45593999997E+02  0.45594000000E+02  0.51100000000E-03 0. -1.
         11   -1    0    0    0    0 -0.00000000000E+00 -0.00000000000E+00 -0.45593999997E+02  0.45594000000E+02  0.51100000000E-03 0.  1.
         23    2    1    2    0    0  0.00000000000E+00  0.13877787808E-15  0.71054273576E-14  0.91188000000E+02  0.91188000000E+02 0.  0.
    9900012    2    3    3    0    0  0.15625277110E+02 -0.24722494313E+00 -0.42248111815E+02  0.46142319221E+02  0.10000013310E+02 0.  0.
         12    1    3    3    0    0 -0.15625277110E+02  0.24722494313E+00  0.42248111815E+02  0.45045680779E+02  0.00000000000E+00 0. -1.
         11    1    4    4    0    0  0.69037332195E+01 -0.26039540338E+01 -0.11779139488E+02  0.13899289058E+02  0.51100000000E-03 0. -1.
        -11    1    4    4    0    0  0.53722771304E+01  0.40780290713E+01 -0.20821273642E+02  0.21886459718E+02  0.51100000000E-03 0.  1.
        -12    1    4    4    0    0  0.33492667602E+01 -0.17212999806E+01 -0.96476986850E+01  0.10356570444E+02  0.00000000000E+00 0.  1.
</event>
<event>
 8    1  0.2882335E-009  0.9118800E+02  0.7816164E-02  0.1184000E+00
        -11   -1    0    0    0    0  0.00000000000E+00  0.00000000000E+00  0.45593999997E+02  0.45594000000E+02  0.51100000000E-03 0. -1.
         11   -1    0    0    0    0 -0.00000000000E+00 -0.00000000000E+00 -0.45593999997E+02  0.45594000000E+02  0.51100000000E-03 0.  1.
         23    2    1    2    0    0  0.00000000000E+00  0.00000000000E+00  0.00000000000E+00  0.91188000000E+02  0.91188000000E+02 0.  0.
    9900012    2    3    3    0    0  0.28542356083E+02  0.41604339572E+01  0.34599685407E+02  0.46142317280E+02  0.99999956091E+01 0.  0.
        -12    1    3    3    0    0 -0.28542356083E+02 -0.41604339572E+01 -0.34599685407E+02  0.45045682720E+02  0.00000000000E+00 0.  1.
         11    1    4    4    0    0  0.24026314120E+02  0.19712370737E+01  0.23868281033E+02  0.33924097416E+02  0.51100000000E-03 0. -1.
        -11    1    4    4    0    0  0.98214758831E+00  0.19960776503E+01  0.51412815895E+01  0.56019386389E+01  0.51100000000E-03 0.  1.
        -12    1    4    4    0    0  0.35338943746E+01  0.19311923322E+00  0.55901227848E+01  0.66162812242E+01  0.00000000000E+00 0.  1.
</event>
<event>
 8    1  0.2882335E-009  0.9118800E+02  0.7816164E-02  0.1184000E+00
        -11   -1    0    0    0    0  0.00000000000E+00  0.00000000000E+00  0.45593999997E+02  0.45594000000E+02  0.51100000000E-03 0. -1.
         11   -1    0    0    0    0 -0.00000000000E+00 -0.00000000000E+00 -0.45593999997E+02  0.45594000000E+02  0.51100000000E-03 0.  1.
         23    2    1    2    0    0  0.00000000000E+00 -0.35527136788E-14  0.00000000000E+00  0.91188000000E+02  0.91188000000E+02 0.  0.
    9900012    2    3    3    0    0 -0.19721801942E+02 -0.22788591171E+02 -0.33479009442E+02  0.46142318380E+02  0.10000005646E+02 0.  0.
         12    1    3    3    0    0  0.19721801942E+02  0.22788591171E+02  0.33479009442E+02  0.45045681620E+02  0.00000000000E+00 0. -1.
         11    1    4    4    0    0 -0.38194697671E+01 -0.40463574091E+01 -0.12421410497E+02  0.13610760324E+02  0.51100000000E-03 0. -1.
        -11    1    4    4    0    0 -0.11782790744E+02 -0.15238659696E+02 -0.17740720523E+02  0.26187479298E+02  0.51100000000E-03 0.  1.
        -12    1    4    4    0    0 -0.41195414300E+01 -0.35035740663E+01 -0.33168784216E+01  0.63440787586E+01  0.00000000000E+00 0.  1.
</event>
<event>
 8    1  0.2882335E-009  0.9118800E+02  0.7816164E-02  0.1184000E+00
        -11   -1    0    0    0    0  0.00000000000E+00  0.00000000000E+00  0.45593999997E+02  0.45594000000E+02  0.51100000000E-03 0. -1.
         11   -1    0    0    0    0 -0.00000000000E+00 -0.00000000000E+00 -0.45593999997E+02  0.45594000000E+02  0.51100000000E-03 0.  1.
         23    2    1    2    0    0  0.00000000000E+00  0.00000000000E+00  0.00000000000E+00  0.91188000000E+02  0.91188000000E+02 0.  0.
    9900012    2    3    3    0    0 -0.34070171627E+02 -0.13784396403E+02 -0.26044717519E+02  0.46142317748E+02  0.99999998818E+01 0.  0.
         12    1    3    3    0    0  0.34070171627E+02  0.13784396403E+02  0.26044717519E+02  0.45045682252E+02  0.00000000000E+00 0. -1.
         11    1    4    4    0    0 -0.46769804972E+01 -0.28392162955E+01 -0.39001441009E+00  0.54851989248E+01  0.51100000000E-03 0. -1.
        -11    1    4    4    0    0 -0.45265623626E+01 -0.74925671856E+00 -0.47908244892E+01  0.66334871674E+01  0.51100000000E-03 0.  1.
         12    1    4    4    0    0 -0.24866628767E+02 -0.10195923389E+02 -0.20863878619E+02  0.34023631656E+02  0.00000000000E+00 0. -1.
</event>
<event>
 8    1  0.2882335E-009  0.9118800E+02  0.7816164E-02  0.1184000E+00
        -11   -1    0    0    0    0  0.00000000000E+00  0.00000000000E+00  0.45593999997E+02  0.45594000000E+02  0.51100000000E-03 0. -1.
         11   -1    0    0    0    0 -0.00000000000E+00 -0.00000000000E+00 -0.45593999997E+02  0.45594000000E+02  0.51100000000E-03 0.  1.
         23    2    1    2    0    0 -0.71054273576E-14  0.35527136788E-14  0.00000000000E+00  0.91188000000E+02  0.91188000000E+02 0.  0.
    9900012    2    3    3    0    0  0.32745539784E+02  0.26944842439E+02  0.15192719934E+02  0.46142315980E+02  0.99999837590E+01 0.  0.
        -12    1    3    3    0    0 -0.32745539784E+02 -0.26944842439E+02 -0.15192719934E+02  0.45045684020E+02  0.00000000000E+00 0.  1.
         11    1    4    4    0    0  0.48763782875E+01  0.51208651324E+01 -0.33156582950E+00  0.70790014174E+01  0.51100000000E-03 0. -1.
        -11    1    4    4    0    0  0.25649381243E+02  0.18245568452E+02  0.12450273696E+02  0.33849680082E+02  0.51100000000E-03 0.  1.
        -12    1    4    4    0    0  0.22197802539E+01  0.35784088542E+01  0.30740120683E+01  0.52136344808E+01  0.00000000000E+00 0.  1.
</event>
<event>
 8    1  0.2882335E-009  0.9118800E+02  0.7816164E-02  0.1184000E+00
        -11   -1    0    0    0    0  0.00000000000E+00  0.00000000000E+00  0.45593999997E+02  0.45594000000E+02  0.51100000000E-03 0. -1.
         11   -1    0    0    0    0 -0.00000000000E+00 -0.00000000000E+00 -0.45593999997E+02  0.45594000000E+02  0.51100000000E-03 0.  1.
         23    2    1    2    0    0  0.00000000000E+00 -0.17763568394E-14  0.00000000000E+00  0.91188000000E+02  0.91188000000E+02 0.  0.
    9900012    2    3    3    0    0 -0.17625368825E+01  0.86443116121E+01  0.44173325025E+02  0.46142319815E+02  0.10000018730E+02 0.  0.
        -12    1    3    3    0    0  0.17625368825E+01 -0.86443116121E+01 -0.44173325025E+02  0.45045680185E+02  0.00000000000E+00 0.  1.
         11    1    4    4    0    0 -0.33201862658E+01  0.47656688593E+01  0.10337343894E+02  0.11857314854E+02  0.51100000000E-03 0.  1.
        -11    1    4    4    0    0  0.63177328517E+00  0.61379983624E+00  0.20668054232E+02  0.20686815939E+02  0.51100000000E-03 0. -1.
         12    1    4    4    0    0  0.92587609805E+00  0.32648429166E+01  0.13167926900E+02  0.13598189021E+02  0.00000000000E+00 0. -1.
</event>
<event>
 8    1  0.2882335E-009  0.9118800E+02  0.7816164E-02  0.1184000E+00
        -11   -1    0    0    0    0  0.00000000000E+00  0.00000000000E+00  0.45593999997E+02  0.45594000000E+02  0.51100000000E-03 0. -1.
         11   -1    0    0    0    0 -0.00000000000E+00 -0.00000000000E+00 -0.45593999997E+02  0.45594000000E+02  0.51100000000E-03 0.  1.
         23    2    1    2    0    0  0.00000000000E+00  0.00000000000E+00  0.35527136788E-14  0.91188000000E+02  0.91188000000E+02 0.  0.
    9900012    2    3    3    0    0 -0.38398103473E+02  0.96145823572E+01 -0.21500206582E+02  0.46142318439E+02  0.10000006178E+02 0.  0.
         12    1    3    3    0    0  0.38398103473E+02 -0.96145823572E+01  0.21500206582E+02  0.45045681561E+02  0.00000000000E+00 0. -1.
         11    1    4    4    0    0 -0.10283842665E+02  0.66373329705E+01 -0.45511363223E+01  0.13058501101E+02  0.51100000000E-03 0. -1.
        -11    1    4    4    0    0 -0.15933173293E+02  0.23261555498E+01 -0.81814749491E+01  0.18061382656E+02  0.51100000000E-03 0.  1.
         12    1    4    4    0    0 -0.12181087515E+02  0.65109383698E+00 -0.87675953110E+01  0.15022434682E+02  0.00000000000E+00 0. -1.
</event>
<event>
 8    1  0.2882335E-009  0.9118800E+02  0.7816164E-02  0.1184000E+00
        -11   -1    0    0    0    0  0.00000000000E+00  0.00000000000E+00  0.45593999997E+02  0.45594000000E+02  0.51100000000E-03 0. -1.
         11   -1    0    0    0    0 -0.00000000000E+00 -0.00000000000E+00 -0.45593999997E+02  0.45594000000E+02  0.51100000000E-03 0.  1.
         23    2    1    2    0    0 -0.35527136788E-14  0.14210854715E-13  0.00000000000E+00  0.91188000000E+02  0.91188000000E+02 0.  0.
    9900012    2    3    3    0    0 -0.18185658445E+02  0.40356465997E+02  0.83517044557E+01  0.46142317763E+02  0.10000000021E+02 0.  0.
        -12    1    3    3    0    0  0.18185658445E+02 -0.40356465997E+02 -0.83517044557E+01  0.45045682237E+02  0.00000000000E+00 0.  1.
         11    1    4    4    0    0 -0.61629095821E+01  0.52286550330E+01  0.27562345828E+01  0.85391520251E+01  0.51100000000E-03 0. -1.
        -11    1    4    4    0    0 -0.10114914763E+02  0.29015577051E+02  0.53869589600E+01  0.31196707188E+02  0.51100000000E-03 0.  1.
         12    1    4    4    0    0 -0.19078341001E+01  0.61122339132E+01  0.20851091285E+00  0.64064585508E+01  0.00000000000E+00 0. -1.
</event>
<event>
 8    1  0.2882335E-009  0.9118800E+02  0.7816164E-02  0.1184000E+00
        -11   -1    0    0    0    0  0.00000000000E+00  0.00000000000E+00  0.45593999997E+02  0.45594000000E+02  0.51100000000E-03 0. -1.
         11   -1    0    0    0    0 -0.00000000000E+00 -0.00000000000E+00 -0.45593999997E+02  0.45594000000E+02  0.51100000000E-03 0.  1.
         23    2    1    2    0    0  0.35527136788E-14 -0.88817841970E-15  0.71054273576E-14  0.91188000000E+02  0.91188000000E+02 0.  0.
    9900012    2    3    3    0    0 -0.27423998000E+02  0.39516628047E+01 -0.35516505034E+02  0.46142318353E+02  0.10000005394E+02 0.  0.
         12    1    3    3    0    0  0.27423998000E+02 -0.39516628047E+01  0.35516505034E+02  0.45045681647E+02  0.00000000000E+00 0. -1.
         11    1    4    4    0    0 -0.84382966651E+00  0.11758256709E+01 -0.83647533207E+00  0.16716177065E+01  0.51100000000E-03 0. -1.
        -11    1    4    4    0    0 -0.67972365491E+01 -0.24102574260E+01 -0.69588570323E+01  0.10021848982E+02  0.51100000000E-03 0.  1.
        -12    1    4    4    0    0 -0.19782931785E+02  0.51860945598E+01 -0.27721172670E+02  0.34448851664E+02  0.00000000000E+00 0.  1.
</event>
<event>
 8    1  0.2882335E-009  0.9118800E+02  0.7816164E-02  0.1184000E+00
        -11   -1    0    0    0    0  0.00000000000E+00  0.00000000000E+00  0.45593999997E+02  0.45594000000E+02  0.51100000000E-03 0. -1.
         11   -1    0    0    0    0 -0.00000000000E+00 -0.00000000000E+00 -0.45593999997E+02  0.45594000000E+02  0.51100000000E-03 0.  1.
         23    2    1    2    0    0 -0.71054273576E-14  0.00000000000E+00  0.00000000000E+00  0.91188000000E+02  0.91188000000E+02 0.  0.
    9900012    2    3    3    0    0  0.34976153247E+02 -0.17828620459E+02  0.22088968973E+02  0.46142317036E+02  0.99999933860E+01 0.  0.
        -12    1    3    3    0    0 -0.34976153247E+02  0.17828620459E+02 -0.22088968973E+02  0.45045682964E+02  0.00000000000E+00 0.  1.
         11    1    4    4    0    0  0.99526420002E+01 -0.40288711846E+01  0.95278380770E+01  0.14355019488E+02  0.51100000000E-03 0.  1.
        -11    1    4    4    0    0  0.17024348322E+02 -0.93929691996E+01  0.53937800614E+01  0.20177937699E+02  0.51100000000E-03 0. -1.
         12    1    4    4    0    0  0.79991629250E+01 -0.44067800747E+01  0.71673508343E+01  0.11609359849E+02  0.00000000000E+00 0. -1.
</event>
<event>
 8    1  0.2882335E-009  0.9118800E+02  0.7816164E-02  0.1184000E+00
        -11   -1    0    0    0    0  0.00000000000E+00  0.00000000000E+00  0.45593999997E+02  0.45594000000E+02  0.51100000000E-03 0. -1.
         11   -1    0    0    0    0 -0.00000000000E+00 -0.00000000000E+00 -0.45593999997E+02  0.45594000000E+02  0.51100000000E-03 0.  1.
         23    2    1    2    0    0  0.00000000000E+00  0.00000000000E+00  0.00000000000E+00  0.91188000000E+02  0.91188000000E+02 0.  0.
    9900012    2    3    3    0    0  0.94108330989E+01  0.13774394982E+02  0.41842749640E+02  0.46142318362E+02  0.10000005483E+02 0.  0.
        -12    1    3    3    0    0 -0.94108330989E+01 -0.13774394982E+02 -0.41842749640E+02  0.45045681638E+02  0.00000000000E+00 0.  1.
         11    1    4    4    0    0  0.62385281591E+01  0.54159551228E+01  0.13667183626E+02  0.15970088040E+02  0.51100000000E-03 0. -1.
        -11    1    4    4    0    0  0.44346784929E+01  0.52579268467E+01  0.23015663942E+02  0.24021510256E+02  0.51100000000E-03 0.  1.
        -12    1    4    4    0    0 -0.12623735531E+01  0.31005130128E+01  0.51599020729E+01  0.61507200662E+01  0.00000000000E+00 0.  1.
</event>
<event>
 8    1  0.2882335E-009  0.9118800E+02  0.7816164E-02  0.1184000E+00
        -11   -1    0    0    0    0  0.00000000000E+00  0.00000000000E+00  0.45593999997E+02  0.45594000000E+02  0.51100000000E-03 0. -1.
         11   -1    0    0    0    0 -0.00000000000E+00 -0.00000000000E+00 -0.45593999997E+02  0.45594000000E+02  0.51100000000E-03 0.  1.
         23    2    1    2    0    0 -0.17763568394E-14  0.00000000000E+00  0.00000000000E+00  0.91188000000E+02  0.91188000000E+02 0.  0.
    9900012    2    3    3    0    0  0.13295713930E+02  0.23451034245E+02  0.36088578343E+02  0.46142328700E+02  0.10000099750E+02 0.  0.
        -12    1    3    3    0    0 -0.13295713930E+02 -0.23451034245E+02 -0.36088578343E+02  0.45045671300E+02  0.00000000000E+00 0.  1.
         11    1    4    4    0    0  0.46236150400E+01  0.79640938873E+01  0.18356010152E+02  0.20536497181E+02  0.51100000000E-03 0. -1.
        -11    1    4    4    0    0  0.58546199218E+01  0.55989651183E+01  0.65745502072E+01  0.10433105746E+02  0.51100000000E-03 0.  1.
         12    1    4    4    0    0  0.28174789681E+01  0.98879752396E+01  0.11158017983E+02  0.15172725773E+02  0.00000000000E+00 0. -1.
</event>
<event>
 8    1  0.2882335E-009  0.9118800E+02  0.7816164E-02  0.1184000E+00
        -11   -1    0    0    0    0  0.00000000000E+00  0.00000000000E+00  0.45593999997E+02  0.45594000000E+02  0.51100000000E-03 0. -1.
         11   -1    0    0    0    0 -0.00000000000E+00 -0.00000000000E+00 -0.45593999997E+02  0.45594000000E+02  0.51100000000E-03 0.  1.
         23    2    1    2    0    0  0.00000000000E+00  0.00000000000E+00 -0.35527136788E-14  0.91188000000E+02  0.91188000000E+02 0.  0.
    9900012    2    3    3    0    0 -0.39491983546E+02 -0.88395618040E+01  0.19782791844E+02  0.46142317960E+02  0.10000001816E+02 0.  0.
        -12    1    3    3    0    0  0.39491983546E+02  0.88395618040E+01 -0.19782791844E+02  0.45045682040E+02  0.00000000000E+00 0.  1.
         11    1    4    4    0    0 -0.19399316920E+02 -0.40266899493E+01  0.78908353072E+01  0.21326345468E+02  0.51100000000E-03 0. -1.
        -11    1    4    4    0    0 -0.13609233512E+02 -0.53316223506E+01  0.10907751726E+02  0.18237776225E+02  0.51100000000E-03 0.  1.
        -12    1    4    4    0    0 -0.64834331137E+01  0.51875049589E+00  0.98420481135E+00  0.65781962670E+01  0.00000000000E+00 0.  1.
</event>
<event>
 8    1  0.2882335E-009  0.9118800E+02  0.7816164E-02  0.1184000E+00
        -11   -1    0    0    0    0  0.00000000000E+00  0.00000000000E+00  0.45593999997E+02  0.45594000000E+02  0.51100000000E-03 0. -1.
         11   -1    0    0    0    0 -0.00000000000E+00 -0.00000000000E+00 -0.45593999997E+02  0.45594000000E+02  0.51100000000E-03 0.  1.
         23    2    1    2    0    0  0.00000000000E+00  0.00000000000E+00  0.00000000000E+00  0.91188000000E+02  0.91188000000E+02 0.  0.
    9900012    2    3    3    0    0 -0.32675558893E+02  0.16756676552E+02 -0.26088986060E+02  0.46142317058E+02  0.99999935929E+01 0.  0.
         12    1    3    3    0    0  0.32675558893E+02 -0.16756676552E+02  0.26088986060E+02  0.45045682942E+02  0.00000000000E+00 0. -1.
         11    1    4    4    0    0 -0.64935280015E+01  0.65483324409E+01 -0.96503826681E+01  0.13348275153E+02  0.51100000000E-03 0. -1.
        -11    1    4    4    0    0 -0.10782486383E+02  0.38274690789E+01 -0.45194769427E+01  0.12301918722E+02  0.51100000000E-03 0.  1.
         12    1    4    4    0    0 -0.15399544508E+02  0.63808750318E+01 -0.11919126450E+02  0.20492123183E+02  0.00000000000E+00 0. -1.
</event>
<event>
 8    1  0.2882335E-009  0.9118800E+02  0.7816164E-02  0.1184000E+00
        -11   -1    0    0    0    0  0.00000000000E+00  0.00000000000E+00  0.45593999997E+02  0.45594000000E+02  0.51100000000E-03 0. -1.
         11   -1    0    0    0    0 -0.00000000000E+00 -0.00000000000E+00 -0.45593999997E+02  0.45594000000E+02  0.51100000000E-03 0.  1.
         23    2    1    2    0    0  0.35527136788E-14  0.00000000000E+00 -0.35527136788E-14  0.91188000000E+02  0.91188000000E+02 0.  0.
    9900012    2    3    3    0    0  0.20941653208E+02 -0.26546093494E+02 -0.29763494121E+02  0.46142317619E+02  0.99999987017E+01 0.  0.
         12    1    3    3    0    0 -0.20941653208E+02  0.26546093494E+02  0.29763494121E+02  0.45045682381E+02  0.00000000000E+00 0. -1.
         11    1    4    4    0    0 -0.62977608942E+00 -0.84966004757E+00  0.23135754435E+00  0.10826202906E+01  0.51100000000E-03 0. -1.
        -11    1    4    4    0    0  0.14049975090E+02 -0.17294485388E+02 -0.18556936140E+02  0.28997601694E+02  0.51100000000E-03 0.  1.
        -12    1    4    4    0    0  0.75214542075E+01 -0.84019480592E+01 -0.11437915526E+02  0.16062095634E+02  0.00000000000E+00 0.  1.
</event>
<event>
 8    1  0.2882335E-009  0.9118800E+02  0.7816164E-02  0.1184000E+00
        -11   -1    0    0    0    0  0.00000000000E+00  0.00000000000E+00  0.45593999997E+02  0.45594000000E+02  0.51100000000E-03 0. -1.
         11   -1    0    0    0    0 -0.00000000000E+00 -0.00000000000E+00 -0.45593999997E+02  0.45594000000E+02  0.51100000000E-03 0.  1.
         23    2    1    2    0    0  0.00000000000E+00  0.00000000000E+00 -0.35527136788E-14  0.91188000000E+02  0.91188000000E+02 0.  0.
    9900012    2    3    3    0    0 -0.29986076327E+02 -0.15828494864E+02  0.29654804824E+02  0.46142317940E+02  0.10000001628E+02 0.  0.
        -12    1    3    3    0    0  0.29986076327E+02  0.15828494864E+02 -0.29654804824E+02  0.45045682060E+02  0.00000000000E+00 0.  1.
         11    1    4    4    0    0  0.21469857794E+00 -0.10244421398E+01  0.12846607911E+00  0.10545524984E+01  0.51100000000E-03 0.  1.
        -11    1    4    4    0    0 -0.21943032500E+02 -0.10210555842E+02  0.24268606094E+02  0.34274150141E+02  0.51100000000E-03 0. -1.
         12    1    4    4    0    0 -0.82577424049E+01 -0.45934968822E+01  0.52577326514E+01  0.10813615300E+02  0.00000000000E+00 0. -1.
</event>
<event>
 8    1  0.2882335E-009  0.9118800E+02  0.7816164E-02  0.1184000E+00
        -11   -1    0    0    0    0  0.00000000000E+00  0.00000000000E+00  0.45593999997E+02  0.45594000000E+02  0.51100000000E-03 0. -1.
         11   -1    0    0    0    0 -0.00000000000E+00 -0.00000000000E+00 -0.45593999997E+02  0.45594000000E+02  0.51100000000E-03 0.  1.
         23    2    1    2    0    0 -0.71054273576E-14  0.00000000000E+00  0.00000000000E+00  0.91188000000E+02  0.91188000000E+02 0.  0.
    9900012    2    3    3    0    0 -0.39497073942E+02  0.26427287974E+01  0.21496760036E+02  0.46142316993E+02  0.99999929963E+01 0.  0.
        -12    1    3    3    0    0  0.39497073942E+02 -0.26427287974E+01 -0.21496760036E+02  0.45045683007E+02  0.00000000000E+00 0.  1.
         11    1    4    4    0    0 -0.76437132472E+01  0.15088134387E+01  0.68287837616E+00  0.78210736690E+01  0.51100000000E-03 0. -1.
        -11    1    4    4    0    0 -0.14315644236E+02  0.10207382738E+01  0.68490677974E+01  0.15902493719E+02  0.51100000000E-03 0.  1.
         12    1    4    4    0    0 -0.17537716459E+02  0.11317708489E+00  0.13964813862E+02  0.22418749605E+02  0.00000000000E+00 0. -1.
</event>
<event>
 8    1  0.2882335E-009  0.9118800E+02  0.7816164E-02  0.1184000E+00
        -11   -1    0    0    0    0  0.00000000000E+00  0.00000000000E+00  0.45593999997E+02  0.45594000000E+02  0.51100000000E-03 0. -1.
         11   -1    0    0    0    0 -0.00000000000E+00 -0.00000000000E+00 -0.45593999997E+02  0.45594000000E+02  0.51100000000E-03 0.  1.
         23    2    1    2    0    0  0.35527136788E-14 -0.35527136788E-14 -0.35527136788E-14  0.91188000000E+02  0.91188000000E+02 0.  0.
    9900012    2    3    3    0    0 -0.30354418119E+02 -0.22743343168E+02 -0.24299448207E+02  0.46142317177E+02  0.99999946752E+01 0.  0.
         12    1    3    3    0    0  0.30354418119E+02  0.22743343168E+02  0.24299448207E+02  0.45045682823E+02  0.00000000000E+00 0. -1.
         11    1    4    4    0    0 -0.22638680126E+02 -0.14699033749E+02 -0.20747266334E+02  0.34044390016E+02  0.51100000000E-03 0. -1.
        -11    1    4    4    0    0 -0.63407137167E+01 -0.54573980827E+01 -0.37367314964E+01  0.91624782022E+01  0.51100000000E-03 0.  1.
         12    1    4    4    0    0 -0.13750242767E+01 -0.25869113370E+01  0.18454962329E+00  0.29354489589E+01  0.00000000000E+00 0. -1.
</event>
<event>
 8    1  0.2882335E-009  0.9118800E+02  0.7816164E-02  0.1184000E+00
        -11   -1    0    0    0    0  0.00000000000E+00  0.00000000000E+00  0.45593999997E+02  0.45594000000E+02  0.51100000000E-03 0. -1.
         11   -1    0    0    0    0 -0.00000000000E+00 -0.00000000000E+00 -0.45593999997E+02  0.45594000000E+02  0.51100000000E-03 0.  1.
         23    2    1    2    0    0  0.88817841970E-15 -0.35527136788E-14 -0.71054273576E-14  0.91188000000E+02  0.91188000000E+02 0.  0.
    9900012    2    3    3    0    0  0.51900591545E+01 -0.22676426839E+02 -0.38574037648E+02  0.46142318423E+02  0.10000006039E+02 0.  0.
         12    1    3    3    0    0 -0.51900591545E+01  0.22676426839E+02  0.38574037648E+02  0.45045681577E+02  0.00000000000E+00 0. -1.
         11    1    4    4    0    0 -0.99116508124E+00 -0.14349199189E+01 -0.53701982281E+01  0.56462759995E+01  0.51100000000E-03 0. -1.
        -11    1    4    4    0    0 -0.97363922989E+00 -0.62094251944E+01 -0.66112545196E+01  0.91221500305E+01  0.51100000000E-03 0.  1.
        -12    1    4    4    0    0  0.71548634657E+01 -0.15032081726E+02 -0.26592584900E+02  0.31373892393E+02  0.00000000000E+00 0.  1.
</event>
<event>
 8    1  0.2882335E-009  0.9118800E+02  0.7816164E-02  0.1184000E+00
        -11   -1    0    0    0    0  0.00000000000E+00  0.00000000000E+00  0.45593999997E+02  0.45594000000E+02  0.51100000000E-03 0. -1.
         11   -1    0    0    0    0 -0.00000000000E+00 -0.00000000000E+00 -0.45593999997E+02  0.45594000000E+02  0.51100000000E-03 0.  1.
         23    2    1    2    0    0  0.00000000000E+00  0.00000000000E+00 -0.88817841970E-15  0.91188000000E+02  0.91188000000E+02 0.  0.
    9900012    2    3    3    0    0 -0.84440570059E+01  0.43616040705E+02  0.74466384593E+01  0.46142317301E+02  0.99999958057E+01 0.  0.
        -12    1    3    3    0    0  0.84440570059E+01 -0.43616040705E+02 -0.74466384593E+01  0.45045682699E+02  0.00000000000E+00 0.  1.
         11    1    4    4    0    0 -0.31421086222E+01  0.31378381486E+02  0.48177860780E+01  0.31901202708E+02  0.51100000000E-03 0. -1.
        -11    1    4    4    0    0 -0.52046743665E+01  0.83152868053E+01  0.61041623262E+00  0.98287963736E+01  0.51100000000E-03 0.  1.
        -12    1    4    4    0    0 -0.97274017285E-01  0.39223724132E+01  0.20184361487E+01  0.44123182193E+01  0.00000000000E+00 0.  1.
</event>
<event>
 8    1  0.2882335E-009  0.9118800E+02  0.7816164E-02  0.1184000E+00
        -11   -1    0    0    0    0  0.00000000000E+00  0.00000000000E+00  0.45593999997E+02  0.45594000000E+02  0.51100000000E-03 0. -1.
         11   -1    0    0    0    0 -0.00000000000E+00 -0.00000000000E+00 -0.45593999997E+02  0.45594000000E+02  0.51100000000E-03 0.  1.
         23    2    1    2    0    0  0.00000000000E+00  0.17763568394E-14  0.00000000000E+00  0.91188000000E+02  0.91188000000E+02 0.  0.
    9900012    2    3    3    0    0 -0.44236666918E+02 -0.78902177265E+01  0.31583687839E+01  0.46142317308E+02  0.99999958688E+01 0.  0.
        -12    1    3    3    0    0  0.44236666918E+02  0.78902177265E+01 -0.31583687839E+01  0.45045682692E+02  0.00000000000E+00 0.  1.
         11    1    4    4    0    0 -0.27194966775E+02 -0.55239131846E+01  0.95210043714E+00  0.27766640601E+02  0.51100000000E-03 0. -1.
        -11    1    4    4    0    0 -0.93951514041E+01 -0.10827732728E+01 -0.18326209469E+01  0.96332636040E+01  0.51100000000E-03 0.  1.
        -12    1    4    4    0    0 -0.76465487393E+01 -0.12835312690E+01  0.40388892937E+01  0.87424131033E+01  0.00000000000E+00 0.  1.
</event>
<event>
 8    1  0.2882335E-009  0.9118800E+02  0.7816164E-02  0.1184000E+00
        -11   -1    0    0    0    0  0.00000000000E+00  0.00000000000E+00  0.45593999997E+02  0.45594000000E+02  0.51100000000E-03 0. -1.
         11   -1    0    0    0    0 -0.00000000000E+00 -0.00000000000E+00 -0.45593999997E+02  0.45594000000E+02  0.51100000000E-03 0.  1.
         23    2    1    2    0    0  0.00000000000E+00  0.00000000000E+00  0.00000000000E+00  0.91188000000E+02  0.91188000000E+02 0.  0.
    9900012    2    3    3    0    0  0.18290912647E+02 -0.28155738482E+02  0.30030159415E+02  0.46142316862E+02  0.99999917978E+01 0.  0.
         12    1    3    3    0    0 -0.18290912647E+02  0.28155738482E+02 -0.30030159415E+02  0.45045683138E+02  0.00000000000E+00 0. -1.
         11    1    4    4    0    0  0.11187358170E+02 -0.91253240580E+01  0.12913427636E+02  0.19369696321E+02  0.51100000000E-03 0. -1.
        -11    1    4    4    0    0  0.10792361826E+01 -0.71294433308E+01  0.67772996308E+01  0.98957315794E+01  0.51100000000E-03 0.  1.
         12    1    4    4    0    0  0.60243182942E+01 -0.11900971093E+02  0.10339432148E+02  0.16876888962E+02  0.00000000000E+00 0. -1.
</event>
<event>
 8    1  0.2882335E-009  0.9118800E+02  0.7816164E-02  0.1184000E+00
        -11   -1    0    0    0    0  0.00000000000E+00  0.00000000000E+00  0.45593999997E+02  0.45594000000E+02  0.51100000000E-03 0. -1.
         11   -1    0    0    0    0 -0.00000000000E+00 -0.00000000000E+00 -0.45593999997E+02  0.45594000000E+02  0.51100000000E-03 0.  1.
         23    2    1    2    0    0  0.11102230246E-15  0.00000000000E+00  0.00000000000E+00  0.91188000000E+02  0.91188000000E+02 0.  0.
    9900012    2    3    3    0    0  0.63942590686E+00  0.30589610847E+02 -0.33060252685E+02  0.46142318022E+02  0.10000002381E+02 0.  0.
         12    1    3    3    0    0 -0.63942590686E+00 -0.30589610847E+02  0.33060252685E+02  0.45045681978E+02  0.00000000000E+00 0. -1.
         11    1    4    4    0    0  0.20543833823E-01  0.98591785516E+00 -0.18297314415E+00  0.10029633587E+01  0.51100000000E-03 0. -1.
        -11    1    4    4    0    0  0.27241232095E+01  0.24307278167E+01 -0.33248120484E+01  0.49379814092E+01  0.51100000000E-03 0.  1.
        -12    1    4    4    0    0 -0.21052411364E+01  0.27172965175E+02 -0.29552467492E+02  0.40201373254E+02  0.00000000000E+00 0.  1.
</event>
<event>
 8    1  0.2882335E-009  0.9118800E+02  0.7816164E-02  0.1184000E+00
        -11   -1    0    0    0    0  0.00000000000E+00  0.00000000000E+00  0.45593999997E+02  0.45594000000E+02  0.51100000000E-03 0. -1.
         11   -1    0    0    0    0 -0.00000000000E+00 -0.00000000000E+00 -0.45593999997E+02  0.45594000000E+02  0.51100000000E-03 0.  1.
         23    2    1    2    0    0  0.00000000000E+00  0.00000000000E+00  0.17763568394E-14  0.91188000000E+02  0.91188000000E+02 0.  0.
    9900012    2    3    3    0    0  0.88323106908E+01 -0.41816102268E+02 -0.14230861267E+02  0.46142317261E+02  0.99999954424E+01 0.  0.
         12    1    3    3    0    0 -0.88323106908E+01  0.41816102268E+02  0.14230861267E+02  0.45045682739E+02  0.00000000000E+00 0. -1.
         11    1    4    4    0    0  0.45076200604E+01 -0.12575014971E+02 -0.74122577969E+01  0.15277146528E+02  0.51100000000E-03 0.  1.
        -11    1    4    4    0    0  0.31934106280E+01 -0.12088791311E+02 -0.53918793984E+01  0.13616501405E+02  0.51100000000E-03 0. -1.
         12    1    4    4    0    0  0.11312800024E+01 -0.17152295986E+02 -0.14267240713E+01  0.17248669328E+02  0.00000000000E+00 0. -1.
</event>
<event>
 8    1  0.3479113E-009  0.9118800E+02  0.7816164E-02  0.1184000E+00
        -11   -1    0    0    0    0  0.00000000000E+00  0.00000000000E+00  0.45593999997E+02  0.45594000000E+02  0.51100000000E-03 0. -1.
         11   -1    0    0    0    0 -0.00000000000E+00 -0.00000000000E+00 -0.45593999997E+02  0.45594000000E+02  0.51100000000E-03 0.  1.
         23    2    1    2    0    0  0.22204460493E-15  0.35527136788E-14  0.00000000000E+00  0.91188000000E+02  0.91188000000E+02 0.  0.
    9900012    2    3    3    0    0  0.43697629909E+00  0.14507228541E+02 -0.42643438439E+02  0.46142317963E+02  0.10000001843E+02 0.  0.
         12    1    3    3    0    0 -0.43697629909E+00 -0.14507228541E+02  0.42643438439E+02  0.45045682037E+02  0.00000000000E+00 0. -1.
         11    1    4    4    0    0 -0.63624931316E+00 -0.14390170305E+00 -0.65674187890E+01  0.65997356538E+01  0.51100000000E-03 0. -1.
        -11    1    4    4    0    0 -0.77263460462E+00  0.85188104131E+01 -0.12750533922E+02  0.15353931440E+02  0.51100000000E-03 0.  1.
        -12    1    4    4    0    0  0.18458602169E+01  0.61323198308E+01 -0.23325485728E+02  0.24188650870E+02  0.00000000000E+00 0.  1.
</event>
<event>
 8    1  0.2882335E-009  0.9118800E+02  0.7816164E-02  0.1184000E+00
        -11   -1    0    0    0    0  0.00000000000E+00  0.00000000000E+00  0.45593999997E+02  0.45594000000E+02  0.51100000000E-03 0. -1.
         11   -1    0    0    0    0 -0.00000000000E+00 -0.00000000000E+00 -0.45593999997E+02  0.45594000000E+02  0.51100000000E-03 0.  1.
         23    2    1    2    0    0  0.00000000000E+00  0.35527136788E-14  0.00000000000E+00  0.91188000000E+02  0.91188000000E+02 0.  0.
    9900012    2    3    3    0    0 -0.32565630812E+02 -0.28496742580E+02 -0.12511148896E+02  0.46142317693E+02  0.99999993750E+01 0.  0.
         12    1    3    3    0    0  0.32565630812E+02  0.28496742580E+02  0.12511148896E+02  0.45045682307E+02  0.00000000000E+00 0. -1.
         11    1    4    4    0    0 -0.23839581806E+02 -0.18023126779E+02 -0.65567869531E+01  0.30596571948E+02  0.51100000000E-03 0. -1.
        -11    1    4    4    0    0 -0.42325931211E+01 -0.41846852914E+01 -0.49697140646E+01  0.77539985596E+01  0.51100000000E-03 0.  1.
         12    1    4    4    0    0 -0.44934558846E+01 -0.62889305103E+01 -0.98464787787E+00  0.77917471849E+01  0.00000000000E+00 0. -1.
</event>
<event>
 8    1  0.2882335E-009  0.9118800E+02  0.7816164E-02  0.1184000E+00
        -11   -1    0    0    0    0  0.00000000000E+00  0.00000000000E+00  0.45593999997E+02  0.45594000000E+02  0.51100000000E-03 0. -1.
         11   -1    0    0    0    0 -0.00000000000E+00 -0.00000000000E+00 -0.45593999997E+02  0.45594000000E+02  0.51100000000E-03 0.  1.
         23    2    1    2    0    0 -0.35527136788E-14  0.00000000000E+00  0.71054273576E-14  0.91188000000E+02  0.91188000000E+02 0.  0.
    9900012    2    3    3    0    0  0.18785684491E+02 -0.13228969303E+02 -0.38745399829E+02  0.46142316761E+02  0.99999908792E+01 0.  0.
         12    1    3    3    0    0 -0.18785684491E+02  0.13228969303E+02  0.38745399829E+02  0.45045683239E+02  0.00000000000E+00 0. -1.
         11    1    4    4    0    0  0.71244655124E+01 -0.38537338942E+01 -0.62621764590E+01  0.10238365496E+02  0.51100000000E-03 0. -1.
        -11    1    4    4    0    0  0.36377730157E+01 -0.15726442632E+01 -0.10771092196E+02  0.11477065385E+02  0.51100000000E-03 0.  1.
        -12    1    4    4    0    0  0.80234459627E+01 -0.78025911452E+01 -0.21712131173E+02  0.24426885880E+02  0.00000000000E+00 0.  1.
</event>
<event>
 8    1  0.2882335E-009  0.9118800E+02  0.7816164E-02  0.1184000E+00
        -11   -1    0    0    0    0  0.00000000000E+00  0.00000000000E+00  0.45593999997E+02  0.45594000000E+02  0.51100000000E-03 0. -1.
         11   -1    0    0    0    0 -0.00000000000E+00 -0.00000000000E+00 -0.45593999997E+02  0.45594000000E+02  0.51100000000E-03 0.  1.
         23    2    1    2    0    0 -0.35527136788E-14  0.00000000000E+00  0.71054273576E-14  0.91188000000E+02  0.91188000000E+02 0.  0.
    9900012    2    3    3    0    0 -0.29591499322E+02  0.85061687403E+01  0.32880112220E+02  0.46142317429E+02  0.99999969679E+01 0.  0.
        -12    1    3    3    0    0  0.29591499322E+02 -0.85061687403E+01 -0.32880112220E+02  0.45045682571E+02  0.00000000000E+00 0.  1.
         11    1    4    4    0    0 -0.10189649653E+02  0.40885139543E+01  0.67837971265E+01  0.12905998998E+02  0.51100000000E-03 0.  1.
        -11    1    4    4    0    0 -0.98937247774E+01  0.33573088690E+01  0.97192730630E+01  0.14269603426E+02  0.51100000000E-03 0. -1.
        -12    1    4    4    0    0 -0.95081248910E+01  0.10603459170E+01  0.16377042030E+02  0.18966715004E+02  0.00000000000E+00 0.  1.
</event>
<event>
 8    1  0.2882335E-009  0.9118800E+02  0.7816164E-02  0.1184000E+00
        -11   -1    0    0    0    0  0.00000000000E+00  0.00000000000E+00  0.45593999997E+02  0.45594000000E+02  0.51100000000E-03 0. -1.
         11   -1    0    0    0    0 -0.00000000000E+00 -0.00000000000E+00 -0.45593999997E+02  0.45594000000E+02  0.51100000000E-03 0.  1.
         23    2    1    2    0    0  0.00000000000E+00 -0.44408920985E-15  0.00000000000E+00  0.91188000000E+02  0.91188000000E+02 0.  0.
    9900012    2    3    3    0    0 -0.27100542363E+02  0.17116844379E+01 -0.35940842440E+02  0.46142318573E+02  0.10000007399E+02 0.  0.
         12    1    3    3    0    0  0.27100542363E+02 -0.17116844379E+01  0.35940842440E+02  0.45045681427E+02  0.00000000000E+00 0. -1.
         11    1    4    4    0    0 -0.21294985597E+02  0.42759072467E+01 -0.31920435534E+02  0.38609247588E+02  0.51100000000E-03 0. -1.
        -11    1    4    4    0    0 -0.35081506879E+01 -0.16306797630E+01 -0.21412617682E+01  0.44216784098E+01  0.51100000000E-03 0.  1.
         12    1    4    4    0    0 -0.22974060782E+01 -0.93354304579E+00 -0.18791451369E+01  0.31113925744E+01  0.00000000000E+00 0. -1.
</event>
<event>
 8    1  0.2882335E-009  0.9118800E+02  0.7816164E-02  0.1184000E+00
        -11   -1    0    0    0    0  0.00000000000E+00  0.00000000000E+00  0.45593999997E+02  0.45594000000E+02  0.51100000000E-03 0. -1.
         11   -1    0    0    0    0 -0.00000000000E+00 -0.00000000000E+00 -0.45593999997E+02  0.45594000000E+02  0.51100000000E-03 0.  1.
         23    2    1    2    0    0  0.00000000000E+00  0.35527136788E-14 -0.35527136788E-14  0.91188000000E+02  0.91188000000E+02 0.  0.
    9900012    2    3    3    0    0 -0.27556548989E+02  0.22345963967E+02 -0.27756224868E+02  0.46142317447E+02  0.99999971338E+01 0.  0.
         12    1    3    3    0    0  0.27556548989E+02 -0.22345963967E+02  0.27756224868E+02  0.45045682553E+02  0.00000000000E+00 0. -1.
         11    1    4    4    0    0 -0.87963263940E+01  0.36855098534E+01 -0.76179849680E+01  0.12206229399E+02  0.51100000000E-03 0.  1.
        -11    1    4    4    0    0 -0.13342026530E+02  0.98000044031E+01 -0.95830895618E+01  0.19128130176E+02  0.51100000000E-03 0. -1.
        -12    1    4    4    0    0 -0.54181960646E+01  0.88604497105E+01 -0.10555150338E+02  0.14807957871E+02  0.00000000000E+00 0.  1.
</event>
<event>
 8    1  0.2882335E-009  0.9118800E+02  0.7816164E-02  0.1184000E+00
        -11   -1    0    0    0    0  0.00000000000E+00  0.00000000000E+00  0.45593999997E+02  0.45594000000E+02  0.51100000000E-03 0. -1.
         11   -1    0    0    0    0 -0.00000000000E+00 -0.00000000000E+00 -0.45593999997E+02  0.45594000000E+02  0.51100000000E-03 0.  1.
         23    2    1    2    0    0 -0.35527136788E-14  0.71054273576E-14  0.17763568394E-14  0.91188000000E+02  0.91188000000E+02 0.  0.
    9900012    2    3    3    0    0 -0.21818019007E+02  0.37196972792E+02 -0.13018171589E+02  0.46142317301E+02  0.99999958046E+01 0.  0.
         12    1    3    3    0    0  0.21818019007E+02 -0.37196972792E+02  0.13018171589E+02  0.45045682699E+02  0.00000000000E+00 0. -1.
         11    1    4    4    0    0 -0.13509070739E+02  0.26063503461E+02 -0.67893942887E+01  0.30131330537E+02  0.51100000000E-03 0. -1.
        -11    1    4    4    0    0 -0.68042817089E+01  0.76368113275E+01 -0.21884079457E+01  0.10459840650E+02  0.51100000000E-03 0.  1.
        -12    1    4    4    0    0 -0.15046665595E+01  0.34966580034E+01 -0.40403693551E+01  0.55511461135E+01  0.00000000000E+00 0.  1.
</event>
<event>
 8    1  0.2882335E-009  0.9118800E+02  0.7816164E-02  0.1184000E+00
        -11   -1    0    0    0    0  0.00000000000E+00  0.00000000000E+00  0.45593999997E+02  0.45594000000E+02  0.51100000000E-03 0. -1.
         11   -1    0    0    0    0 -0.00000000000E+00 -0.00000000000E+00 -0.45593999997E+02  0.45594000000E+02  0.51100000000E-03 0.  1.
         23    2    1    2    0    0 -0.88817841970E-15  0.44408920985E-15  0.71054273576E-14  0.91188000000E+02  0.91188000000E+02 0.  0.
    9900012    2    3    3    0    0 -0.56692386806E+01  0.36087443121E+01  0.44541556290E+02  0.46142317194E+02  0.99999948275E+01 0.  0.
        -12    1    3    3    0    0  0.56692386806E+01 -0.36087443121E+01 -0.44541556290E+02  0.45045682806E+02  0.00000000000E+00 0.  1.
         11    1    4    4    0    0  0.20600149031E-01 -0.11268429355E+00  0.52620801163E+01  0.52633268498E+01  0.51100000000E-03 0. -1.
        -11    1    4    4    0    0 -0.17770727581E+01  0.19264561327E+01  0.18627527991E+01  0.32154422823E+01  0.51100000000E-03 0.  1.
        -12    1    4    4    0    0 -0.39127660715E+01  0.17949724730E+01  0.37416723375E+02  0.37663548062E+02  0.00000000000E+00 0.  1.
</event>
<event>
 8    1  0.2882335E-009  0.9118800E+02  0.7816164E-02  0.1184000E+00
        -11   -1    0    0    0    0  0.00000000000E+00  0.00000000000E+00  0.45593999997E+02  0.45594000000E+02  0.51100000000E-03 0. -1.
         11   -1    0    0    0    0 -0.00000000000E+00 -0.00000000000E+00 -0.45593999997E+02  0.45594000000E+02  0.51100000000E-03 0.  1.
         23    2    1    2    0    0  0.00000000000E+00 -0.17763568394E-14  0.00000000000E+00  0.91188000000E+02  0.91188000000E+02 0.  0.
    9900012    2    3    3    0    0  0.89843409832E+01 -0.10895709420E+02 -0.42774741038E+02  0.46142319436E+02  0.10000015269E+02 0.  0.
         12    1    3    3    0    0 -0.89843409832E+01  0.10895709420E+02  0.42774741038E+02  0.45045680564E+02  0.00000000000E+00 0. -1.
         11    1    4    4    0    0  0.24585816882E+01 -0.15163560013E+01 -0.38318923251E+01  0.47986829956E+01  0.51100000000E-03 0. -1.
        -11    1    4    4    0    0  0.67764999421E+01 -0.56421811750E+01 -0.17719634495E+02  0.19792438121E+02  0.51100000000E-03 0.  1.
        -12    1    4    4    0    0 -0.25074064711E+00 -0.37371722441E+01 -0.21223214217E+02  0.21551198319E+02  0.00000000000E+00 0.  1.
</event>
<event>
 8    1  0.2882335E-009  0.9118800E+02  0.7816164E-02  0.1184000E+00
        -11   -1    0    0    0    0  0.00000000000E+00  0.00000000000E+00  0.45593999997E+02  0.45594000000E+02  0.51100000000E-03 0. -1.
         11   -1    0    0    0    0 -0.00000000000E+00 -0.00000000000E+00 -0.45593999997E+02  0.45594000000E+02  0.51100000000E-03 0.  1.
         23    2    1    2    0    0  0.00000000000E+00 -0.35527136788E-14 -0.71054273576E-14  0.91188000000E+02  0.91188000000E+02 0.  0.
    9900012    2    3    3    0    0 -0.20146256649E+02  0.19445696535E+02  0.35286069430E+02  0.46142318004E+02  0.10000002215E+02 0.  0.
        -12    1    3    3    0    0  0.20146256649E+02 -0.19445696535E+02 -0.35286069430E+02  0.45045681996E+02  0.00000000000E+00 0.  1.
         11    1    4    4    0    0 -0.13209796388E+02  0.10914581404E+02  0.24367688161E+02  0.29789445017E+02  0.51100000000E-03 0. -1.
        -11    1    4    4    0    0 -0.35186871553E+01  0.52160283647E+01  0.26829019600E+01  0.68400346773E+01  0.51100000000E-03 0.  1.
        -12    1    4    4    0    0 -0.34177731055E+01  0.33150867665E+01  0.82354793089E+01  0.95128383103E+01  0.00000000000E+00 0.  1.
</event>
<event>
 8    1  0.2882335E-009  0.9118800E+02  0.7816164E-02  0.1184000E+00
        -11   -1    0    0    0    0  0.00000000000E+00  0.00000000000E+00  0.45593999997E+02  0.45594000000E+02  0.51100000000E-03 0. -1.
         11   -1    0    0    0    0 -0.00000000000E+00 -0.00000000000E+00 -0.45593999997E+02  0.45594000000E+02  0.51100000000E-03 0.  1.
         23    2    1    2    0    0  0.00000000000E+00  0.00000000000E+00  0.00000000000E+00  0.91188000000E+02  0.91188000000E+02 0.  0.
    9900012    2    3    3    0    0 -0.41727898786E+02 -0.54814508423E+01 -0.16057699606E+02  0.46142316999E+02  0.99999930504E+01 0.  0.
         12    1    3    3    0    0  0.41727898786E+02  0.54814508423E+01  0.16057699606E+02  0.45045683001E+02  0.00000000000E+00 0. -1.
         11    1    4    4    0    0 -0.21088008792E+02 -0.53974180874E+01 -0.84863814781E+01  0.23363537995E+02  0.51100000000E-03 0. -1.
        -11    1    4    4    0    0 -0.17820400873E+02 -0.64168150867E+00 -0.41463609287E+01  0.18307669203E+02  0.51100000000E-03 0.  1.
        -12    1    4    4    0    0 -0.28194891215E+01  0.55764875374E+00 -0.34249571992E+01  0.44711098013E+01  0.00000000000E+00 0.  1.
</event>
<event>
 8    1  0.2882335E-009  0.9118800E+02  0.7816164E-02  0.1184000E+00
        -11   -1    0    0    0    0  0.00000000000E+00  0.00000000000E+00  0.45593999997E+02  0.45594000000E+02  0.51100000000E-03 0. -1.
         11   -1    0    0    0    0 -0.00000000000E+00 -0.00000000000E+00 -0.45593999997E+02  0.45594000000E+02  0.51100000000E-03 0.  1.
         23    2    1    2    0    0 -0.35527136788E-14  0.35527136788E-14 -0.35527136788E-14  0.91188000000E+02  0.91188000000E+02 0.  0.
    9900012    2    3    3    0    0  0.28026780131E+02 -0.24245655867E+02  0.25607838165E+02  0.46142316429E+02  0.99999878542E+01 0.  0.
        -12    1    3    3    0    0 -0.28026780131E+02  0.24245655867E+02 -0.25607838165E+02  0.45045683571E+02  0.00000000000E+00 0.  1.
         11    1    4    4    0    0  0.12604843712E+02 -0.10591464015E+02  0.17014477774E+02  0.23676014217E+02  0.51100000000E-03 0. -1.
        -11    1    4    4    0    0  0.10106454542E+02 -0.10504095569E+02  0.61941890994E+01  0.15838068885E+02  0.51100000000E-03 0.  1.
         12    1    4    4    0    0  0.53154818762E+01 -0.31500962823E+01  0.23991712911E+01  0.66282333278E+01  0.00000000000E+00 0. -1.
</event>
<event>
 8    1  0.2882335E-009  0.9118800E+02  0.7816164E-02  0.1184000E+00
        -11   -1    0    0    0    0  0.00000000000E+00  0.00000000000E+00  0.45593999997E+02  0.45594000000E+02  0.51100000000E-03 0. -1.
         11   -1    0    0    0    0 -0.00000000000E+00 -0.00000000000E+00 -0.45593999997E+02  0.45594000000E+02  0.51100000000E-03 0.  1.
         23    2    1    2    0    0  0.00000000000E+00  0.00000000000E+00  0.00000000000E+00  0.91188000000E+02  0.91188000000E+02 0.  0.
    9900012    2    3    3    0    0 -0.16458115557E+02  0.24989252919E+02  0.33671666698E+02  0.46142317994E+02  0.10000002122E+02 0.  0.
        -12    1    3    3    0    0  0.16458115557E+02 -0.24989252919E+02 -0.33671666698E+02  0.45045682006E+02  0.00000000000E+00 0.  1.
         11    1    4    4    0    0 -0.49141292533E+01  0.40354447882E+01  0.66066177375E+01  0.91695626475E+01  0.51100000000E-03 0. -1.
        -11    1    4    4    0    0 -0.13422257563E+01  0.88612296145E+01  0.13084929690E+02  0.15859960451E+02  0.51100000000E-03 0.  1.
        -12    1    4    4    0    0 -0.10201760548E+02  0.12092578517E+02  0.13980119271E+02  0.21112794895E+02  0.00000000000E+00 0.  1.
</event>
<event>
 8    1  0.2882335E-009  0.9118800E+02  0.7816164E-02  0.1184000E+00
        -11   -1    0    0    0    0  0.00000000000E+00  0.00000000000E+00  0.45593999997E+02  0.45594000000E+02  0.51100000000E-03 0. -1.
         11   -1    0    0    0    0 -0.00000000000E+00 -0.00000000000E+00 -0.45593999997E+02  0.45594000000E+02  0.51100000000E-03 0.  1.
         23    2    1    2    0    0 -0.55511151231E-16  0.00000000000E+00  0.00000000000E+00  0.91188000000E+02  0.91188000000E+02 0.  0.
    9900012    2    3    3    0    0 -0.28215728724E+00  0.35256761050E+02 -0.28035593820E+02  0.46142319483E+02  0.10000015699E+02 0.  0.
         12    1    3    3    0    0  0.28215728724E+00 -0.35256761050E+02  0.28035593820E+02  0.45045680517E+02  0.00000000000E+00 0. -1.
         11    1    4    4    0    0 -0.14375467476E+01  0.37211831131E+01 -0.41605901646E+00  0.40108415300E+01  0.51100000000E-03 0. -1.
        -11    1    4    4    0    0  0.10770002502E+01  0.27616719968E+02 -0.25806087205E+02  0.37812660425E+02  0.51100000000E-03 0.  1.
        -12    1    4    4    0    0  0.78389210126E-01  0.39188579684E+01 -0.18134475982E+01  0.43188175276E+01  0.00000000000E+00 0.  1.
</event>
<event>
 8    1  0.2882335E-009  0.9118800E+02  0.7816164E-02  0.1184000E+00
        -11   -1    0    0    0    0  0.00000000000E+00  0.00000000000E+00  0.45593999997E+02  0.45594000000E+02  0.51100000000E-03 0. -1.
         11   -1    0    0    0    0 -0.00000000000E+00 -0.00000000000E+00 -0.45593999997E+02  0.45594000000E+02  0.51100000000E-03 0.  1.
         23    2    1    2    0    0 -0.17763568394E-14  0.35527136788E-14  0.00000000000E+00  0.91188000000E+02  0.91188000000E+02 0.  0.
    9900012    2    3    3    0    0 -0.13220297856E+02  0.18256481735E+02 -0.39000488348E+02  0.46142317720E+02  0.99999996215E+01 0.  0.
         12    1    3    3    0    0  0.13220297856E+02 -0.18256481735E+02  0.39000488348E+02  0.45045682280E+02  0.00000000000E+00 0. -1.
         11    1    4    4    0    0 -0.10452605961E+02  0.76804458065E+01 -0.23796718121E+02  0.27102214168E+02  0.51100000000E-03 0. -1.
        -11    1    4    4    0    0 -0.28896754959E+01  0.10672293122E+02 -0.14063942703E+02  0.17889733077E+02  0.51100000000E-03 0.  1.
        -12    1    4    4    0    0  0.12198360122E+00 -0.96257193980E-01 -0.11398275232E+01  0.11503704747E+01  0.00000000000E+00 0.  1.
</event>
<event>
 8    1  0.2882335E-009  0.9118800E+02  0.7816164E-02  0.1184000E+00
        -11   -1    0    0    0    0  0.00000000000E+00  0.00000000000E+00  0.45593999997E+02  0.45594000000E+02  0.51100000000E-03 0. -1.
         11   -1    0    0    0    0 -0.00000000000E+00 -0.00000000000E+00 -0.45593999997E+02  0.45594000000E+02  0.51100000000E-03 0.  1.
         23    2    1    2    0    0  0.00000000000E+00  0.00000000000E+00  0.00000000000E+00  0.91188000000E+02  0.91188000000E+02 0.  0.
    9900012    2    3    3    0    0  0.90025061131E+01  0.21506124311E+02  0.38542897795E+02  0.46142317969E+02  0.10000001900E+02 0.  0.
        -12    1    3    3    0    0 -0.90025061131E+01 -0.21506124311E+02 -0.38542897795E+02  0.45045682031E+02  0.00000000000E+00 0.  1.
         11    1    4    4    0    0  0.15930444732E+01  0.20044549426E+01  0.11547129936E+02  0.11827588102E+02  0.51100000000E-03 0. -1.
        -11    1    4    4    0    0  0.36416892005E+01  0.10102079829E+02  0.10920539943E+02  0.15315747126E+02  0.51100000000E-03 0.  1.
        -12    1    4    4    0    0  0.37677724394E+01  0.93995895387E+01  0.16075227916E+02  0.18998982741E+02  0.00000000000E+00 0.  1.
</event>
<event>
 8    1  0.2882335E-009  0.9118800E+02  0.7816164E-02  0.1184000E+00
        -11   -1    0    0    0    0  0.00000000000E+00  0.00000000000E+00  0.45593999997E+02  0.45594000000E+02  0.51100000000E-03 0. -1.
         11   -1    0    0    0    0 -0.00000000000E+00 -0.00000000000E+00 -0.45593999997E+02  0.45594000000E+02  0.51100000000E-03 0.  1.
         23    2    1    2    0    0  0.35527136788E-14 -0.35527136788E-14  0.00000000000E+00  0.91188000000E+02  0.91188000000E+02 0.  0.
    9900012    2    3    3    0    0  0.23490091576E+02 -0.29099738706E+02 -0.25110447594E+02  0.46142314597E+02  0.99999711514E+01 0.  0.
         12    1    3    3    0    0 -0.23490091576E+02  0.29099738706E+02  0.25110447594E+02  0.45045685403E+02  0.00000000000E+00 0. -1.
         11    1    4    4    0    0  0.97652590082E+01 -0.18762024603E+02 -0.16912646785E+02  0.27081570712E+02  0.51100000000E-03 0. -1.
        -11    1    4    4    0    0  0.10740835000E+02 -0.85262894903E+01 -0.63810219426E+01  0.15125494711E+02  0.51100000000E-03 0.  1.
         12    1    4    4    0    0  0.29839975678E+01 -0.18114246130E+01 -0.18167788665E+01  0.39352491742E+01  0.00000000000E+00 0. -1.
</event>
<event>
 8    1  0.2882335E-009  0.9118800E+02  0.7816164E-02  0.1184000E+00
        -11   -1    0    0    0    0  0.00000000000E+00  0.00000000000E+00  0.45593999997E+02  0.45594000000E+02  0.51100000000E-03 0. -1.
         11   -1    0    0    0    0 -0.00000000000E+00 -0.00000000000E+00 -0.45593999997E+02  0.45594000000E+02  0.51100000000E-03 0.  1.
         23    2    1    2    0    0  0.00000000000E+00  0.00000000000E+00  0.00000000000E+00  0.91188000000E+02  0.91188000000E+02 0.  0.
    9900012    2    3    3    0    0  0.94821948174E+01 -0.67004813182E+01  0.43523613815E+02  0.46142318431E+02  0.10000006110E+02 0.  0.
        -12    1    3    3    0    0 -0.94821948174E+01  0.67004813182E+01 -0.43523613815E+02  0.45045681569E+02  0.00000000000E+00 0.  1.
         11    1    4    4    0    0  0.75765668654E+01 -0.28166990802E+01  0.22801912745E+02  0.24192258768E+02  0.51100000000E-03 0. -1.
        -11    1    4    4    0    0 -0.43702974185E+00  0.49076031866E+00  0.15278408615E-01  0.65732364671E+00  0.51100000000E-03 0.  1.
         12    1    4    4    0    0  0.23426576939E+01 -0.43745425566E+01  0.20706422661E+02  0.21292736017E+02  0.00000000000E+00 0. -1.
</event>
<event>
 8    1  0.3364679E-009  0.9118800E+02  0.7816164E-02  0.1184000E+00
        -11   -1    0    0    0    0  0.00000000000E+00  0.00000000000E+00  0.45593999997E+02  0.45594000000E+02  0.51100000000E-03 0. -1.
         11   -1    0    0    0    0 -0.00000000000E+00 -0.00000000000E+00 -0.45593999997E+02  0.45594000000E+02  0.51100000000E-03 0.  1.
         23    2    1    2    0    0 -0.17763568394E-14 -0.11102230246E-14  0.00000000000E+00  0.91188000000E+02  0.91188000000E+02 0.  0.
    9900012    2    3    3    0    0 -0.13895190210E+02 -0.11893381804E+01  0.42832494002E+02  0.46142318979E+02  0.10000011104E+02 0.  0.
        -12    1    3    3    0    0  0.13895190210E+02  0.11893381804E+01 -0.42832494002E+02  0.45045681021E+02  0.00000000000E+00 0.  1.
         11    1    4    4    0    0 -0.98540683766E+01 -0.24395134709E+01  0.27237930876E+02  0.29068174491E+02  0.51100000000E-03 0. -1.
        -11    1    4    4    0    0  0.27383226190E-01 -0.18253315390E+01  0.47985785317E+01  0.51340959529E+01  0.51100000000E-03 0.  1.
         12    1    4    4    0    0 -0.40685050592E+01  0.30755068295E+01  0.10795984594E+02  0.11940048535E+02  0.00000000000E+00 0. -1.
</event>
<event>
 8    1  0.2882335E-009  0.9118800E+02  0.7816164E-02  0.1184000E+00
        -11   -1    0    0    0    0  0.00000000000E+00  0.00000000000E+00  0.45593999997E+02  0.45594000000E+02  0.51100000000E-03 0. -1.
         11   -1    0    0    0    0 -0.00000000000E+00 -0.00000000000E+00 -0.45593999997E+02  0.45594000000E+02  0.51100000000E-03 0.  1.
         23    2    1    2    0    0  0.00000000000E+00  0.00000000000E+00  0.00000000000E+00  0.91188000000E+02  0.91188000000E+02 0.  0.
    9900012    2    3    3    0    0 -0.84479245700E+01  0.15367220860E+02 -0.41492101676E+02  0.46142318653E+02  0.10000008134E+02 0.  0.
         12    1    3    3    0    0  0.84479245700E+01 -0.15367220860E+02  0.41492101676E+02  0.45045681347E+02  0.00000000000E+00 0. -1.
         11    1    4    4    0    0 -0.19314922588E+01 -0.11593990766E+00 -0.14056817172E+01  0.23916617150E+01  0.51100000000E-03 0. -1.
        -11    1    4    4    0    0 -0.73079848352E+01  0.13145981167E+02 -0.35111263356E+02  0.38197176308E+02  0.51100000000E-03 0.  1.
         12    1    4    4    0    0  0.79155252403E+00  0.23371796003E+01 -0.49751566029E+01  0.55534806298E+01  0.00000000000E+00 0. -1.
</event>
<event>
 8    1  0.2882335E-009  0.9118800E+02  0.7816164E-02  0.1184000E+00
        -11   -1    0    0    0    0  0.00000000000E+00  0.00000000000E+00  0.45593999997E+02  0.45594000000E+02  0.51100000000E-03 0.  1.
         11   -1    0    0    0    0 -0.00000000000E+00 -0.00000000000E+00 -0.45593999997E+02  0.45594000000E+02  0.51100000000E-03 0. -1.
         23    2    1    2    0    0  0.00000000000E+00  0.00000000000E+00 -0.36082248300E-15  0.91188000000E+02  0.91188000000E+02 0.  0.
    9900012    2    3    3    0    0  0.30267801942E+02  0.33361158187E+02 -0.82111206330E-01  0.46142318162E+02  0.10000003660E+02 0.  0.
         12    1    3    3    0    0 -0.30267801942E+02 -0.33361158187E+02  0.82111206330E-01  0.45045681838E+02  0.00000000000E+00 0. -1.
         11    1    4    4    0    0  0.11049544199E+02  0.17377564056E+02 -0.19920545404E+01  0.20689138240E+02  0.51100000000E-03 0. -1.
        -11    1    4    4    0    0  0.92561333060E+01  0.69376050835E+01 -0.12379290946E+01  0.11633522114E+02  0.51100000000E-03 0.  1.
         12    1    4    4    0    0  0.99621244365E+01  0.90459890472E+01  0.31478724287E+01  0.13819657809E+02  0.00000000000E+00 0. -1.
</event>
<event>
 8    1  0.2882335E-009  0.9118800E+02  0.7816164E-02  0.1184000E+00
        -11   -1    0    0    0    0  0.00000000000E+00  0.00000000000E+00  0.45593999997E+02  0.45594000000E+02  0.51100000000E-03 0. -1.
         11   -1    0    0    0    0 -0.00000000000E+00 -0.00000000000E+00 -0.45593999997E+02  0.45594000000E+02  0.51100000000E-03 0.  1.
         23    2    1    2    0    0 -0.35527136788E-14  0.35527136788E-14  0.71054273576E-14  0.91188000000E+02  0.91188000000E+02 0.  0.
    9900012    2    3    3    0    0 -0.21826429096E+02  0.21357377289E+02  0.33114693646E+02  0.46142317554E+02  0.99999981105E+01 0.  0.
        -12    1    3    3    0    0  0.21826429096E+02 -0.21357377289E+02 -0.33114693646E+02  0.45045682446E+02  0.00000000000E+00 0.  1.
         11    1    4    4    0    0 -0.78974365210E+00  0.54901080157E+01  0.80449080996E+01  0.97716696450E+01  0.51100000000E-03 0. -1.
        -11    1    4    4    0    0 -0.13422348777E+02  0.10046361277E+02  0.15970975795E+02  0.23155148233E+02  0.51100000000E-03 0.  1.
         12    1    4    4    0    0 -0.76143366667E+01  0.58209079966E+01  0.90988097524E+01  0.13215499676E+02  0.00000000000E+00 0. -1.
</event>
<event>
 8    1  0.2882335E-009  0.9118800E+02  0.7816164E-02  0.1184000E+00
        -11   -1    0    0    0    0  0.00000000000E+00  0.00000000000E+00  0.45593999997E+02  0.45594000000E+02  0.51100000000E-03 0. -1.
         11   -1    0    0    0    0 -0.00000000000E+00 -0.00000000000E+00 -0.45593999997E+02  0.45594000000E+02  0.51100000000E-03 0.  1.
         23    2    1    2    0    0  0.00000000000E+00 -0.44408920985E-15  0.00000000000E+00  0.91188000000E+02  0.91188000000E+02 0.  0.
    9900012    2    3    3    0    0 -0.15088157918E+02 -0.35599194747E+01  0.42294061400E+02  0.46142321342E+02  0.10000032651E+02 0.  0.
        -12    1    3    3    0    0  0.15088157918E+02  0.35599194747E+01 -0.42294061400E+02  0.45045678658E+02  0.00000000000E+00 0.  1.
         11    1    4    4    0    0 -0.74451770736E+01  0.45767868660E+00  0.19054980923E+02  0.20462952614E+02  0.51100000000E-03 0. -1.
        -11    1    4    4    0    0 -0.45538937834E+00 -0.29677398599E+01  0.33156305208E+01  0.44730599564E+01  0.51100000000E-03 0.  1.
        -12    1    4    4    0    0 -0.71875914665E+01 -0.10498583014E+01  0.19923449957E+02  0.21206308772E+02  0.00000000000E+00 0.  1.
</event>
<event>
 8    1  0.2882335E-009  0.9118800E+02  0.7816164E-02  0.1184000E+00
        -11   -1    0    0    0    0  0.00000000000E+00  0.00000000000E+00  0.45593999997E+02  0.45594000000E+02  0.51100000000E-03 0. -1.
         11   -1    0    0    0    0 -0.00000000000E+00 -0.00000000000E+00 -0.45593999997E+02  0.45594000000E+02  0.51100000000E-03 0.  1.
         23    2    1    2    0    0  0.17763568394E-14  0.35527136788E-14  0.71054273576E-14  0.91188000000E+02  0.91188000000E+02 0.  0.
    9900012    2    3    3    0    0 -0.14658128237E+02 -0.22144457107E+02 -0.36385104599E+02  0.46142317180E+02  0.99999947052E+01 0.  0.
         12    1    3    3    0    0  0.14658128237E+02  0.22144457107E+02  0.36385104599E+02  0.45045682820E+02  0.00000000000E+00 0. -1.
         11    1    4    4    0    0  0.39046489308E+00 -0.30582741372E+00  0.26874052239E+00  0.56410545930E+00  0.51100000000E-03 0. -1.
        -11    1    4    4    0    0 -0.64861866746E+01 -0.13117127897E+02 -0.16962119360E+02  0.22401856068E+02  0.51100000000E-03 0.  1.
         12    1    4    4    0    0 -0.85624064557E+01 -0.87215017962E+01 -0.19691725761E+02  0.23176355653E+02  0.00000000000E+00 0. -1.
</event>
<event>
 8    1  0.2882335E-009  0.9118800E+02  0.7816164E-02  0.1184000E+00
        -11   -1    0    0    0    0  0.00000000000E+00  0.00000000000E+00  0.45593999997E+02  0.45594000000E+02  0.51100000000E-03 0. -1.
         11   -1    0    0    0    0 -0.00000000000E+00 -0.00000000000E+00 -0.45593999997E+02  0.45594000000E+02  0.51100000000E-03 0.  1.
         23    2    1    2    0    0  0.00000000000E+00  0.00000000000E+00 -0.17763568394E-14  0.91188000000E+02  0.91188000000E+02 0.  0.
    9900012    2    3    3    0    0 -0.39882028198E+02  0.18033455783E+02  0.10645736789E+02  0.46142318604E+02  0.10000007685E+02 0.  0.
        -12    1    3    3    0    0  0.39882028198E+02 -0.18033455783E+02 -0.10645736789E+02  0.45045681396E+02  0.00000000000E+00 0.  1.
         11    1    4    4    0    0 -0.24312197710E+02  0.12004164662E+02  0.55580063275E+01  0.27678048365E+02  0.51100000000E-03 0. -1.
        -11    1    4    4    0    0 -0.48412548183E+01  0.34756751797E+01  0.44123482400E+01  0.74153141149E+01  0.51100000000E-03 0.  1.
        -12    1    4    4    0    0 -0.10728575669E+02  0.25536159419E+01  0.67538222161E+00  0.11048956123E+02  0.00000000000E+00 0.  1.
</event>
<event>
 8    1  0.2882335E-009  0.9118800E+02  0.7816164E-02  0.1184000E+00
        -11   -1    0    0    0    0  0.00000000000E+00  0.00000000000E+00  0.45593999997E+02  0.45594000000E+02  0.51100000000E-03 0. -1.
         11   -1    0    0    0    0 -0.00000000000E+00 -0.00000000000E+00 -0.45593999997E+02  0.45594000000E+02  0.51100000000E-03 0.  1.
         23    2    1    2    0    0 -0.17763568394E-14  0.88817841970E-15  0.71054273576E-14  0.91188000000E+02  0.91188000000E+02 0.  0.
    9900012    2    3    3    0    0 -0.13276812365E+02  0.10422267696E+01  0.43032005715E+02  0.46142317643E+02  0.99999989199E+01 0.  0.
        -12    1    3    3    0    0  0.13276812365E+02 -0.10422267696E+01 -0.43032005715E+02  0.45045682357E+02  0.00000000000E+00 0.  1.
         11    1    4    4    0    0 -0.10109360911E+01  0.20281627559E+01  0.26712678251E+01  0.35030141306E+01  0.51100000000E-03 0.  1.
        -11    1    4    4    0    0 -0.30846318274E+01  0.13926492037E+01  0.18541799857E+02  0.18848150241E+02  0.51100000000E-03 0. -1.
         12    1    4    4    0    0 -0.91812444468E+01 -0.23785851900E+01  0.21818938033E+02  0.23791153271E+02  0.00000000000E+00 0. -1.
</event>
<event>
 8    1  0.2882335E-009  0.9118800E+02  0.7816164E-02  0.1184000E+00
        -11   -1    0    0    0    0  0.00000000000E+00  0.00000000000E+00  0.45593999997E+02  0.45594000000E+02  0.51100000000E-03 0. -1.
         11   -1    0    0    0    0 -0.00000000000E+00 -0.00000000000E+00 -0.45593999997E+02  0.45594000000E+02  0.51100000000E-03 0.  1.
         23    2    1    2    0    0  0.17763568394E-14  0.27755575616E-15  0.00000000000E+00  0.91188000000E+02  0.91188000000E+02 0.  0.
    9900012    2    3    3    0    0 -0.15215675996E+02  0.33093630687E+00  0.42396782250E+02  0.46142318076E+02  0.10000002867E+02 0.  0.
        -12    1    3    3    0    0  0.15215675996E+02 -0.33093630687E+00 -0.42396782250E+02  0.45045681924E+02  0.00000000000E+00 0.  1.
         11    1    4    4    0    0 -0.64603874522E+01 -0.27486512037E+01  0.15923103782E+02  0.17402210314E+02  0.51100000000E-03 0.  1.
        -11    1    4    4    0    0 -0.28641731447E+01  0.43032566540E+01  0.12117246273E+02  0.13173805947E+02  0.51100000000E-03 0. -1.
         12    1    4    4    0    0 -0.58911153990E+01 -0.12236691434E+01  0.14356432195E+02  0.15566301815E+02  0.00000000000E+00 0. -1.
</event>
<event>
 8    1  0.2882335E-009  0.9118800E+02  0.7816164E-02  0.1184000E+00
        -11   -1    0    0    0    0  0.00000000000E+00  0.00000000000E+00  0.45593999997E+02  0.45594000000E+02  0.51100000000E-03 0. -1.
         11   -1    0    0    0    0 -0.00000000000E+00 -0.00000000000E+00 -0.45593999997E+02  0.45594000000E+02  0.51100000000E-03 0.  1.
         23    2    1    2    0    0  0.35527136788E-14  0.00000000000E+00 -0.35527136788E-14  0.91188000000E+02  0.91188000000E+02 0.  0.
    9900012    2    3    3    0    0 -0.31563955856E+02 -0.16031819160E+02  0.27853387264E+02  0.46142315224E+02  0.99999768687E+01 0.  0.
        -12    1    3    3    0    0  0.31563955856E+02  0.16031819160E+02 -0.27853387264E+02  0.45045684776E+02  0.00000000000E+00 0.  1.
         11    1    4    4    0    0 -0.12283650801E+02 -0.75540079007E+01  0.13288841468E+02  0.19609804185E+02  0.51100000000E-03 0. -1.
        -11    1    4    4    0    0 -0.45794620730E+01  0.42760803541E+00  0.11810783572E+01  0.47486069385E+01  0.51100000000E-03 0.  1.
        -12    1    4    4    0    0 -0.14700842981E+02 -0.89054192948E+01  0.13383467439E+02  0.21783904101E+02  0.00000000000E+00 0.  1.
</event>
<event>
 8    1  0.2882335E-009  0.9118800E+02  0.7816164E-02  0.1184000E+00
        -11   -1    0    0    0    0  0.00000000000E+00  0.00000000000E+00  0.45593999997E+02  0.45594000000E+02  0.51100000000E-03 0. -1.
         11   -1    0    0    0    0 -0.00000000000E+00 -0.00000000000E+00 -0.45593999997E+02  0.45594000000E+02  0.51100000000E-03 0.  1.
         23    2    1    2    0    0  0.35527136788E-14  0.00000000000E+00  0.00000000000E+00  0.91188000000E+02  0.91188000000E+02 0.  0.
    9900012    2    3    3    0    0 -0.31489826181E+02 -0.21087682315E+02  0.24347771222E+02  0.46142318056E+02  0.10000002689E+02 0.  0.
        -12    1    3    3    0    0  0.31489826181E+02  0.21087682315E+02 -0.24347771222E+02  0.45045681944E+02  0.00000000000E+00 0.  1.
         11    1    4    4    0    0 -0.40036868106E+01 -0.64182509297E-01  0.53119286886E+00  0.40392813219E+01  0.51100000000E-03 0. -1.
        -11    1    4    4    0    0 -0.22768128401E+01 -0.89970836083E+00  0.20042953354E+01  0.31639456215E+01  0.51100000000E-03 0.  1.
         12    1    4    4    0    0 -0.25209326530E+02 -0.20123791445E+02  0.21812283017E+02  0.38939091113E+02  0.00000000000E+00 0. -1.
</event>
<event>
 8    1  0.2882335E-009  0.9118800E+02  0.7816164E-02  0.1184000E+00
        -11   -1    0    0    0    0  0.00000000000E+00  0.00000000000E+00  0.45593999997E+02  0.45594000000E+02  0.51100000000E-03 0. -1.
         11   -1    0    0    0    0 -0.00000000000E+00 -0.00000000000E+00 -0.45593999997E+02  0.45594000000E+02  0.51100000000E-03 0.  1.
         23    2    1    2    0    0  0.00000000000E+00 -0.88817841970E-15  0.00000000000E+00  0.91188000000E+02  0.91188000000E+02 0.  0.
    9900012    2    3    3    0    0 -0.24682178025E+02 -0.68392180754E+01  0.37055750821E+02  0.46142317800E+02  0.10000000358E+02 0.  0.
        -12    1    3    3    0    0  0.24682178025E+02  0.68392180754E+01 -0.37055750821E+02  0.45045682200E+02  0.00000000000E+00 0.  1.
         11    1    4    4    0    0 -0.35898108745E+01  0.20453593883E+01  0.72105171670E+01  0.83103426655E+01  0.51100000000E-03 0. -1.
        -11    1    4    4    0    0 -0.10095340299E+02 -0.38048244395E+01  0.10834217848E+02  0.15289632481E+02  0.51100000000E-03 0.  1.
         12    1    4    4    0    0 -0.10997026852E+02 -0.50797530242E+01  0.19011015806E+02  0.22542342654E+02  0.00000000000E+00 0. -1.
</event>
<event>
 8    1  0.2882335E-009  0.9118800E+02  0.7816164E-02  0.1184000E+00
        -11   -1    0    0    0    0  0.00000000000E+00  0.00000000000E+00  0.45593999997E+02  0.45594000000E+02  0.51100000000E-03 0. -1.
         11   -1    0    0    0    0 -0.00000000000E+00 -0.00000000000E+00 -0.45593999997E+02  0.45594000000E+02  0.51100000000E-03 0.  1.
         23    2    1    2    0    0  0.00000000000E+00  0.35527136788E-14  0.00000000000E+00  0.91188000000E+02  0.91188000000E+02 0.  0.
    9900012    2    3    3    0    0  0.87561407052E+01 -0.26422839923E+02 -0.35415773527E+02  0.46142317807E+02  0.10000000421E+02 0.  0.
         12    1    3    3    0    0 -0.87561407052E+01  0.26422839923E+02  0.35415773527E+02  0.45045682193E+02  0.00000000000E+00 0. -1.
         11    1    4    4    0    0  0.26011199230E+00 -0.12746259549E+02 -0.13048338725E+02  0.18242640557E+02  0.51100000000E-03 0. -1.
        -11    1    4    4    0    0  0.51366551969E+01 -0.11642508789E+02 -0.17705177509E+02  0.21803819583E+02  0.51100000000E-03 0.  1.
        -12    1    4    4    0    0  0.33593735160E+01 -0.20340715847E+01 -0.46622572926E+01  0.60958576668E+01  0.00000000000E+00 0.  1.
</event>
<event>
 8    1  0.2882335E-009  0.9118800E+02  0.7816164E-02  0.1184000E+00
        -11   -1    0    0    0    0  0.00000000000E+00  0.00000000000E+00  0.45593999997E+02  0.45594000000E+02  0.51100000000E-03 0. -1.
         11   -1    0    0    0    0 -0.00000000000E+00 -0.00000000000E+00 -0.45593999997E+02  0.45594000000E+02  0.51100000000E-03 0.  1.
         23    2    1    2    0    0  0.00000000000E+00  0.00000000000E+00  0.17763568394E-14  0.91188000000E+02  0.91188000000E+02 0.  0.
    9900012    2    3    3    0    0 -0.32487988603E+02  0.28382925452E+02 -0.12963550505E+02  0.46142317606E+02  0.99999985847E+01 0.  0.
         12    1    3    3    0    0  0.32487988603E+02 -0.28382925452E+02  0.12963550505E+02  0.45045682394E+02  0.00000000000E+00 0. -1.
         11    1    4    4    0    0  0.51034783117E+00  0.86543496173E+00 -0.45123963306E+00  0.11013855135E+01  0.51100000000E-03 0. -1.
        -11    1    4    4    0    0 -0.54904334972E+01  0.54893081108E+01 -0.42235880811E+01  0.88383290311E+01  0.51100000000E-03 0.  1.
        -12    1    4    4    0    0 -0.27507902936E+02  0.22028182380E+02 -0.82887227909E+01  0.36202603061E+02  0.00000000000E+00 0.  1.
</event>
<event>
 8    1  0.2882335E-009  0.9118800E+02  0.7816164E-02  0.1184000E+00
        -11   -1    0    0    0    0  0.00000000000E+00  0.00000000000E+00  0.45593999997E+02  0.45594000000E+02  0.51100000000E-03 0. -1.
         11   -1    0    0    0    0 -0.00000000000E+00 -0.00000000000E+00 -0.45593999997E+02  0.45594000000E+02  0.51100000000E-03 0.  1.
         23    2    1    2    0    0  0.71054273576E-14  0.71054273576E-14  0.00000000000E+00  0.91188000000E+02  0.91188000000E+02 0.  0.
    9900012    2    3    3    0    0  0.27896428412E+02  0.34276696964E+02  0.87184111729E+01  0.46142319116E+02  0.10000012355E+02 0.  0.
        -12    1    3    3    0    0 -0.27896428412E+02 -0.34276696964E+02 -0.87184111729E+01  0.45045680884E+02  0.00000000000E+00 0.  1.
         11    1    4    4    0    0  0.25088064405E+02  0.30445268801E+02  0.62260827313E+01  0.39938571262E+02  0.51100000000E-03 0. -1.
        -11    1    4    4    0    0  0.17121502893E+01  0.12723673273E+01  0.26659959917E+01  0.34143684800E+01  0.51100000000E-03 0.  1.
         12    1    4    4    0    0  0.10962137173E+01  0.25590608359E+01 -0.17366755009E+00  0.27893793743E+01  0.00000000000E+00 0. -1.
</event>
<event>
 8    1  0.2882335E-009  0.9118800E+02  0.7816164E-02  0.1184000E+00
        -11   -1    0    0    0    0  0.00000000000E+00  0.00000000000E+00  0.45593999997E+02  0.45594000000E+02  0.51100000000E-03 0. -1.
         11   -1    0    0    0    0 -0.00000000000E+00 -0.00000000000E+00 -0.45593999997E+02  0.45594000000E+02  0.51100000000E-03 0.  1.
         23    2    1    2    0    0  0.35527136788E-14  0.17763568394E-14  0.00000000000E+00  0.91188000000E+02  0.91188000000E+02 0.  0.
    9900012    2    3    3    0    0 -0.19808662651E+02  0.11372789967E+02  0.38825121884E+02  0.46142316999E+02  0.99999930525E+01 0.  0.
        -12    1    3    3    0    0  0.19808662651E+02 -0.11372789967E+02 -0.38825121884E+02  0.45045683001E+02  0.00000000000E+00 0.  1.
         11    1    4    4    0    0 -0.61853364559E+01  0.31693174043E+01  0.76175548006E+01  0.10311648815E+02  0.51100000000E-03 0. -1.
        -11    1    4    4    0    0 -0.54533209284E+01  0.76782955699E+01  0.16711578400E+02  0.19182590672E+02  0.51100000000E-03 0.  1.
        -12    1    4    4    0    0 -0.81700052669E+01  0.52517699306E+00  0.14495988684E+02  0.16648077513E+02  0.00000000000E+00 0.  1.
</event>
<event>
 8    1  0.2882335E-009  0.9118800E+02  0.7816164E-02  0.1184000E+00
        -11   -1    0    0    0    0  0.00000000000E+00  0.00000000000E+00  0.45593999997E+02  0.45594000000E+02  0.51100000000E-03 0. -1.
         11   -1    0    0    0    0 -0.00000000000E+00 -0.00000000000E+00 -0.45593999997E+02  0.45594000000E+02  0.51100000000E-03 0.  1.
         23    2    1    2    0    0  0.44408920985E-15  0.00000000000E+00  0.71054273576E-14  0.91188000000E+02  0.91188000000E+02 0.  0.
    9900012    2    3    3    0    0  0.36566374641E+01 -0.23037348372E+02 -0.38535996292E+02  0.46142318434E+02  0.10000006136E+02 0.  0.
         12    1    3    3    0    0 -0.36566374641E+01  0.23037348372E+02  0.38535996292E+02  0.45045681566E+02  0.00000000000E+00 0. -1.
         11    1    4    4    0    0 -0.16062719669E+01 -0.48341633390E+01 -0.44082408755E+01  0.67366039439E+01  0.51100000000E-03 0. -1.
        -11    1    4    4    0    0  0.80709837556E+00 -0.59974285724E+01 -0.65346521742E+01  0.89063031931E+01  0.51100000000E-03 0.  1.
         12    1    4    4    0    0  0.44558110554E+01 -0.12205756461E+02 -0.27593103242E+02  0.30499411297E+02  0.00000000000E+00 0. -1.
</event>
<event>
 8    1  0.2882335E-009  0.9118800E+02  0.7816164E-02  0.1184000E+00
        -11   -1    0    0    0    0  0.00000000000E+00  0.00000000000E+00  0.45593999997E+02  0.45594000000E+02  0.51100000000E-03 0. -1.
         11   -1    0    0    0    0 -0.00000000000E+00 -0.00000000000E+00 -0.45593999997E+02  0.45594000000E+02  0.51100000000E-03 0.  1.
         23    2    1    2    0    0  0.00000000000E+00 -0.11102230246E-15  0.00000000000E+00  0.91188000000E+02  0.91188000000E+02 0.  0.
    9900012    2    3    3    0    0 -0.18075824478E+02 -0.38664382839E+00  0.41258073437E+02  0.46142317102E+02  0.99999939913E+01 0.  0.
        -12    1    3    3    0    0  0.18075824478E+02  0.38664382839E+00 -0.41258073437E+02  0.45045682898E+02  0.00000000000E+00 0.  1.
         11    1    4    4    0    0 -0.29406299914E+01  0.10653607331E+01  0.15262399348E+02  0.15579574203E+02  0.51100000000E-03 0. -1.
        -11    1    4    4    0    0 -0.54956079147E+00  0.29197602908E+00 -0.86656037830E-01  0.62831249796E+00  0.51100000000E-03 0.  1.
         12    1    4    4    0    0 -0.14585633695E+02 -0.17439805906E+01  0.26082330127E+02  0.29934430401E+02  0.00000000000E+00 0. -1.
</event>
<event>
 8    1  0.2882335E-009  0.9118800E+02  0.7816164E-02  0.1184000E+00
        -11   -1    0    0    0    0  0.00000000000E+00  0.00000000000E+00  0.45593999997E+02  0.45594000000E+02  0.51100000000E-03 0.  1.
         11   -1    0    0    0    0 -0.00000000000E+00 -0.00000000000E+00 -0.45593999997E+02  0.45594000000E+02  0.51100000000E-03 0. -1.
         23    2    1    2    0    0  0.00000000000E+00  0.00000000000E+00  0.00000000000E+00  0.91188000000E+02  0.91188000000E+02 0.  0.
    9900012    2    3    3    0    0 -0.40597267233E+02 -0.19478775555E+02 -0.12461304540E+01  0.46142316022E+02  0.99999841454E+01 0.  0.
        -12    1    3    3    0    0  0.40597267233E+02  0.19478775555E+02  0.12461304540E+01  0.45045683978E+02  0.00000000000E+00 0.  1.
         11    1    4    4    0    0  0.51574363177E+00  0.71767521737E-01 -0.29727044020E-01  0.52156114613E+00  0.51100000000E-03 0.  1.
        -11    1    4    4    0    0 -0.19653844612E+02 -0.85487408636E+01  0.56496080442E+00  0.21440003717E+02  0.51100000000E-03 0. -1.
         12    1    4    4    0    0 -0.21459166253E+02 -0.11001802213E+02 -0.17813642144E+01  0.24180751160E+02  0.00000000000E+00 0. -1.
</event>
<event>
 8    1  0.2882335E-009  0.9118800E+02  0.7816164E-02  0.1184000E+00
        -11   -1    0    0    0    0  0.00000000000E+00  0.00000000000E+00  0.45593999997E+02  0.45594000000E+02  0.51100000000E-03 0. -1.
         11   -1    0    0    0    0 -0.00000000000E+00 -0.00000000000E+00 -0.45593999997E+02  0.45594000000E+02  0.51100000000E-03 0.  1.
         23    2    1    2    0    0  0.00000000000E+00 -0.58980598183E-16 -0.71054273576E-14  0.91188000000E+02  0.91188000000E+02 0.  0.
    9900012    2    3    3    0    0 -0.20651327032E+01 -0.30862821685E-01 -0.44998309296E+02  0.46142316909E+02  0.99999922319E+01 0.  0.
         12    1    3    3    0    0  0.20651327032E+01  0.30862821685E-01  0.44998309296E+02  0.45045683091E+02  0.00000000000E+00 0. -1.
         11    1    4    4    0    0 -0.45094480900E+01  0.21562363449E+01 -0.17984912017E+02  0.18666588809E+02  0.51100000000E-03 0. -1.
        -11    1    4    4    0    0 -0.20090777352E+00 -0.67280332255E+00 -0.16862083057E+02  0.16876696167E+02  0.51100000000E-03 0.  1.
         12    1    4    4    0    0  0.26452231603E+01 -0.15142958441E+01 -0.10151314222E+02  0.10599031933E+02  0.00000000000E+00 0. -1.
</event>
<event>
 8    1  0.2882335E-009  0.9118800E+02  0.7816164E-02  0.1184000E+00
        -11   -1    0    0    0    0  0.00000000000E+00  0.00000000000E+00  0.45593999997E+02  0.45594000000E+02  0.51100000000E-03 0. -1.
         11   -1    0    0    0    0 -0.00000000000E+00 -0.00000000000E+00 -0.45593999997E+02  0.45594000000E+02  0.51100000000E-03 0.  1.
         23    2    1    2    0    0  0.22204460493E-15  0.00000000000E+00  0.35527136788E-14  0.91188000000E+02  0.91188000000E+02 0.  0.
    9900012    2    3    3    0    0  0.89892100995E+00  0.40167326967E+02  0.20368881091E+02  0.46142317281E+02  0.99999956264E+01 0.  0.
        -12    1    3    3    0    0 -0.89892100995E+00 -0.40167326967E+02 -0.20368881091E+02  0.45045682719E+02  0.00000000000E+00 0.  1.
         11    1    4    4    0    0  0.13161291263E+01  0.20056377438E+02  0.12789225285E+02  0.23823407722E+02  0.51100000000E-03 0. -1.
        -11    1    4    4    0    0  0.10155520614E+01  0.20814678528E+00  0.31756688947E+00  0.10842140306E+01  0.51100000000E-03 0.  1.
         12    1    4    4    0    0 -0.14327601778E+01  0.19902802744E+02  0.72620889160E+01  0.21234695529E+02  0.00000000000E+00 0. -1.
</event>
<event>
 8    1  0.2882335E-009  0.9118800E+02  0.7816164E-02  0.1184000E+00
        -11   -1    0    0    0    0  0.00000000000E+00  0.00000000000E+00  0.45593999997E+02  0.45594000000E+02  0.51100000000E-03 0. -1.
         11   -1    0    0    0    0 -0.00000000000E+00 -0.00000000000E+00 -0.45593999997E+02  0.45594000000E+02  0.51100000000E-03 0.  1.
         23    2    1    2    0    0  0.00000000000E+00 -0.35527136788E-14  0.00000000000E+00  0.91188000000E+02  0.91188000000E+02 0.  0.
    9900012    2    3    3    0    0 -0.22230057100E+02 -0.19358881065E+02 -0.34061274386E+02  0.46142332866E+02  0.10000137733E+02 0.  0.
         12    1    3    3    0    0  0.22230057100E+02  0.19358881065E+02  0.34061274386E+02  0.45045667134E+02  0.00000000000E+00 0. -1.
         11    1    4    4    0    0 -0.45828197069E+01 -0.57463006962E+01 -0.13481723236E+02  0.15355099148E+02  0.51100000000E-03 0. -1.
        -11    1    4    4    0    0 -0.11261386507E+02 -0.61816865894E+01 -0.13910994077E+02  0.18935359295E+02  0.51100000000E-03 0.  1.
        -12    1    4    4    0    0 -0.63858508866E+01 -0.74308937795E+01 -0.66685570730E+01  0.11851874423E+02  0.00000000000E+00 0.  1.
</event>
<event>
 8    1  0.2882335E-009  0.9118800E+02  0.7816164E-02  0.1184000E+00
        -11   -1    0    0    0    0  0.00000000000E+00  0.00000000000E+00  0.45593999997E+02  0.45594000000E+02  0.51100000000E-03 0. -1.
         11   -1    0    0    0    0 -0.00000000000E+00 -0.00000000000E+00 -0.45593999997E+02  0.45594000000E+02  0.51100000000E-03 0.  1.
         23    2    1    2    0    0 -0.35527136788E-14  0.35527136788E-14  0.00000000000E+00  0.91188000000E+02  0.91188000000E+02 0.  0.
    9900012    2    3    3    0    0  0.18140676827E+02 -0.22777353897E+02 -0.34368900677E+02  0.46142319408E+02  0.10000015013E+02 0.  0.
         12    1    3    3    0    0 -0.18140676827E+02  0.22777353897E+02  0.34368900677E+02  0.45045680592E+02  0.00000000000E+00 0. -1.
         11    1    4    4    0    0 -0.54690361677E+00 -0.48112318097E+00 -0.18747215639E+01  0.20112593777E+01  0.51100000000E-03 0. -1.
        -11    1    4    4    0    0  0.13876894160E+02 -0.13027502117E+02 -0.17481114872E+02  0.25843246320E+02  0.51100000000E-03 0.  1.
        -12    1    4    4    0    0  0.48106862833E+01 -0.92687285999E+01 -0.15013064241E+02  0.18287813710E+02  0.00000000000E+00 0.  1.
</event>
<event>
 8    1  0.2882335E-009  0.9118800E+02  0.7816164E-02  0.1184000E+00
        -11   -1    0    0    0    0  0.00000000000E+00  0.00000000000E+00  0.45593999997E+02  0.45594000000E+02  0.51100000000E-03 0. -1.
         11   -1    0    0    0    0 -0.00000000000E+00 -0.00000000000E+00 -0.45593999997E+02  0.45594000000E+02  0.51100000000E-03 0.  1.
         23    2    1    2    0    0  0.00000000000E+00  0.00000000000E+00  0.71054273576E-14  0.91188000000E+02  0.91188000000E+02 0.  0.
    9900012    2    3    3    0    0 -0.22990066967E+02 -0.19797556941E+02  0.33296050968E+02  0.46142318187E+02  0.10000003880E+02 0.  0.
        -12    1    3    3    0    0  0.22990066967E+02  0.19797556941E+02 -0.33296050968E+02  0.45045681813E+02  0.00000000000E+00 0.  1.
         11    1    4    4    0    0 -0.16136444938E+02 -0.14953623638E+02  0.25420691239E+02  0.33618555270E+02  0.51100000000E-03 0. -1.
        -11    1    4    4    0    0 -0.13922598342E+01 -0.10707124095E+01 -0.51008543476E+00  0.18289340944E+01  0.51100000000E-03 0.  1.
        -12    1    4    4    0    0 -0.54613621949E+01 -0.37732208938E+01  0.83854451637E+01  0.10694828822E+02  0.00000000000E+00 0.  1.
</event>
<event>
 8    1  0.2882335E-009  0.9118800E+02  0.7816164E-02  0.1184000E+00
        -11   -1    0    0    0    0  0.00000000000E+00  0.00000000000E+00  0.45593999997E+02  0.45594000000E+02  0.51100000000E-03 0. -1.
         11   -1    0    0    0    0 -0.00000000000E+00 -0.00000000000E+00 -0.45593999997E+02  0.45594000000E+02  0.51100000000E-03 0.  1.
         23    2    1    2    0    0  0.00000000000E+00 -0.22204460493E-15  0.00000000000E+00  0.91188000000E+02  0.91188000000E+02 0.  0.
    9900012    2    3    3    0    0  0.38285824927E+02 -0.19656068263E+01 -0.23652595537E+02  0.46142320116E+02  0.10000021478E+02 0.  0.
         12    1    3    3    0    0 -0.38285824927E+02  0.19656068263E+01  0.23652595537E+02  0.45045679884E+02  0.00000000000E+00 0. -1.
         11    1    4    4    0    0  0.83531106194E+01 -0.28160705190E+01 -0.74951161185E+01  0.11570716317E+02  0.51100000000E-03 0. -1.
        -11    1    4    4    0    0  0.28661191681E+02  0.13438329398E+01 -0.16586488377E+02  0.33141837494E+02  0.51100000000E-03 0.  1.
         12    1    4    4    0    0  0.12715226265E+01 -0.49336924716E+00  0.42900895801E+00  0.14297663060E+01  0.00000000000E+00 0. -1.
</event>
<event>
 8    1  0.2882335E-009  0.9118800E+02  0.7816164E-02  0.1184000E+00
        -11   -1    0    0    0    0  0.00000000000E+00  0.00000000000E+00  0.45593999997E+02  0.45594000000E+02  0.51100000000E-03 0. -1.
         11   -1    0    0    0    0 -0.00000000000E+00 -0.00000000000E+00 -0.45593999997E+02  0.45594000000E+02  0.51100000000E-03 0.  1.
         23    2    1    2    0    0 -0.38857805862E-15  0.00000000000E+00 -0.71054273576E-14  0.91188000000E+02  0.91188000000E+02 0.  0.
    9900012    2    3    3    0    0  0.38009825717E+00 -0.24338144598E+02 -0.37902818970E+02  0.46142318264E+02  0.10000004589E+02 0.  0.
         12    1    3    3    0    0 -0.38009825717E+00  0.24338144598E+02  0.37902818970E+02  0.45045681736E+02  0.00000000000E+00 0. -1.
         11    1    4    4    0    0  0.24632138671E+01 -0.12794507270E+02 -0.12395827887E+02  0.17983975871E+02  0.51100000000E-03 0.  1.
        -11    1    4    4    0    0 -0.58770394633E+00 -0.72384144632E+01 -0.17464912857E+02  0.18914629820E+02  0.51100000000E-03 0. -1.
        -12    1    4    4    0    0 -0.14954116636E+01 -0.43052228645E+01 -0.80420782259E+01  0.92437125738E+01  0.00000000000E+00 0.  1.
</event>
<event>
 8    1  0.2882335E-009  0.9118800E+02  0.7816164E-02  0.1184000E+00
        -11   -1    0    0    0    0  0.00000000000E+00  0.00000000000E+00  0.45593999997E+02  0.45594000000E+02  0.51100000000E-03 0.  1.
         11   -1    0    0    0    0 -0.00000000000E+00 -0.00000000000E+00 -0.45593999997E+02  0.45594000000E+02  0.51100000000E-03 0. -1.
         23    2    1    2    0    0 -0.35527136788E-14  0.00000000000E+00  0.00000000000E+00  0.91188000000E+02  0.91188000000E+02 0.  0.
    9900012    2    3    3    0    0  0.29185408236E+02  0.34088875208E+02  0.39081670265E+01  0.46142320559E+02  0.10000025512E+02 0.  0.
        -12    1    3    3    0    0 -0.29185408236E+02 -0.34088875208E+02 -0.39081670265E+01  0.45045679441E+02  0.00000000000E+00 0.  1.
         11    1    4    4    0    0  0.83501800383E+01  0.15536730883E+02 -0.64391601036E-01  0.17638584403E+02  0.51100000000E-03 0. -1.
        -11    1    4    4    0    0  0.17138971528E+02  0.13133821871E+02  0.39138365762E+01  0.21944469440E+02  0.51100000000E-03 0.  1.
        -12    1    4    4    0    0  0.36962566693E+01  0.54183224530E+01  0.58722051348E-01  0.65592667158E+01  0.00000000000E+00 0.  1.
</event>
<event>
 8    1  0.2882335E-009  0.9118800E+02  0.7816164E-02  0.1184000E+00
        -11   -1    0    0    0    0  0.00000000000E+00  0.00000000000E+00  0.45593999997E+02  0.45594000000E+02  0.51100000000E-03 0. -1.
         11   -1    0    0    0    0 -0.00000000000E+00 -0.00000000000E+00 -0.45593999997E+02  0.45594000000E+02  0.51100000000E-03 0.  1.
         23    2    1    2    0    0  0.00000000000E+00  0.00000000000E+00 -0.35527136788E-14  0.91188000000E+02  0.91188000000E+02 0.  0.
    9900012    2    3    3    0    0 -0.35501106113E+02 -0.87063807657E+01  0.26324587818E+02  0.46142317353E+02  0.99999962809E+01 0.  0.
        -12    1    3    3    0    0  0.35501106113E+02  0.87063807657E+01 -0.26324587818E+02  0.45045682647E+02  0.00000000000E+00 0.  1.
         11    1    4    4    0    0 -0.19870767691E+02 -0.65070531400E+01  0.15720144170E+02  0.26159359361E+02  0.51100000000E-03 0. -1.
        -11    1    4    4    0    0 -0.69736139505E+01 -0.21867831412E+01  0.82296765459E+01  0.11006402153E+02  0.51100000000E-03 0.  1.
        -12    1    4    4    0    0 -0.86567244721E+01 -0.12544484507E-01  0.23747671023E+01  0.89765558395E+01  0.00000000000E+00 0.  1.
</event>
<event>
 8    1  0.2882335E-009  0.9118800E+02  0.7816164E-02  0.1184000E+00
        -11   -1    0    0    0    0  0.00000000000E+00  0.00000000000E+00  0.45593999997E+02  0.45594000000E+02  0.51100000000E-03 0. -1.
         11   -1    0    0    0    0 -0.00000000000E+00 -0.00000000000E+00 -0.45593999997E+02  0.45594000000E+02  0.51100000000E-03 0.  1.
         23    2    1    2    0    0 -0.71054273576E-14 -0.17763568394E-14  0.71054273576E-14  0.91188000000E+02  0.91188000000E+02 0.  0.
    9900012    2    3    3    0    0 -0.27407094387E+02 -0.11928882933E+02  0.33699650381E+02  0.46142317559E+02  0.99999981526E+01 0.  0.
        -12    1    3    3    0    0  0.27407094387E+02  0.11928882933E+02 -0.33699650381E+02  0.45045682441E+02  0.00000000000E+00 0.  1.
         11    1    4    4    0    0 -0.20104961650E+02 -0.90286476270E+01  0.18596934786E+02  0.28836989174E+02  0.51100000000E-03 0. -1.
        -11    1    4    4    0    0 -0.30783113955E+01 -0.27839431261E+01  0.86192887190E+01  0.95665290811E+01  0.51100000000E-03 0.  1.
        -12    1    4    4    0    0 -0.42238213422E+01 -0.11629218001E+00  0.64834268765E+01  0.77387993038E+01  0.00000000000E+00 0.  1.
</event>
<event>
 8    1  0.2882335E-009  0.9118800E+02  0.7816164E-02  0.1184000E+00
        -11   -1    0    0    0    0  0.00000000000E+00  0.00000000000E+00  0.45593999997E+02  0.45594000000E+02  0.51100000000E-03 0.  1.
         11   -1    0    0    0    0 -0.00000000000E+00 -0.00000000000E+00 -0.45593999997E+02  0.45594000000E+02  0.51100000000E-03 0. -1.
         23    2    1    2    0    0  0.35527136788E-14  0.00000000000E+00 -0.88817841970E-15  0.91188000000E+02  0.91188000000E+02 0.  0.
    9900012    2    3    3    0    0 -0.18227702251E+02 -0.40619820981E+02  0.68479609651E+01  0.46142317019E+02  0.99999932310E+01 0.  0.
        -12    1    3    3    0    0  0.18227702251E+02  0.40619820981E+02 -0.68479609651E+01  0.45045682981E+02  0.00000000000E+00 0.  1.
         11    1    4    4    0    0 -0.54581015405E+01 -0.14554969478E+02 -0.21773013129E+01  0.15696453427E+02  0.51100000000E-03 0. -1.
        -11    1    4    4    0    0  0.50430331604E-01 -0.18989858947E+00  0.19784710966E-01  0.19747503270E+00  0.51100000000E-03 0.  1.
         12    1    4    4    0    0 -0.12820031042E+02 -0.25874952914E+02  0.90054775670E+01  0.30248388559E+02  0.00000000000E+00 0. -1.
</event>
<event>
 8    1  0.2882335E-009  0.9118800E+02  0.7816164E-02  0.1184000E+00
        -11   -1    0    0    0    0  0.00000000000E+00  0.00000000000E+00  0.45593999997E+02  0.45594000000E+02  0.51100000000E-03 0. -1.
         11   -1    0    0    0    0 -0.00000000000E+00 -0.00000000000E+00 -0.45593999997E+02  0.45594000000E+02  0.51100000000E-03 0.  1.
         23    2    1    2    0    0  0.35527136788E-14  0.00000000000E+00  0.35527136788E-14  0.91188000000E+02  0.91188000000E+02 0.  0.
    9900012    2    3    3    0    0 -0.26277914475E+02  0.21874247278E+02  0.29327496016E+02  0.46142317569E+02  0.99999982479E+01 0.  0.
        -12    1    3    3    0    0  0.26277914475E+02 -0.21874247278E+02 -0.29327496016E+02  0.45045682431E+02  0.00000000000E+00 0.  1.
         11    1    4    4    0    0 -0.87457524549E+01  0.46818256497E+01  0.12867679182E+02  0.16247610446E+02  0.51100000000E-03 0. -1.
        -11    1    4    4    0    0 -0.17788034495E+02  0.17065541014E+02  0.16385747557E+02  0.29599655143E+02  0.51100000000E-03 0.  1.
         12    1    4    4    0    0  0.25587247440E+00  0.12688061387E+00  0.74069276355E-01  0.29505198022E+00  0.00000000000E+00 0. -1.
</event>
<event>
 8    1  0.2882335E-009  0.9118800E+02  0.7816164E-02  0.1184000E+00
        -11   -1    0    0    0    0  0.00000000000E+00  0.00000000000E+00  0.45593999997E+02  0.45594000000E+02  0.51100000000E-03 0.  1.
         11   -1    0    0    0    0 -0.00000000000E+00 -0.00000000000E+00 -0.45593999997E+02  0.45594000000E+02  0.51100000000E-03 0. -1.
         23    2    1    2    0    0  0.35527136788E-14  0.35527136788E-14 -0.17763568394E-14  0.91188000000E+02  0.91188000000E+02 0.  0.
    9900012    2    3    3    0    0 -0.29001861137E+02 -0.30684865996E+02  0.15698555010E+02  0.46142316744E+02  0.99999907258E+01 0.  0.
        -12    1    3    3    0    0  0.29001861137E+02  0.30684865996E+02 -0.15698555010E+02  0.45045683256E+02  0.00000000000E+00 0.  1.
         11    1    4    4    0    0 -0.27973045680E+01 -0.41864527271E+01  0.35689788603E+00  0.50476406018E+01  0.51100000000E-03 0. -1.
        -11    1    4    4    0    0 -0.21876366152E+02 -0.20630757504E+02  0.15440889659E+02  0.33802731028E+02  0.51100000000E-03 0.  1.
        -12    1    4    4    0    0 -0.43281904172E+01 -0.58676557646E+01 -0.99232535109E-01  0.72919451147E+01  0.00000000000E+00 0.  1.
</event>
<event>
 8    1  0.2882335E-009  0.9118800E+02  0.7816164E-02  0.1184000E+00
        -11   -1    0    0    0    0  0.00000000000E+00  0.00000000000E+00  0.45593999997E+02  0.45594000000E+02  0.51100000000E-03 0. -1.
         11   -1    0    0    0    0 -0.00000000000E+00 -0.00000000000E+00 -0.45593999997E+02  0.45594000000E+02  0.51100000000E-03 0.  1.
         23    2    1    2    0    0  0.00000000000E+00  0.88817841970E-15  0.00000000000E+00  0.91188000000E+02  0.91188000000E+02 0.  0.
    9900012    2    3    3    0    0 -0.70561805355E+01  0.71352099246E+01 -0.43913694740E+02  0.46142317741E+02  0.99999998206E+01 0.  0.
         12    1    3    3    0    0  0.70561805355E+01 -0.71352099246E+01  0.43913694740E+02  0.45045682259E+02  0.00000000000E+00 0. -1.
         11    1    4    4    0    0  0.84493121404E+00  0.11774124627E+00 -0.10961306769E+02  0.10994453970E+02  0.51100000000E-03 0. -1.
        -11    1    4    4    0    0 -0.21109527217E+01  0.32188443634E+01 -0.20866786510E+02  0.21218856236E+02  0.51100000000E-03 0.  1.
        -12    1    4    4    0    0 -0.57901590279E+01  0.37986243149E+01 -0.12085601461E+02  0.13929007536E+02  0.00000000000E+00 0.  1.
</event>
<event>
 8    1  0.2882335E-009  0.9118800E+02  0.7816164E-02  0.1184000E+00
        -11   -1    0    0    0    0  0.00000000000E+00  0.00000000000E+00  0.45593999997E+02  0.45594000000E+02  0.51100000000E-03 0. -1.
         11   -1    0    0    0    0 -0.00000000000E+00 -0.00000000000E+00 -0.45593999997E+02  0.45594000000E+02  0.51100000000E-03 0.  1.
         23    2    1    2    0    0  0.00000000000E+00 -0.44408920985E-15  0.00000000000E+00  0.91188000000E+02  0.91188000000E+02 0.  0.
    9900012    2    3    3    0    0 -0.23056755881E+02 -0.37871208053E+01  0.38511779822E+02  0.46142318067E+02  0.10000002791E+02 0.  0.
        -12    1    3    3    0    0  0.23056755881E+02  0.37871208053E+01 -0.38511779822E+02  0.45045681933E+02  0.00000000000E+00 0.  1.
         11    1    4    4    0    0 -0.85408209009E+01 -0.38284891545E+01  0.18245111499E+02  0.20505780764E+02  0.51100000000E-03 0. -1.
        -11    1    4    4    0    0 -0.66939630257E-01 -0.53608754731E-01 -0.40584898453E+00  0.41481136923E+00  0.51100000000E-03 0.  1.
        -12    1    4    4    0    0 -0.14448995350E+02  0.94977103970E-01  0.20672517307E+02  0.25221725934E+02  0.00000000000E+00 0.  1.
</event>
<event>
 8    1  0.2882335E-009  0.9118800E+02  0.7816164E-02  0.1184000E+00
        -11   -1    0    0    0    0  0.00000000000E+00  0.00000000000E+00  0.45593999997E+02  0.45594000000E+02  0.51100000000E-03 0. -1.
         11   -1    0    0    0    0 -0.00000000000E+00 -0.00000000000E+00 -0.45593999997E+02  0.45594000000E+02  0.51100000000E-03 0.  1.
         23    2    1    2    0    0  0.44408920985E-15  0.00000000000E+00 -0.71054273576E-14  0.91188000000E+02  0.91188000000E+02 0.  0.
    9900012    2    3    3    0    0  0.32268539537E+01  0.29304722470E+02  0.34057805192E+02  0.46142318298E+02  0.10000004896E+02 0.  0.
        -12    1    3    3    0    0 -0.32268539537E+01 -0.29304722470E+02 -0.34057805192E+02  0.45045681702E+02  0.00000000000E+00 0.  1.
         11    1    4    4    0    0 -0.19330573070E+01  0.79969598820E+01  0.10474589032E+02  0.13319350343E+02  0.51100000000E-03 0. -1.
        -11    1    4    4    0    0  0.49317684445E+00  0.17496577501E+01 -0.17946321921E-01  0.18179240837E+01  0.51100000000E-03 0.  1.
        -12    1    4    4    0    0  0.46667344163E+01  0.19558104838E+02  0.23601162482E+02  0.31005043871E+02  0.00000000000E+00 0.  1.
</event>
<event>
 8    1  0.2882335E-009  0.9118800E+02  0.7816164E-02  0.1184000E+00
        -11   -1    0    0    0    0  0.00000000000E+00  0.00000000000E+00  0.45593999997E+02  0.45594000000E+02  0.51100000000E-03 0. -1.
         11   -1    0    0    0    0 -0.00000000000E+00 -0.00000000000E+00 -0.45593999997E+02  0.45594000000E+02  0.51100000000E-03 0.  1.
         23    2    1    2    0    0  0.00000000000E+00 -0.35527136788E-14  0.00000000000E+00  0.91188000000E+02  0.91188000000E+02 0.  0.
    9900012    2    3    3    0    0 -0.10909495078E+02 -0.28159679243E+02 -0.33423477920E+02  0.46142317697E+02  0.99999994114E+01 0.  0.
         12    1    3    3    0    0  0.10909495078E+02  0.28159679243E+02  0.33423477920E+02  0.45045682303E+02  0.00000000000E+00 0. -1.
         11    1    4    4    0    0 -0.48090680872E+01 -0.39209239003E+01 -0.54477889385E+01  0.82570687704E+01  0.51100000000E-03 0. -1.
        -11    1    4    4    0    0 -0.60932536184E+01 -0.14478973815E+02 -0.18677501102E+02  0.24405275456E+02  0.51100000000E-03 0.  1.
         12    1    4    4    0    0 -0.71733725032E-02 -0.97597815276E+01 -0.92981878790E+01  0.13479973470E+02  0.00000000000E+00 0. -1.
</event>
<event>
 8    1  0.2882335E-009  0.9118800E+02  0.7816164E-02  0.1184000E+00
        -11   -1    0    0    0    0  0.00000000000E+00  0.00000000000E+00  0.45593999997E+02  0.45594000000E+02  0.51100000000E-03 0. -1.
         11   -1    0    0    0    0 -0.00000000000E+00 -0.00000000000E+00 -0.45593999997E+02  0.45594000000E+02  0.51100000000E-03 0.  1.
         23    2    1    2    0    0  0.35527136788E-14 -0.17763568394E-14  0.00000000000E+00  0.91188000000E+02  0.91188000000E+02 0.  0.
    9900012    2    3    3    0    0 -0.26997411248E+02 -0.14847434033E+02 -0.32860413074E+02  0.46142320309E+02  0.10000023230E+02 0.  0.
         12    1    3    3    0    0  0.26997411248E+02  0.14847434033E+02  0.32860413074E+02  0.45045679691E+02  0.00000000000E+00 0. -1.
         11    1    4    4    0    0 -0.13069304612E+02 -0.99206789410E+01 -0.16677174582E+02  0.23395613819E+02  0.51100000000E-03 0.  1.
        -11    1    4    4    0    0 -0.43596653385E+00  0.22704100088E+00 -0.34724577922E+01  0.35070753933E+01  0.51100000000E-03 0. -1.
        -12    1    4    4    0    0 -0.13492140102E+02 -0.51537960925E+01 -0.12710780700E+02  0.19239631096E+02  0.00000000000E+00 0.  1.
</event>
<event>
 8    1  0.2882335E-009  0.9118800E+02  0.7816164E-02  0.1184000E+00
        -11   -1    0    0    0    0  0.00000000000E+00  0.00000000000E+00  0.45593999997E+02  0.45594000000E+02  0.51100000000E-03 0. -1.
         11   -1    0    0    0    0 -0.00000000000E+00 -0.00000000000E+00 -0.45593999997E+02  0.45594000000E+02  0.51100000000E-03 0.  1.
         23    2    1    2    0    0 -0.88817841970E-15  0.00000000000E+00  0.00000000000E+00  0.91188000000E+02  0.91188000000E+02 0.  0.
    9900012    2    3    3    0    0  0.51582984265E+01  0.13287400046E+02  0.42731141862E+02  0.46142317327E+02  0.99999960432E+01 0.  0.
        -12    1    3    3    0    0 -0.51582984265E+01 -0.13287400046E+02 -0.42731141862E+02  0.45045682673E+02  0.00000000000E+00 0.  1.
         11    1    4    4    0    0  0.36233100414E+01  0.58872974353E+01  0.18745867101E+02  0.19979894403E+02  0.51100000000E-03 0. -1.
        -11    1    4    4    0    0  0.23467486610E+01  0.10681115129E+01  0.19830021391E+01  0.32527510244E+01  0.51100000000E-03 0.  1.
         12    1    4    4    0    0 -0.81176027588E+00  0.63319910973E+01  0.22002272622E+02  0.22909671900E+02  0.00000000000E+00 0. -1.
</event>
<event>
 8    1  0.2882335E-009  0.9118800E+02  0.7816164E-02  0.1184000E+00
        -11   -1    0    0    0    0  0.00000000000E+00  0.00000000000E+00  0.45593999997E+02  0.45594000000E+02  0.51100000000E-03 0. -1.
         11   -1    0    0    0    0 -0.00000000000E+00 -0.00000000000E+00 -0.45593999997E+02  0.45594000000E+02  0.51100000000E-03 0.  1.
         23    2    1    2    0    0  0.00000000000E+00  0.35527136788E-14  0.00000000000E+00  0.91188000000E+02  0.91188000000E+02 0.  0.
    9900012    2    3    3    0    0 -0.28716876826E+02  0.25039718753E+02 -0.24030539683E+02  0.46142319105E+02  0.10000012255E+02 0.  0.
         12    1    3    3    0    0  0.28716876826E+02 -0.25039718753E+02  0.24030539683E+02  0.45045680895E+02  0.00000000000E+00 0. -1.
         11    1    4    4    0    0 -0.45105592255E+01  0.53015166444E+01 -0.84686929663E+01  0.10962207081E+02  0.51100000000E-03 0. -1.
        -11    1    4    4    0    0 -0.16922471129E+02  0.11207102545E+02 -0.92078835453E+01  0.22287985468E+02  0.51100000000E-03 0.  1.
         12    1    4    4    0    0 -0.72838464711E+01  0.85310995629E+01 -0.63539631715E+01  0.12892126557E+02  0.00000000000E+00 0. -1.
</event>
<event>
 8    1  0.2882335E-009  0.9118800E+02  0.7816164E-02  0.1184000E+00
        -11   -1    0    0    0    0  0.00000000000E+00  0.00000000000E+00  0.45593999997E+02  0.45594000000E+02  0.51100000000E-03 0. -1.
         11   -1    0    0    0    0 -0.00000000000E+00 -0.00000000000E+00 -0.45593999997E+02  0.45594000000E+02  0.51100000000E-03 0.  1.
         23    2    1    2    0    0  0.22204460493E-15  0.35527136788E-14  0.00000000000E+00  0.91188000000E+02  0.91188000000E+02 0.  0.
    9900012    2    3    3    0    0 -0.54245803236E+00 -0.23487049947E+02 -0.38434067060E+02  0.46142320000E+02  0.10000020412E+02 0.  0.
         12    1    3    3    0    0  0.54245803236E+00  0.23487049947E+02  0.38434067060E+02  0.45045680000E+02  0.00000000000E+00 0. -1.
         11    1    4    4    0    0 -0.31083605083E+01 -0.45973651397E+01 -0.59792738579E+01  0.81577807893E+01  0.51100000000E-03 0. -1.
        -11    1    4    4    0    0  0.76376046509E+00 -0.13799090995E+02 -0.26870523243E+02  0.30216274786E+02  0.51100000000E-03 0.  1.
         12    1    4    4    0    0  0.18021420108E+01 -0.50905938120E+01 -0.55842699593E+01  0.77682644242E+01  0.00000000000E+00 0. -1.
</event>
<event>
 8    1  0.2882335E-009  0.9118800E+02  0.7816164E-02  0.1184000E+00
        -11   -1    0    0    0    0  0.00000000000E+00  0.00000000000E+00  0.45593999997E+02  0.45594000000E+02  0.51100000000E-03 0.  1.
         11   -1    0    0    0    0 -0.00000000000E+00 -0.00000000000E+00 -0.45593999997E+02  0.45594000000E+02  0.51100000000E-03 0. -1.
         23    2    1    2    0    0 -0.35527136788E-14 -0.71054273576E-14  0.35527136788E-14  0.91188000000E+02  0.91188000000E+02 0.  0.
    9900012    2    3    3    0    0 -0.15831228013E+02 -0.36819436525E+02  0.20562460823E+02  0.46142317837E+02  0.10000000693E+02 0.  0.
        -12    1    3    3    0    0  0.15831228013E+02  0.36819436525E+02 -0.20562460823E+02  0.45045682163E+02  0.00000000000E+00 0.  1.
         11    1    4    4    0    0 -0.97364634340E+01 -0.22516343973E+02  0.13281830862E+02  0.27896083908E+02  0.51100000000E-03 0. -1.
        -11    1    4    4    0    0 -0.16826668856E+01 -0.28413257893E+01 -0.98053078333E+00  0.34446975146E+01  0.51100000000E-03 0.  1.
        -12    1    4    4    0    0 -0.44120976935E+01 -0.11461766763E+02  0.82611607438E+01  0.14801536414E+02  0.00000000000E+00 0.  1.
</event>
<event>
 8    1  0.2882335E-009  0.9118800E+02  0.7816164E-02  0.1184000E+00
        -11   -1    0    0    0    0  0.00000000000E+00  0.00000000000E+00  0.45593999997E+02  0.45594000000E+02  0.51100000000E-03 0. -1.
         11   -1    0    0    0    0 -0.00000000000E+00 -0.00000000000E+00 -0.45593999997E+02  0.45594000000E+02  0.51100000000E-03 0.  1.
         23    2    1    2    0    0  0.35527136788E-14  0.88817841970E-15  0.00000000000E+00  0.91188000000E+02  0.91188000000E+02 0.  0.
    9900012    2    3    3    0    0 -0.29633414911E+02 -0.62192334941E+01  0.33351092885E+02  0.46142317175E+02  0.99999946567E+01 0.  0.
        -12    1    3    3    0    0  0.29633414911E+02  0.62192334941E+01 -0.33351092885E+02  0.45045682825E+02  0.00000000000E+00 0.  1.
         11    1    4    4    0    0  0.91535191790E-01 -0.61298721205E+00  0.37215058085E+01  0.37727626161E+01  0.51100000000E-03 0.  1.
        -11    1    4    4    0    0 -0.19255592738E+02 -0.43476605344E+01  0.19121370443E+02  0.27482845771E+02  0.51100000000E-03 0. -1.
        -12    1    4    4    0    0 -0.10469357365E+02 -0.12585857477E+01  0.10508216634E+02  0.14886708788E+02  0.00000000000E+00 0.  1.
</event>
<event>
 8    1  0.2882335E-009  0.9118800E+02  0.7816164E-02  0.1184000E+00
        -11   -1    0    0    0    0  0.00000000000E+00  0.00000000000E+00  0.45593999997E+02  0.45594000000E+02  0.51100000000E-03 0. -1.
         11   -1    0    0    0    0 -0.00000000000E+00 -0.00000000000E+00 -0.45593999997E+02  0.45594000000E+02  0.51100000000E-03 0.  1.
         23    2    1    2    0    0  0.00000000000E+00  0.00000000000E+00  0.00000000000E+00  0.91188000000E+02  0.91188000000E+02 0.  0.
    9900012    2    3    3    0    0  0.37632541860E+02 -0.20028382367E+02 -0.14552294379E+02  0.46142316757E+02  0.99999908478E+01 0.  0.
         12    1    3    3    0    0 -0.37632541860E+02  0.20028382367E+02  0.14552294379E+02  0.45045683243E+02  0.00000000000E+00 0. -1.
         11    1    4    4    0    0  0.70865548955E+01 -0.14638764327E+00 -0.63521144001E+00  0.71164726841E+01  0.51100000000E-03 0. -1.
        -11    1    4    4    0    0  0.15430355747E+02 -0.10573339268E+02 -0.69068268892E+01  0.19939800393E+02  0.51100000000E-03 0.  1.
         12    1    4    4    0    0  0.15115631217E+02 -0.93086554548E+01 -0.70102560503E+01  0.19086043680E+02  0.00000000000E+00 0. -1.
</event>
<event>
 8    1  0.2882335E-009  0.9118800E+02  0.7816164E-02  0.1184000E+00
        -11   -1    0    0    0    0  0.00000000000E+00  0.00000000000E+00  0.45593999997E+02  0.45594000000E+02  0.51100000000E-03 0. -1.
         11   -1    0    0    0    0 -0.00000000000E+00 -0.00000000000E+00 -0.45593999997E+02  0.45594000000E+02  0.51100000000E-03 0.  1.
         23    2    1    2    0    0  0.35527136788E-14  0.35527136788E-14 -0.35527136788E-14  0.91188000000E+02  0.91188000000E+02 0.  0.
    9900012    2    3    3    0    0  0.23002695420E+02  0.24611487958E+02 -0.29904249534E+02  0.46142317895E+02  0.10000001225E+02 0.  0.
         12    1    3    3    0    0 -0.23002695420E+02 -0.24611487958E+02  0.29904249534E+02  0.45045682105E+02  0.00000000000E+00 0. -1.
         11    1    4    4    0    0  0.15235438741E+02  0.14661688218E+02 -0.22264350361E+02  0.30704804059E+02  0.51100000000E-03 0. -1.
        -11    1    4    4    0    0  0.17393542922E+01  0.84641782886E+00 -0.30105254555E+01  0.35784130944E+01  0.51100000000E-03 0.  1.
         12    1    4    4    0    0  0.60279023866E+01  0.91033819108E+01 -0.46293737177E+01  0.11859100742E+02  0.00000000000E+00 0. -1.
</event>
<event>
 8    1  0.2882335E-009  0.9118800E+02  0.7816164E-02  0.1184000E+00
        -11   -1    0    0    0    0  0.00000000000E+00  0.00000000000E+00  0.45593999997E+02  0.45594000000E+02  0.51100000000E-03 0. -1.
         11   -1    0    0    0    0 -0.00000000000E+00 -0.00000000000E+00 -0.45593999997E+02  0.45594000000E+02  0.51100000000E-03 0.  1.
         23    2    1    2    0    0  0.35527136788E-14  0.35527136788E-14  0.00000000000E+00  0.91188000000E+02  0.91188000000E+02 0.  0.
    9900012    2    3    3    0    0  0.17782535487E+02  0.20276704729E+02  0.36079775074E+02  0.46142317716E+02  0.99999995927E+01 0.  0.
        -12    1    3    3    0    0 -0.17782535487E+02 -0.20276704729E+02 -0.36079775074E+02  0.45045682284E+02  0.00000000000E+00 0.  1.
         11    1    4    4    0    0  0.68075479336E+01  0.96583091830E+01  0.12991224691E+02  0.17561251788E+02  0.51100000000E-03 0. -1.
        -11    1    4    4    0    0 -0.77629580964E+00  0.14235409684E+01  0.93662206695E+00  0.18725290999E+01  0.51100000000E-03 0.  1.
        -12    1    4    4    0    0  0.11751283363E+02  0.91948545772E+01  0.22151928316E+02  0.26708536828E+02  0.00000000000E+00 0.  1.
</event>
<event>
 8    1  0.2882335E-009  0.9118800E+02  0.7816164E-02  0.1184000E+00
        -11   -1    0    0    0    0  0.00000000000E+00  0.00000000000E+00  0.45593999997E+02  0.45594000000E+02  0.51100000000E-03 0. -1.
         11   -1    0    0    0    0 -0.00000000000E+00 -0.00000000000E+00 -0.45593999997E+02  0.45594000000E+02  0.51100000000E-03 0.  1.
         23    2    1    2    0    0  0.00000000000E+00  0.00000000000E+00  0.00000000000E+00  0.91188000000E+02  0.91188000000E+02 0.  0.
    9900012    2    3    3    0    0 -0.37076796158E+02  0.14795337021E+02  0.20869178600E+02  0.46142318449E+02  0.10000006273E+02 0.  0.
        -12    1    3    3    0    0  0.37076796158E+02 -0.14795337021E+02 -0.20869178600E+02  0.45045681551E+02  0.00000000000E+00 0.  1.
         11    1    4    4    0    0 -0.25300906408E+02  0.13473914826E+02  0.13593398645E+02  0.31724796812E+02  0.51100000000E-03 0. -1.
        -11    1    4    4    0    0 -0.12927515645E+01  0.13789167888E+01  0.57501490410E+00  0.19756671074E+01  0.51100000000E-03 0.  1.
         12    1    4    4    0    0 -0.10483138186E+02 -0.57494594059E-01  0.67007650515E+01  0.12441854529E+02  0.00000000000E+00 0. -1.
</event>
<event>
 8    1  0.2882335E-009  0.9118800E+02  0.7816164E-02  0.1184000E+00
        -11   -1    0    0    0    0  0.00000000000E+00  0.00000000000E+00  0.45593999997E+02  0.45594000000E+02  0.51100000000E-03 0. -1.
         11   -1    0    0    0    0 -0.00000000000E+00 -0.00000000000E+00 -0.45593999997E+02  0.45594000000E+02  0.51100000000E-03 0.  1.
         23    2    1    2    0    0  0.00000000000E+00  0.00000000000E+00  0.00000000000E+00  0.91188000000E+02  0.91188000000E+02 0.  0.
    9900012    2    3    3    0    0  0.64798312077E+01 -0.23782599780E+02  0.37702956895E+02  0.46142320702E+02  0.10000026815E+02 0.  0.
        -12    1    3    3    0    0 -0.64798312077E+01  0.23782599780E+02 -0.37702956895E+02  0.45045679298E+02  0.00000000000E+00 0.  1.
         11    1    4    4    0    0  0.19430000341E+01 -0.14118190025E+02  0.27679929214E+02  0.31133214101E+02  0.51100000000E-03 0. -1.
        -11    1    4    4    0    0 -0.40573988106E-01 -0.29965501033E+01  0.35790187637E+01  0.46680118190E+01  0.51100000000E-03 0.  1.
        -12    1    4    4    0    0  0.45774051617E+01 -0.66678596515E+01  0.64440089176E+01  0.10341094781E+02  0.00000000000E+00 0.  1.
</event>
<event>
 8    1  0.3209264E-009  0.9118800E+02  0.7816164E-02  0.1184000E+00
        -11   -1    0    0    0    0  0.00000000000E+00  0.00000000000E+00  0.45593999997E+02  0.45594000000E+02  0.51100000000E-03 0. -1.
         11   -1    0    0    0    0 -0.00000000000E+00 -0.00000000000E+00 -0.45593999997E+02  0.45594000000E+02  0.51100000000E-03 0.  1.
         23    2    1    2    0    0  0.00000000000E+00  0.00000000000E+00 -0.71054273576E-14  0.91188000000E+02  0.91188000000E+02 0.  0.
    9900012    2    3    3    0    0 -0.10376632851E+02  0.16604099452E+02 -0.40567755170E+02  0.46142318881E+02  0.10000010213E+02 0.  0.
         12    1    3    3    0    0  0.10376632851E+02 -0.16604099452E+02  0.40567755170E+02  0.45045681119E+02  0.00000000000E+00 0. -1.
         11    1    4    4    0    0  0.60638837698E+00  0.31684659283E+01 -0.55248763024E+01  0.63977450419E+01  0.51100000000E-03 0. -1.
        -11    1    4    4    0    0 -0.14843887412E+00 -0.51086976237E+00 -0.39545261357E+01  0.39901502769E+01  0.51100000000E-03 0.  1.
        -12    1    4    4    0    0 -0.10834582353E+02  0.13946503286E+02 -0.31088352732E+02  0.35754423562E+02  0.00000000000E+00 0.  1.
</event>
<event>
 8    1  0.2882335E-009  0.9118800E+02  0.7816164E-02  0.1184000E+00
        -11   -1    0    0    0    0  0.00000000000E+00  0.00000000000E+00  0.45593999997E+02  0.45594000000E+02  0.51100000000E-03 0. -1.
         11   -1    0    0    0    0 -0.00000000000E+00 -0.00000000000E+00 -0.45593999997E+02  0.45594000000E+02  0.51100000000E-03 0.  1.
         23    2    1    2    0    0  0.00000000000E+00  0.71054273576E-14  0.00000000000E+00  0.91188000000E+02  0.91188000000E+02 0.  0.
    9900012    2    3    3    0    0 -0.15644867441E+02  0.34610462571E+02 -0.24217073958E+02  0.46142326870E+02  0.10000083062E+02 0.  0.
         12    1    3    3    0    0  0.15644867441E+02 -0.34610462571E+02  0.24217073958E+02  0.45045673130E+02  0.00000000000E+00 0. -1.
         11    1    4    4    0    0 -0.25200457503E-01 -0.32358371163E+00 -0.55621821720E+00  0.64398792516E+00  0.51100000000E-03 0. -1.
        -11    1    4    4    0    0 -0.55244206411E+01  0.57169701073E+01 -0.48047987687E+01  0.92891906050E+01  0.51100000000E-03 0.  1.
         12    1    4    4    0    0 -0.10095246343E+02  0.29217076176E+02 -0.18856056972E+02  0.36209148340E+02  0.00000000000E+00 0. -1.
</event>
<event>
 8    1  0.2882335E-009  0.9118800E+02  0.7816164E-02  0.1184000E+00
        -11   -1    0    0    0    0  0.00000000000E+00  0.00000000000E+00  0.45593999997E+02  0.45594000000E+02  0.51100000000E-03 0. -1.
         11   -1    0    0    0    0 -0.00000000000E+00 -0.00000000000E+00 -0.45593999997E+02  0.45594000000E+02  0.51100000000E-03 0.  1.
         23    2    1    2    0    0  0.35527136788E-14  0.00000000000E+00  0.00000000000E+00  0.91188000000E+02  0.91188000000E+02 0.  0.
    9900012    2    3    3    0    0  0.22722293467E+02 -0.21560919881E+01 -0.38835064470E+02  0.46142316684E+02  0.99999901784E+01 0.  0.
         12    1    3    3    0    0 -0.22722293467E+02  0.21560919881E+01  0.38835064470E+02  0.45045683316E+02  0.00000000000E+00 0. -1.
         11    1    4    4    0    0  0.72724547046E+01  0.48664959499E+00 -0.13973583432E+02  0.15760281071E+02  0.51100000000E-03 0. -1.
        -11    1    4    4    0    0  0.11717329817E+02 -0.10703275660E+01 -0.11627185526E+02  0.16541851851E+02  0.51100000000E-03 0.  1.
        -12    1    4    4    0    0  0.37325089449E+01 -0.15724140171E+01 -0.13234295512E+02  0.13840183762E+02  0.00000000000E+00 0.  1.
</event>
<event>
 8    1  0.2882335E-009  0.9118800E+02  0.7816164E-02  0.1184000E+00
        -11   -1    0    0    0    0  0.00000000000E+00  0.00000000000E+00  0.45593999997E+02  0.45594000000E+02  0.51100000000E-03 0. -1.
         11   -1    0    0    0    0 -0.00000000000E+00 -0.00000000000E+00 -0.45593999997E+02  0.45594000000E+02  0.51100000000E-03 0.  1.
         23    2    1    2    0    0  0.00000000000E+00  0.00000000000E+00  0.00000000000E+00  0.91188000000E+02  0.91188000000E+02 0.  0.
    9900012    2    3    3    0    0  0.17967903449E+02  0.19370921669E+01  0.41261552575E+02  0.46142316507E+02  0.99999885655E+01 0.  0.
        -12    1    3    3    0    0 -0.17967903449E+02 -0.19370921669E+01 -0.41261552575E+02  0.45045683493E+02  0.00000000000E+00 0.  1.
         11    1    4    4    0    0  0.11951917805E+02  0.17194148020E+01  0.18475605804E+02  0.22071536796E+02  0.51100000000E-03 0. -1.
        -11    1    4    4    0    0  0.12749297363E+00 -0.70782659187E+00  0.92813290175E+01  0.93091536423E+01  0.51100000000E-03 0.  1.
        -12    1    4    4    0    0  0.58884926702E+01  0.92550395672E+00  0.13504617754E+02  0.14761626068E+02  0.00000000000E+00 0.  1.
</event>
<event>
 8    1  0.2882335E-009  0.9118800E+02  0.7816164E-02  0.1184000E+00
        -11   -1    0    0    0    0  0.00000000000E+00  0.00000000000E+00  0.45593999997E+02  0.45594000000E+02  0.51100000000E-03 0. -1.
         11   -1    0    0    0    0 -0.00000000000E+00 -0.00000000000E+00 -0.45593999997E+02  0.45594000000E+02  0.51100000000E-03 0.  1.
         23    2    1    2    0    0  0.44408920985E-15  0.00000000000E+00 -0.71054273576E-14  0.91188000000E+02  0.91188000000E+02 0.  0.
    9900012    2    3    3    0    0  0.30239579414E+01 -0.25619266839E+02 -0.36927255922E+02  0.46142318909E+02  0.10000010471E+02 0.  0.
         12    1    3    3    0    0 -0.30239579414E+01  0.25619266839E+02  0.36927255922E+02  0.45045681091E+02  0.00000000000E+00 0. -1.
         11    1    4    4    0    0  0.19568996227E+01 -0.24442426597E+01 -0.71958737372E+01  0.78475714342E+01  0.51100000000E-03 0. -1.
        -11    1    4    4    0    0  0.28647829058E+01 -0.19513193474E+02 -0.26784732238E+02  0.33262495125E+02  0.51100000000E-03 0.  1.
         12    1    4    4    0    0 -0.17977245871E+01 -0.36618307048E+01 -0.29466499474E+01  0.50322523500E+01  0.00000000000E+00 0. -1.
</event>
<event>
 8    1  0.2882335E-009  0.9118800E+02  0.7816164E-02  0.1184000E+00
        -11   -1    0    0    0    0  0.00000000000E+00  0.00000000000E+00  0.45593999997E+02  0.45594000000E+02  0.51100000000E-03 0. -1.
         11   -1    0    0    0    0 -0.00000000000E+00 -0.00000000000E+00 -0.45593999997E+02  0.45594000000E+02  0.51100000000E-03 0.  1.
         23    2    1    2    0    0  0.71054273576E-14  0.00000000000E+00  0.00000000000E+00  0.91188000000E+02  0.91188000000E+02 0.  0.
    9900012    2    3    3    0    0 -0.32560379641E+02 -0.20657009242E+02  0.23285684764E+02  0.46142317986E+02  0.10000002049E+02 0.  0.
        -12    1    3    3    0    0  0.32560379641E+02  0.20657009242E+02 -0.23285684764E+02  0.45045682014E+02  0.00000000000E+00 0.  1.
         11    1    4    4    0    0 -0.11994710177E+02 -0.86291848113E+01  0.13046457079E+02  0.19711568819E+02  0.51100000000E-03 0. -1.
        -11    1    4    4    0    0 -0.89486236455E+01 -0.53081563511E+01  0.72500544016E+01  0.12681391015E+02  0.51100000000E-03 0.  1.
         12    1    4    4    0    0 -0.11617045819E+02 -0.67196680799E+01  0.29891732831E+01  0.13749358151E+02  0.00000000000E+00 0. -1.
</event>
<event>
 8    1  0.2882335E-009  0.9118800E+02  0.7816164E-02  0.1184000E+00
        -11   -1    0    0    0    0  0.00000000000E+00  0.00000000000E+00  0.45593999997E+02  0.45594000000E+02  0.51100000000E-03 0. -1.
         11   -1    0    0    0    0 -0.00000000000E+00 -0.00000000000E+00 -0.45593999997E+02  0.45594000000E+02  0.51100000000E-03 0.  1.
         23    2    1    2    0    0 -0.35527136788E-14  0.00000000000E+00 -0.71054273576E-14  0.91188000000E+02  0.91188000000E+02 0.  0.
    9900012    2    3    3    0    0 -0.25562600472E+02  0.28914853596E+02 -0.23229246729E+02  0.46142320907E+02  0.10000028685E+02 0.  0.
         12    1    3    3    0    0  0.25562600472E+02 -0.28914853596E+02  0.23229246729E+02  0.45045679093E+02  0.00000000000E+00 0. -1.
         11    1    4    4    0    0 -0.62468481257E+01  0.26633620941E+01 -0.28001740920E+01  0.73455826424E+01  0.51100000000E-03 0. -1.
        -11    1    4    4    0    0 -0.15089996983E+02  0.22330620721E+02 -0.14836087771E+02  0.30764819703E+02  0.51100000000E-03 0.  1.
        -12    1    4    4    0    0 -0.42257553631E+01  0.39208707814E+01 -0.55929848657E+01  0.80319185616E+01  0.00000000000E+00 0.  1.
</event>
<event>
 8    1  0.2882335E-009  0.9118800E+02  0.7816164E-02  0.1184000E+00
        -11   -1    0    0    0    0  0.00000000000E+00  0.00000000000E+00  0.45593999997E+02  0.45594000000E+02  0.51100000000E-03 0. -1.
         11   -1    0    0    0    0 -0.00000000000E+00 -0.00000000000E+00 -0.45593999997E+02  0.45594000000E+02  0.51100000000E-03 0.  1.
         23    2    1    2    0    0  0.00000000000E+00  0.17763568394E-14  0.00000000000E+00  0.91188000000E+02  0.91188000000E+02 0.  0.
    9900012    2    3    3    0    0 -0.16046924642E+02 -0.10271898643E+02  0.40817862028E+02  0.46142317047E+02  0.99999934877E+01 0.  0.
        -12    1    3    3    0    0  0.16046924642E+02  0.10271898643E+02 -0.40817862028E+02  0.45045682953E+02  0.00000000000E+00 0.  1.
         11    1    4    4    0    0 -0.15378126921E+01 -0.29822785593E+01  0.14156090301E+02  0.14548324514E+02  0.51100000000E-03 0. -1.
        -11    1    4    4    0    0 -0.92511116699E+01 -0.19456439842E+01  0.14769099322E+02  0.17535532289E+02  0.51100000000E-03 0.  1.
        -12    1    4    4    0    0 -0.52580002804E+01 -0.53439760991E+01  0.11892672405E+02  0.14058460244E+02  0.00000000000E+00 0.  1.
</event>
<event>
 8    1  0.2882335E-009  0.9118800E+02  0.7816164E-02  0.1184000E+00
        -11   -1    0    0    0    0  0.00000000000E+00  0.00000000000E+00  0.45593999997E+02  0.45594000000E+02  0.51100000000E-03 0. -1.
         11   -1    0    0    0    0 -0.00000000000E+00 -0.00000000000E+00 -0.45593999997E+02  0.45594000000E+02  0.51100000000E-03 0.  1.
         23    2    1    2    0    0 -0.17763568394E-14  0.88817841970E-15  0.00000000000E+00  0.91188000000E+02  0.91188000000E+02 0.  0.
    9900012    2    3    3    0    0  0.13278392382E+02 -0.49790980610E+01  0.42755190972E+02  0.46142317890E+02  0.10000001174E+02 0.  0.
        -12    1    3    3    0    0 -0.13278392382E+02  0.49790980610E+01 -0.42755190972E+02  0.45045682110E+02  0.00000000000E+00 0.  1.
         11    1    4    4    0    0  0.56362457877E+01 -0.61036773511E+01  0.17740801943E+02  0.19589747258E+02  0.51100000000E-03 0. -1.
        -11    1    4    4    0    0  0.10166403516E+01  0.19651776675E+01  0.69111591428E+01  0.72566935878E+01  0.51100000000E-03 0.  1.
         12    1    4    4    0    0  0.66255062426E+01 -0.84059837737E+00  0.18103229886E+02  0.19295877044E+02  0.00000000000E+00 0. -1.
</event>
<event>
 8    1  0.2882335E-009  0.9118800E+02  0.7816164E-02  0.1184000E+00
        -11   -1    0    0    0    0  0.00000000000E+00  0.00000000000E+00  0.45593999997E+02  0.45594000000E+02  0.51100000000E-03 0.  1.
         11   -1    0    0    0    0 -0.00000000000E+00 -0.00000000000E+00 -0.45593999997E+02  0.45594000000E+02  0.51100000000E-03 0. -1.
         23    2    1    2    0    0 -0.71054273576E-14  0.00000000000E+00  0.00000000000E+00  0.91188000000E+02  0.91188000000E+02 0.  0.
    9900012    2    3    3    0    0 -0.42767463165E+02 -0.13589645512E+02 -0.39216282658E+01  0.46142317199E+02  0.99999948783E+01 0.  0.
         12    1    3    3    0    0  0.42767463165E+02  0.13589645512E+02  0.39216282658E+01  0.45045682801E+02  0.00000000000E+00 0. -1.
         11    1    4    4    0    0 -0.44571073434E+01 -0.40523109451E+01  0.20183289588E+00  0.60272519978E+01  0.51100000000E-03 0. -1.
        -11    1    4    4    0    0 -0.34897969932E+02 -0.99478015764E+01 -0.26789436541E+01  0.36386863026E+02  0.51100000000E-03 0.  1.
        -12    1    4    4    0    0 -0.34123858901E+01  0.41046700951E+00 -0.14445175076E+01  0.37282021751E+01  0.00000000000E+00 0.  1.
</event>
<event>
 8    1  0.2882335E-009  0.9118800E+02  0.7816164E-02  0.1184000E+00
        -11   -1    0    0    0    0  0.00000000000E+00  0.00000000000E+00  0.45593999997E+02  0.45594000000E+02  0.51100000000E-03 0. -1.
         11   -1    0    0    0    0 -0.00000000000E+00 -0.00000000000E+00 -0.45593999997E+02  0.45594000000E+02  0.51100000000E-03 0.  1.
         23    2    1    2    0    0  0.71054273576E-14  0.00000000000E+00  0.00000000000E+00  0.91188000000E+02  0.91188000000E+02 0.  0.
    9900012    2    3    3    0    0 -0.35260508405E+02  0.27410824889E+02 -0.58699695227E+01  0.46142319671E+02  0.10000017420E+02 0.  0.
         12    1    3    3    0    0  0.35260508405E+02 -0.27410824889E+02  0.58699695227E+01  0.45045680329E+02  0.00000000000E+00 0. -1.
         11    1    4    4    0    0 -0.86221387684E+01  0.98078561082E+01  0.50858174959E+00  0.13068816857E+02  0.51100000000E-03 0. -1.
        -11    1    4    4    0    0 -0.17574901501E+02  0.12633841406E+02 -0.16514029206E+01  0.21707561893E+02  0.51100000000E-03 0.  1.
         12    1    4    4    0    0 -0.90634681350E+01  0.49691273749E+01 -0.47271483516E+01  0.11365940922E+02  0.00000000000E+00 0. -1.
</event>
<event>
 8    1  0.2882335E-009  0.9118800E+02  0.7816164E-02  0.1184000E+00
        -11   -1    0    0    0    0  0.00000000000E+00  0.00000000000E+00  0.45593999997E+02  0.45594000000E+02  0.51100000000E-03 0. -1.
         11   -1    0    0    0    0 -0.00000000000E+00 -0.00000000000E+00 -0.45593999997E+02  0.45594000000E+02  0.51100000000E-03 0.  1.
         23    2    1    2    0    0  0.00000000000E+00  0.00000000000E+00 -0.71054273576E-14  0.91188000000E+02  0.91188000000E+02 0.  0.
    9900012    2    3    3    0    0  0.65419868445E+01 -0.50155421768E+01  0.44284989120E+02  0.46142317448E+02  0.99999971430E+01 0.  0.
        -12    1    3    3    0    0 -0.65419868445E+01  0.50155421768E+01 -0.44284989120E+02  0.45045682552E+02  0.00000000000E+00 0.  1.
         11    1    4    4    0    0  0.65202636544E+01 -0.56445208373E+00  0.17127324792E+02  0.18335149279E+02  0.51100000000E-03 0. -1.
        -11    1    4    4    0    0  0.11913698078E+01 -0.38108562086E+01  0.13323843158E+02  0.13909233762E+02  0.51100000000E-03 0.  1.
        -12    1    4    4    0    0 -0.11696466177E+01 -0.64023388441E+00  0.13833821170E+02  0.13897934407E+02  0.00000000000E+00 0.  1.
</event>
<event>
 8    1  0.2882335E-009  0.9118800E+02  0.7816164E-02  0.1184000E+00
        -11   -1    0    0    0    0  0.00000000000E+00  0.00000000000E+00  0.45593999997E+02  0.45594000000E+02  0.51100000000E-03 0. -1.
         11   -1    0    0    0    0 -0.00000000000E+00 -0.00000000000E+00 -0.45593999997E+02  0.45594000000E+02  0.51100000000E-03 0.  1.
         23    2    1    2    0    0 -0.35527136788E-14  0.00000000000E+00  0.00000000000E+00  0.91188000000E+02  0.91188000000E+02 0.  0.
    9900012    2    3    3    0    0 -0.20154114895E+02 -0.44196660265E+01  0.40042375259E+02  0.46142316396E+02  0.99999875511E+01 0.  0.
        -12    1    3    3    0    0  0.20154114895E+02  0.44196660265E+01 -0.40042375259E+02  0.45045683604E+02  0.00000000000E+00 0.  1.
         11    1    4    4    0    0 -0.54881067247E+01 -0.37910498016E+01  0.79646595357E+01  0.10388800499E+02  0.51100000000E-03 0. -1.
        -11    1    4    4    0    0 -0.48009145045E+01  0.22770384015E+01  0.84090909867E+01  0.99471853026E+01  0.51100000000E-03 0.  1.
         12    1    4    4    0    0 -0.98650936657E+01 -0.29056546265E+01  0.23668624737E+02  0.25806330595E+02  0.00000000000E+00 0. -1.
</event>
<event>
 8    1  0.2882335E-009  0.9118800E+02  0.7816164E-02  0.1184000E+00
        -11   -1    0    0    0    0  0.00000000000E+00  0.00000000000E+00  0.45593999997E+02  0.45594000000E+02  0.51100000000E-03 0. -1.
         11   -1    0    0    0    0 -0.00000000000E+00 -0.00000000000E+00 -0.45593999997E+02  0.45594000000E+02  0.51100000000E-03 0.  1.
         23    2    1    2    0    0  0.00000000000E+00  0.17763568394E-14  0.00000000000E+00  0.91188000000E+02  0.91188000000E+02 0.  0.
    9900012    2    3    3    0    0 -0.36414805204E+02  0.11327130455E+02  0.23974394395E+02  0.46142317532E+02  0.99999979117E+01 0.  0.
        -12    1    3    3    0    0  0.36414805204E+02 -0.11327130455E+02 -0.23974394395E+02  0.45045682468E+02  0.00000000000E+00 0.  1.
         11    1    4    4    0    0 -0.16090096877E+02  0.35380037614E+01  0.13704353310E+02  0.21429372087E+02  0.51100000000E-03 0. -1.
        -11    1    4    4    0    0 -0.14646406433E+02  0.67988458635E+01  0.98919962052E+01  0.18936555010E+02  0.51100000000E-03 0.  1.
         12    1    4    4    0    0 -0.56783018944E+01  0.99028082959E+00  0.37804487943E+00  0.57763904349E+01  0.00000000000E+00 0. -1.
</event>
<event>
 8    1  0.2882335E-009  0.9118800E+02  0.7816164E-02  0.1184000E+00
        -11   -1    0    0    0    0  0.00000000000E+00  0.00000000000E+00  0.45593999997E+02  0.45594000000E+02  0.51100000000E-03 0. -1.
         11   -1    0    0    0    0 -0.00000000000E+00 -0.00000000000E+00 -0.45593999997E+02  0.45594000000E+02  0.51100000000E-03 0.  1.
         23    2    1    2    0    0  0.35527136788E-14 -0.17763568394E-14  0.71054273576E-14  0.91188000000E+02  0.91188000000E+02 0.  0.
    9900012    2    3    3    0    0 -0.25904682058E+02  0.10851827611E+02 -0.35217877085E+02  0.46142316728E+02  0.99999905798E+01 0.  0.
         12    1    3    3    0    0  0.25904682058E+02 -0.10851827611E+02  0.35217877085E+02  0.45045683272E+02  0.00000000000E+00 0. -1.
         11    1    4    4    0    0 -0.11936558125E+01  0.97934267952E+00 -0.31336023183E+01  0.34933350874E+01  0.51100000000E-03 0. -1.
        -11    1    4    4    0    0 -0.89795120736E+01  0.25987855033E+01 -0.18129398166E+02  0.20397558710E+02  0.51100000000E-03 0.  1.
        -12    1    4    4    0    0 -0.15731514172E+02  0.72736994283E+01 -0.13954876601E+02  0.22251422931E+02  0.00000000000E+00 0.  1.
</event>
<event>
 8    1  0.2882335E-009  0.9118800E+02  0.7816164E-02  0.1184000E+00
        -11   -1    0    0    0    0  0.00000000000E+00  0.00000000000E+00  0.45593999997E+02  0.45594000000E+02  0.51100000000E-03 0. -1.
         11   -1    0    0    0    0 -0.00000000000E+00 -0.00000000000E+00 -0.45593999997E+02  0.45594000000E+02  0.51100000000E-03 0.  1.
         23    2    1    2    0    0  0.00000000000E+00  0.44408920985E-15  0.00000000000E+00  0.91188000000E+02  0.91188000000E+02 0.  0.
    9900012    2    3    3    0    0  0.25165429697E+02 -0.13988399059E+01  0.37334407569E+02  0.46142316595E+02  0.99999893635E+01 0.  0.
        -12    1    3    3    0    0 -0.25165429697E+02  0.13988399059E+01 -0.37334407569E+02  0.45045683405E+02  0.00000000000E+00 0.  1.
         11    1    4    4    0    0  0.10187909119E+02 -0.42135583206E+01  0.20212736914E+02  0.23023950568E+02  0.51100000000E-03 0. -1.
        -11    1    4    4    0    0  0.33766363426E+01 -0.38156889456E+00  0.27300132330E+01  0.43589265106E+01  0.51100000000E-03 0.  1.
         12    1    4    4    0    0  0.11600884235E+02  0.31962873093E+01  0.14391657423E+02  0.18759439516E+02  0.00000000000E+00 0. -1.
</event>
<event>
 8    1  0.3217656E-009  0.9118800E+02  0.7816164E-02  0.1184000E+00
        -11   -1    0    0    0    0  0.00000000000E+00  0.00000000000E+00  0.45593999997E+02  0.45594000000E+02  0.51100000000E-03 0. -1.
         11   -1    0    0    0    0 -0.00000000000E+00 -0.00000000000E+00 -0.45593999997E+02  0.45594000000E+02  0.51100000000E-03 0.  1.
         23    2    1    2    0    0  0.00000000000E+00  0.00000000000E+00  0.00000000000E+00  0.91188000000E+02  0.91188000000E+02 0.  0.
    9900012    2    3    3    0    0 -0.47972654880E+01  0.12266549297E+02 -0.43077041932E+02  0.46142317305E+02  0.99999958402E+01 0.  0.
         12    1    3    3    0    0  0.47972654880E+01 -0.12266549297E+02  0.43077041932E+02  0.45045682695E+02  0.00000000000E+00 0. -1.
         11    1    4    4    0    0  0.95124777921E+00  0.16129718641E+00 -0.18861476836E+01  0.21185944551E+01  0.51100000000E-03 0.  1.
        -11    1    4    4    0    0  0.31352993818E+00  0.78855919621E+01 -0.17253511046E+02  0.18972730570E+02  0.51100000000E-03 0. -1.
        -12    1    4    4    0    0 -0.60620432054E+01  0.42196601484E+01 -0.23937383203E+02  0.25050992280E+02  0.00000000000E+00 0.  1.
</event>
<event>
 8    1  0.2882335E-009  0.9118800E+02  0.7816164E-02  0.1184000E+00
        -11   -1    0    0    0    0  0.00000000000E+00  0.00000000000E+00  0.45593999997E+02  0.45594000000E+02  0.51100000000E-03 0.  1.
         11   -1    0    0    0    0 -0.00000000000E+00 -0.00000000000E+00 -0.45593999997E+02  0.45594000000E+02  0.51100000000E-03 0. -1.
         23    2    1    2    0    0  0.00000000000E+00  0.00000000000E+00  0.00000000000E+00  0.91188000000E+02  0.91188000000E+02 0.  0.
    9900012    2    3    3    0    0 -0.16073697612E+02 -0.41036197317E+02  0.93155891530E+01  0.46142318227E+02  0.10000004247E+02 0.  0.
        -12    1    3    3    0    0  0.16073697612E+02  0.41036197317E+02 -0.93155891530E+01  0.45045681773E+02  0.00000000000E+00 0.  1.
         11    1    4    4    0    0 -0.14943111566E+01 -0.88660230670E+01  0.24214073615E+01  0.93114201242E+01  0.51100000000E-03 0. -1.
        -11    1    4    4    0    0 -0.10939074263E+02 -0.17201485294E+02  0.65866411601E+01  0.21422844911E+02  0.51100000000E-03 0.  1.
        -12    1    4    4    0    0 -0.36403121921E+01 -0.14968688956E+02  0.30754063138E+00  0.15408053192E+02  0.00000000000E+00 0.  1.
</event>
<event>
 8    1  0.2882335E-009  0.9118800E+02  0.7816164E-02  0.1184000E+00
        -11   -1    0    0    0    0  0.00000000000E+00  0.00000000000E+00  0.45593999997E+02  0.45594000000E+02  0.51100000000E-03 0. -1.
         11   -1    0    0    0    0 -0.00000000000E+00 -0.00000000000E+00 -0.45593999997E+02  0.45594000000E+02  0.51100000000E-03 0.  1.
         23    2    1    2    0    0  0.44408920985E-15  0.00000000000E+00  0.71054273576E-14  0.91188000000E+02  0.91188000000E+02 0.  0.
    9900012    2    3    3    0    0 -0.20808744599E+01 -0.68703670050E+01  0.44470006544E+02  0.46142318040E+02  0.10000002539E+02 0.  0.
        -12    1    3    3    0    0  0.20808744599E+01  0.68703670050E+01 -0.44470006544E+02  0.45045681960E+02  0.00000000000E+00 0.  1.
         11    1    4    4    0    0  0.12058837940E+01 -0.54802949287E+01  0.19971825781E+02  0.20745158797E+02  0.51100000000E-03 0. -1.
        -11    1    4    4    0    0  0.79692753496E+00  0.13661149971E+01  0.37083286690E+01  0.40315090797E+01  0.51100000000E-03 0.  1.
         12    1    4    4    0    0 -0.40836857888E+01 -0.27561870734E+01  0.20789852093E+02  0.21365650163E+02  0.00000000000E+00 0. -1.
</event>
<event>
 8    1  0.2882335E-009  0.9118800E+02  0.7816164E-02  0.1184000E+00
        -11   -1    0    0    0    0  0.00000000000E+00  0.00000000000E+00  0.45593999997E+02  0.45594000000E+02  0.51100000000E-03 0. -1.
         11   -1    0    0    0    0 -0.00000000000E+00 -0.00000000000E+00 -0.45593999997E+02  0.45594000000E+02  0.51100000000E-03 0.  1.
         23    2    1    2    0    0  0.00000000000E+00  0.00000000000E+00  0.00000000000E+00  0.91188000000E+02  0.91188000000E+02 0.  0.
    9900012    2    3    3    0    0 -0.22959799332E+02 -0.11478715364E+02  0.37016214667E+02  0.46142318297E+02  0.10000004888E+02 0.  0.
        -12    1    3    3    0    0  0.22959799332E+02  0.11478715364E+02 -0.37016214667E+02  0.45045681703E+02  0.00000000000E+00 0.  1.
         11    1    4    4    0    0 -0.77988699305E+01 -0.56815839358E+01  0.16554581173E+02  0.19161339366E+02  0.51100000000E-03 0. -1.
        -11    1    4    4    0    0 -0.50615265368E+01 -0.17719865306E+00  0.25660041704E+01  0.56775723605E+01  0.51100000000E-03 0.  1.
        -12    1    4    4    0    0 -0.10099402865E+02 -0.56199327756E+01  0.17895629324E+02  0.21303406571E+02  0.00000000000E+00 0.  1.
</event>
<event>
 8    1  0.2882335E-009  0.9118800E+02  0.7816164E-02  0.1184000E+00
        -11   -1    0    0    0    0  0.00000000000E+00  0.00000000000E+00  0.45593999997E+02  0.45594000000E+02  0.51100000000E-03 0. -1.
         11   -1    0    0    0    0 -0.00000000000E+00 -0.00000000000E+00 -0.45593999997E+02  0.45594000000E+02  0.51100000000E-03 0.  1.
         23    2    1    2    0    0 -0.35527136788E-14  0.17763568394E-14  0.71054273576E-14  0.91188000000E+02  0.91188000000E+02 0.  0.
    9900012    2    3    3    0    0 -0.25749409808E+02 -0.12963751730E+02 -0.34612460336E+02  0.46142319021E+02  0.10000011487E+02 0.  0.
         12    1    3    3    0    0  0.25749409808E+02  0.12963751730E+02  0.34612460336E+02  0.45045680979E+02  0.00000000000E+00 0. -1.
         11    1    4    4    0    0 -0.34491290082E+01 -0.43615801787E+01 -0.56476847718E+01  0.79256681809E+01  0.51100000000E-03 0. -1.
        -11    1    4    4    0    0 -0.20818957331E+02 -0.65739917940E+01 -0.28047038399E+02  0.35542688639E+02  0.51100000000E-03 0.  1.
        -12    1    4    4    0    0 -0.14813234684E+01 -0.20281797577E+01 -0.91773716472E+00  0.26739622008E+01  0.00000000000E+00 0.  1.
</event>
<event>
 8    1  0.2882335E-009  0.9118800E+02  0.7816164E-02  0.1184000E+00
        -11   -1    0    0    0    0  0.00000000000E+00  0.00000000000E+00  0.45593999997E+02  0.45594000000E+02  0.51100000000E-03 0. -1.
         11   -1    0    0    0    0 -0.00000000000E+00 -0.00000000000E+00 -0.45593999997E+02  0.45594000000E+02  0.51100000000E-03 0.  1.
         23    2    1    2    0    0 -0.35527136788E-14  0.17763568394E-14  0.35527136788E-14  0.91188000000E+02  0.91188000000E+02 0.  0.
    9900012    2    3    3    0    0 -0.29009701303E+02  0.14911163142E+02 -0.31067795858E+02  0.46142317683E+02  0.99999992884E+01 0.  0.
         12    1    3    3    0    0  0.29009701303E+02 -0.14911163142E+02  0.31067795858E+02  0.45045682317E+02  0.00000000000E+00 0. -1.
         11    1    4    4    0    0 -0.43880851681E+01  0.37906213126E-01 -0.30180335888E+01  0.53259041794E+01  0.51100000000E-03 0. -1.
        -11    1    4    4    0    0 -0.13866336252E+02  0.11299426440E+02 -0.13700724947E+02  0.22531359996E+02  0.51100000000E-03 0.  1.
        -12    1    4    4    0    0 -0.10755279883E+02  0.35738304895E+01 -0.14349037322E+02  0.18285053508E+02  0.00000000000E+00 0.  1.
</event>
<event>
 8    1  0.2882335E-009  0.9118800E+02  0.7816164E-02  0.1184000E+00
        -11   -1    0    0    0    0  0.00000000000E+00  0.00000000000E+00  0.45593999997E+02  0.45594000000E+02  0.51100000000E-03 0.  1.
         11   -1    0    0    0    0 -0.00000000000E+00 -0.00000000000E+00 -0.45593999997E+02  0.45594000000E+02  0.51100000000E-03 0. -1.
         23    2    1    2    0    0 -0.35527136788E-14  0.00000000000E+00 -0.44408920985E-15  0.91188000000E+02  0.91188000000E+02 0.  0.
    9900012    2    3    3    0    0 -0.20546397289E+02 -0.40070350486E+02  0.11515218589E+01  0.46142318385E+02  0.10000005687E+02 0.  0.
         12    1    3    3    0    0  0.20546397289E+02  0.40070350486E+02 -0.11515218589E+01  0.45045681615E+02  0.00000000000E+00 0. -1.
         11    1    4    4    0    0 -0.13348058954E+02 -0.25433997182E+02  0.21671996960E+01  0.28805479431E+02  0.51100000000E-03 0. -1.
        -11    1    4    4    0    0 -0.45818445059E+01 -0.74112181934E+01  0.22318458319E+01  0.89944755414E+01  0.51100000000E-03 0.  1.
         12    1    4    4    0    0 -0.26164938293E+01 -0.72251351104E+01 -0.32475236690E+01  0.83423634123E+01  0.00000000000E+00 0. -1.
</event>
<event>
 8    1  0.2882335E-009  0.9118800E+02  0.7816164E-02  0.1184000E+00
        -11   -1    0    0    0    0  0.00000000000E+00  0.00000000000E+00  0.45593999997E+02  0.45594000000E+02  0.51100000000E-03 0. -1.
         11   -1    0    0    0    0 -0.00000000000E+00 -0.00000000000E+00 -0.45593999997E+02  0.45594000000E+02  0.51100000000E-03 0.  1.
         23    2    1    2    0    0 -0.17763568394E-14  0.00000000000E+00  0.17763568394E-14  0.91188000000E+02  0.91188000000E+02 0.  0.
    9900012    2    3    3    0    0  0.14844987708E+02 -0.41603359107E+02 -0.88261610500E+01  0.46142309109E+02  0.99999210987E+01 0.  0.
         12    1    3    3    0    0 -0.14844987708E+02  0.41603359107E+02  0.88261610500E+01  0.45045690891E+02  0.00000000000E+00 0. -1.
         11    1    4    4    0    0  0.14466429509E+02 -0.30112469120E+02 -0.50557426773E+01  0.33787555602E+02  0.51100000000E-03 0. -1.
        -11    1    4    4    0    0  0.13031905650E+01 -0.62098590424E+01 -0.26571054309E+01  0.68790162456E+01  0.51100000000E-03 0.  1.
         12    1    4    4    0    0 -0.92463236666E+00 -0.52810309445E+01 -0.11133129418E+01  0.54757372614E+01  0.00000000000E+00 0. -1.
</event>
<event>
 8    1  0.2882335E-009  0.9118800E+02  0.7816164E-02  0.1184000E+00
        -11   -1    0    0    0    0  0.00000000000E+00  0.00000000000E+00  0.45593999997E+02  0.45594000000E+02  0.51100000000E-03 0. -1.
         11   -1    0    0    0    0 -0.00000000000E+00 -0.00000000000E+00 -0.45593999997E+02  0.45594000000E+02  0.51100000000E-03 0.  1.
         23    2    1    2    0    0  0.00000000000E+00  0.00000000000E+00  0.71054273576E-14  0.91188000000E+02  0.91188000000E+02 0.  0.
    9900012    2    3    3    0    0 -0.74392814151E+01  0.22200521330E+02  0.38482560516E+02  0.46142317420E+02  0.99999968865E+01 0.  0.
        -12    1    3    3    0    0  0.74392814151E+01 -0.22200521330E+02 -0.38482560516E+02  0.45045682580E+02  0.00000000000E+00 0.  1.
         11    1    4    4    0    0 -0.29097170518E+01  0.38490625566E+01  0.95378313242E+01  0.10688870965E+02  0.51100000000E-03 0. -1.
        -11    1    4    4    0    0 -0.27416570293E+01  0.15978484531E+01  0.77722842175E+01  0.83951298480E+01  0.51100000000E-03 0.  1.
        -12    1    4    4    0    0 -0.17879073340E+01  0.16753610320E+02  0.21172444974E+02  0.27058316606E+02  0.00000000000E+00 0.  1.
</event>
<event>
 8    1  0.2890662E-009  0.9118800E+02  0.7816164E-02  0.1184000E+00
        -11   -1    0    0    0    0  0.00000000000E+00  0.00000000000E+00  0.45593999997E+02  0.45594000000E+02  0.51100000000E-03 0. -1.
         11   -1    0    0    0    0 -0.00000000000E+00 -0.00000000000E+00 -0.45593999997E+02  0.45594000000E+02  0.51100000000E-03 0.  1.
         23    2    1    2    0    0  0.00000000000E+00  0.00000000000E+00  0.00000000000E+00  0.91188000000E+02  0.91188000000E+02 0.  0.
    9900012    2    3    3    0    0 -0.18134882194E+02 -0.94607888430E+01 -0.40133938006E+02  0.46142318103E+02  0.10000003115E+02 0.  0.
         12    1    3    3    0    0  0.18134882194E+02  0.94607888430E+01  0.40133938006E+02  0.45045681897E+02  0.00000000000E+00 0. -1.
         11    1    4    4    0    0 -0.52688786926E+00 -0.62176287500E+00 -0.20003432024E+00  0.83917452887E+00  0.51100000000E-03 0. -1.
        -11    1    4    4    0    0 -0.69213765220E+01 -0.79606039767E+01 -0.17394818617E+02  0.20343460463E+02  0.51100000000E-03 0.  1.
        -12    1    4    4    0    0 -0.10686617802E+02 -0.87842199130E+00 -0.22539085069E+02  0.24959683111E+02  0.00000000000E+00 0.  1.
</event>
<event>
 8    1  0.2882335E-009  0.9118800E+02  0.7816164E-02  0.1184000E+00
        -11   -1    0    0    0    0  0.00000000000E+00  0.00000000000E+00  0.45593999997E+02  0.45594000000E+02  0.51100000000E-03 0. -1.
         11   -1    0    0    0    0 -0.00000000000E+00 -0.00000000000E+00 -0.45593999997E+02  0.45594000000E+02  0.51100000000E-03 0.  1.
         23    2    1    2    0    0 -0.22204460493E-15  0.00000000000E+00  0.00000000000E+00  0.91188000000E+02  0.91188000000E+02 0.  0.
    9900012    2    3    3    0    0  0.19156073330E+01  0.22477446410E+02 -0.38989849356E+02  0.46142317617E+02  0.99999986861E+01 0.  0.
         12    1    3    3    0    0 -0.19156073330E+01 -0.22477446410E+02  0.38989849356E+02  0.45045682383E+02  0.00000000000E+00 0. -1.
         11    1    4    4    0    0 -0.23040080967E+01  0.66780202866E+01 -0.11047351533E+02  0.13112909076E+02  0.51100000000E-03 0.  1.
        -11    1    4    4    0    0  0.18861335815E+01  0.41373438376E+00 -0.20186711178E+01  0.27935120137E+01  0.51100000000E-03 0. -1.
         12    1    4    4    0    0  0.23334818482E+01  0.15385691739E+02 -0.25923826705E+02  0.30235896528E+02  0.00000000000E+00 0. -1.
</event>
<event>
 8    1  0.2882335E-009  0.9118800E+02  0.7816164E-02  0.1184000E+00
        -11   -1    0    0    0    0  0.00000000000E+00  0.00000000000E+00  0.45593999997E+02  0.45594000000E+02  0.51100000000E-03 0. -1.
         11   -1    0    0    0    0 -0.00000000000E+00 -0.00000000000E+00 -0.45593999997E+02  0.45594000000E+02  0.51100000000E-03 0.  1.
         23    2    1    2    0    0 -0.35527136788E-14  0.00000000000E+00  0.00000000000E+00  0.91188000000E+02  0.91188000000E+02 0.  0.
    9900012    2    3    3    0    0  0.29390611675E+02  0.23955058585E+02 -0.24319965180E+02  0.46142316602E+02  0.99999894327E+01 0.  0.
         12    1    3    3    0    0 -0.29390611675E+02 -0.23955058585E+02  0.24319965180E+02  0.45045683398E+02  0.00000000000E+00 0. -1.
         11    1    4    4    0    0  0.20547614862E+01  0.40008967101E+00  0.33577088856E+00  0.21201082191E+01  0.51100000000E-03 0. -1.
        -11    1    4    4    0    0  0.11729192397E+02  0.72138808328E+01 -0.77459331206E+01  0.15799161722E+02  0.51100000000E-03 0.  1.
         12    1    4    4    0    0  0.15606657792E+02  0.16341088081E+02 -0.16909802948E+02  0.28223046661E+02  0.00000000000E+00 0. -1.
</event>
<event>
 8    1  0.2882335E-009  0.9118800E+02  0.7816164E-02  0.1184000E+00
        -11   -1    0    0    0    0  0.00000000000E+00  0.00000000000E+00  0.45593999997E+02  0.45594000000E+02  0.51100000000E-03 0. -1.
         11   -1    0    0    0    0 -0.00000000000E+00 -0.00000000000E+00 -0.45593999997E+02  0.45594000000E+02  0.51100000000E-03 0.  1.
         23    2    1    2    0    0  0.27755575616E-15  0.00000000000E+00  0.71054273576E-14  0.91188000000E+02  0.91188000000E+02 0.  0.
    9900012    2    3    3    0    0  0.28440527359E+00 -0.13515753201E+02  0.42969255002E+02  0.46142319337E+02  0.10000014372E+02 0.  0.
        -12    1    3    3    0    0 -0.28440527359E+00  0.13515753201E+02 -0.42969255002E+02  0.45045680663E+02  0.00000000000E+00 0.  1.
         11    1    4    4    0    0  0.25537708745E+00 -0.32942340913E+01  0.98857899522E+01  0.10423341064E+02  0.51100000000E-03 0. -1.
        -11    1    4    4    0    0  0.14097476333E+01 -0.10923188504E+02  0.31963117031E+02  0.33807459031E+02  0.51100000000E-03 0.  1.
        -12    1    4    4    0    0 -0.13807194472E+01  0.70166939412E+00  0.11203480183E+01  0.19115192420E+01  0.00000000000E+00 0.  1.
</event>
<event>
 8    1  0.2882335E-009  0.9118800E+02  0.7816164E-02  0.1184000E+00
        -11   -1    0    0    0    0  0.00000000000E+00  0.00000000000E+00  0.45593999997E+02  0.45594000000E+02  0.51100000000E-03 0. -1.
         11   -1    0    0    0    0 -0.00000000000E+00 -0.00000000000E+00 -0.45593999997E+02  0.45594000000E+02  0.51100000000E-03 0.  1.
         23    2    1    2    0    0 -0.88817841970E-15 -0.35527136788E-14  0.00000000000E+00  0.91188000000E+02  0.91188000000E+02 0.  0.
    9900012    2    3    3    0    0  0.63204819123E+01  0.23756046053E+02 -0.37746723554E+02  0.46142319244E+02  0.10000013526E+02 0.  0.
         12    1    3    3    0    0 -0.63204819123E+01 -0.23756046053E+02  0.37746723554E+02  0.45045680756E+02  0.00000000000E+00 0. -1.
         11    1    4    4    0    0  0.24781757416E+01  0.20904232860E+02 -0.28165671709E+02  0.35162954505E+02  0.51100000000E-03 0. -1.
        -11    1    4    4    0    0  0.30772012635E+01  0.83737555763E+00 -0.52710928550E+01  0.61607455383E+01  0.51100000000E-03 0.  1.
         12    1    4    4    0    0  0.76510490717E+00  0.20144376356E+01 -0.43099589899E+01  0.48186192007E+01  0.00000000000E+00 0. -1.
</event>
<event>
 8    1  0.2882335E-009  0.9118800E+02  0.7816164E-02  0.1184000E+00
        -11   -1    0    0    0    0  0.00000000000E+00  0.00000000000E+00  0.45593999997E+02  0.45594000000E+02  0.51100000000E-03 0. -1.
         11   -1    0    0    0    0 -0.00000000000E+00 -0.00000000000E+00 -0.45593999997E+02  0.45594000000E+02  0.51100000000E-03 0.  1.
         23    2    1    2    0    0 -0.88817841970E-15  0.00000000000E+00  0.00000000000E+00  0.91188000000E+02  0.91188000000E+02 0.  0.
    9900012    2    3    3    0    0 -0.47033758244E+01  0.16328372016E+02  0.41717811250E+02  0.46142320382E+02  0.10000023896E+02 0.  0.
        -12    1    3    3    0    0  0.47033758244E+01 -0.16328372016E+02 -0.41717811250E+02  0.45045679618E+02  0.00000000000E+00 0.  1.
         11    1    4    4    0    0  0.19187770223E+01  0.66544619383E+01  0.21019478302E+02  0.22131019798E+02  0.51100000000E-03 0. -1.
        -11    1    4    4    0    0 -0.50432224296E+01  0.80056554340E+01  0.13732419363E+02  0.16676449059E+02  0.51100000000E-03 0.  1.
        -12    1    4    4    0    0 -0.15789304170E+01  0.16682546432E+01  0.69659135843E+01  0.73348515240E+01  0.00000000000E+00 0.  1.
</event>
<event>
 8    1  0.2882335E-009  0.9118800E+02  0.7816164E-02  0.1184000E+00
        -11   -1    0    0    0    0  0.00000000000E+00  0.00000000000E+00  0.45593999997E+02  0.45594000000E+02  0.51100000000E-03 0. -1.
         11   -1    0    0    0    0 -0.00000000000E+00 -0.00000000000E+00 -0.45593999997E+02  0.45594000000E+02  0.51100000000E-03 0.  1.
         23    2    1    2    0    0 -0.11102230246E-15  0.00000000000E+00  0.00000000000E+00  0.91188000000E+02  0.91188000000E+02 0.  0.
    9900012    2    3    3    0    0  0.65230778042E+00  0.32462498274E+02  0.31222976360E+02  0.46142317051E+02  0.99999935209E+01 0.  0.
        -12    1    3    3    0    0 -0.65230778042E+00 -0.32462498274E+02 -0.31222976360E+02  0.45045682949E+02  0.00000000000E+00 0.  1.
         11    1    4    4    0    0 -0.28248189099E+01  0.12987900964E+02  0.13595499183E+02  0.19013226229E+02  0.51100000000E-03 0. -1.
        -11    1    4    4    0    0 -0.29461460912E+00  0.67763286537E+01  0.91959943481E+01  0.11426799206E+02  0.51100000000E-03 0.  1.
         12    1    4    4    0    0  0.37717412995E+01  0.12698268656E+02  0.84314828286E+01  0.15702291616E+02  0.00000000000E+00 0. -1.
</event>
<event>
 8    1  0.2882335E-009  0.9118800E+02  0.7816164E-02  0.1184000E+00
        -11   -1    0    0    0    0  0.00000000000E+00  0.00000000000E+00  0.45593999997E+02  0.45594000000E+02  0.51100000000E-03 0.  1.
         11   -1    0    0    0    0 -0.00000000000E+00 -0.00000000000E+00 -0.45593999997E+02  0.45594000000E+02  0.51100000000E-03 0. -1.
         23    2    1    2    0    0  0.00000000000E+00  0.00000000000E+00  0.00000000000E+00  0.91188000000E+02  0.91188000000E+02 0.  0.
    9900012    2    3    3    0    0  0.35608783715E+02 -0.11587218050E+02  0.25037259796E+02  0.46142317877E+02  0.10000001061E+02 0.  0.
        -12    1    3    3    0    0 -0.35608783715E+02  0.11587218050E+02 -0.25037259796E+02  0.45045682123E+02  0.00000000000E+00 0.  1.
         11    1    4    4    0    0  0.84892580257E+01 -0.62591820371E+01  0.52553847236E+01  0.11784054075E+02  0.51100000000E-03 0. -1.
        -11    1    4    4    0    0  0.99446518066E+01  0.21653745249E+00  0.56797646773E+01  0.11454375368E+02  0.51100000000E-03 0.  1.
        -12    1    4    4    0    0  0.17174873882E+02 -0.55445734651E+01  0.14102110395E+02  0.22903888434E+02  0.00000000000E+00 0.  1.
</event>
<event>
 8    1  0.2882335E-009  0.9118800E+02  0.7816164E-02  0.1184000E+00
        -11   -1    0    0    0    0  0.00000000000E+00  0.00000000000E+00  0.45593999997E+02  0.45594000000E+02  0.51100000000E-03 0. -1.
         11   -1    0    0    0    0 -0.00000000000E+00 -0.00000000000E+00 -0.45593999997E+02  0.45594000000E+02  0.51100000000E-03 0.  1.
         23    2    1    2    0    0 -0.71054273576E-14  0.00000000000E+00  0.71054273576E-14  0.91188000000E+02  0.91188000000E+02 0.  0.
    9900012    2    3    3    0    0 -0.33472332984E+02 -0.18968391163E+02  0.23428968608E+02  0.46142317536E+02  0.99999979436E+01 0.  0.
        -12    1    3    3    0    0  0.33472332984E+02  0.18968391163E+02 -0.23428968608E+02  0.45045682464E+02  0.00000000000E+00 0.  1.
         11    1    4    4    0    0 -0.14632247283E+02 -0.53407853430E+01  0.62192757226E+01  0.16772180521E+02  0.51100000000E-03 0. -1.
        -11    1    4    4    0    0 -0.13926467179E+02 -0.11923656143E+02  0.11475665716E+02  0.21628938203E+02  0.51100000000E-03 0.  1.
         12    1    4    4    0    0 -0.49136185213E+01 -0.17039496769E+01  0.57340271687E+01  0.77411988119E+01  0.00000000000E+00 0. -1.
</event>
<event>
 8    1  0.2882335E-009  0.9118800E+02  0.7816164E-02  0.1184000E+00
        -11   -1    0    0    0    0  0.00000000000E+00  0.00000000000E+00  0.45593999997E+02  0.45594000000E+02  0.51100000000E-03 0.  1.
         11   -1    0    0    0    0 -0.00000000000E+00 -0.00000000000E+00 -0.45593999997E+02  0.45594000000E+02  0.51100000000E-03 0. -1.
         23    2    1    2    0    0  0.00000000000E+00  0.00000000000E+00  0.17763568394E-14  0.91188000000E+02  0.91188000000E+02 0.  0.
    9900012    2    3    3    0    0  0.16474461135E+02  0.39779783133E+02  0.13239129125E+02  0.46142317012E+02  0.99999931709E+01 0.  0.
         12    1    3    3    0    0 -0.16474461135E+02 -0.39779783133E+02 -0.13239129125E+02  0.45045682988E+02  0.00000000000E+00 0. -1.
         11    1    4    4    0    0  0.54321858128E+01  0.16890708525E+02  0.25671618803E+01  0.17927492786E+02  0.51100000000E-03 0. -1.
        -11    1    4    4    0    0  0.52018673207E+01  0.16922072958E+02  0.63096440124E+01  0.18794349806E+02  0.51100000000E-03 0.  1.
         12    1    4    4    0    0  0.58404080019E+01  0.59670016501E+01  0.43623232324E+01  0.94204744204E+01  0.00000000000E+00 0. -1.
</event>
<event>
 8    1  0.2882335E-009  0.9118800E+02  0.7816164E-02  0.1184000E+00
        -11   -1    0    0    0    0  0.00000000000E+00  0.00000000000E+00  0.45593999997E+02  0.45594000000E+02  0.51100000000E-03 0.  1.
         11   -1    0    0    0    0 -0.00000000000E+00 -0.00000000000E+00 -0.45593999997E+02  0.45594000000E+02  0.51100000000E-03 0. -1.
         23    2    1    2    0    0  0.35527136788E-14  0.00000000000E+00 -0.35527136788E-14  0.91188000000E+02  0.91188000000E+02 0.  0.
    9900012    2    3    3    0    0  0.23707980560E+02 -0.27139364654E+02 -0.27027762398E+02  0.46142318784E+02  0.10000009323E+02 0.  0.
        -12    1    3    3    0    0 -0.23707980560E+02  0.27139364654E+02  0.27027762398E+02  0.45045681216E+02  0.00000000000E+00 0.  1.
         11    1    4    4    0    0  0.57152871899E+01 -0.36525447046E+01 -0.59250936670E+01  0.90062381551E+01  0.51100000000E-03 0. -1.
        -11    1    4    4    0    0  0.79419787562E+01 -0.16013687697E+02 -0.10532055442E+02  0.20746985620E+02  0.51100000000E-03 0.  1.
        -12    1    4    4    0    0  0.10050714613E+02 -0.74731322526E+01 -0.10570613289E+02  0.16389095009E+02  0.00000000000E+00 0.  1.
</event>
<event>
 8    1  0.2882335E-009  0.9118800E+02  0.7816164E-02  0.1184000E+00
        -11   -1    0    0    0    0  0.00000000000E+00  0.00000000000E+00  0.45593999997E+02  0.45594000000E+02  0.51100000000E-03 0. -1.
         11   -1    0    0    0    0 -0.00000000000E+00 -0.00000000000E+00 -0.45593999997E+02  0.45594000000E+02  0.51100000000E-03 0.  1.
         23    2    1    2    0    0  0.00000000000E+00  0.00000000000E+00  0.71054273576E-14  0.91188000000E+02  0.91188000000E+02 0.  0.
    9900012    2    3    3    0    0  0.11192677644E+02  0.39064114073E+01  0.43457765947E+02  0.46142317587E+02  0.99999984159E+01 0.  0.
        -12    1    3    3    0    0 -0.11192677644E+02 -0.39064114073E+01 -0.43457765947E+02  0.45045682413E+02  0.00000000000E+00 0.  1.
         11    1    4    4    0    0  0.30190739011E+01  0.18189436432E+01  0.13544034328E+02  0.13995150207E+02  0.51100000000E-03 0. -1.
        -11    1    4    4    0    0  0.63818806488E+01  0.17567918397E+01  0.90942579218E+01  0.11248121870E+02  0.51100000000E-03 0.  1.
        -12    1    4    4    0    0  0.17917230945E+01  0.33067592447E+00  0.20819473697E+02  0.20899045510E+02  0.00000000000E+00 0.  1.
</event>
<event>
 8    1  0.2882335E-009  0.9118800E+02  0.7816164E-02  0.1184000E+00
        -11   -1    0    0    0    0  0.00000000000E+00  0.00000000000E+00  0.45593999997E+02  0.45594000000E+02  0.51100000000E-03 0. -1.
         11   -1    0    0    0    0 -0.00000000000E+00 -0.00000000000E+00 -0.45593999997E+02  0.45594000000E+02  0.51100000000E-03 0.  1.
         23    2    1    2    0    0  0.00000000000E+00  0.00000000000E+00  0.00000000000E+00  0.91188000000E+02  0.91188000000E+02 0.  0.
    9900012    2    3    3    0    0 -0.72901664037E+01  0.59271610396E+01 -0.44054916241E+02  0.46142318641E+02  0.10000008019E+02 0.  0.
         12    1    3    3    0    0  0.72901664037E+01 -0.59271610396E+01  0.44054916241E+02  0.45045681359E+02  0.00000000000E+00 0. -1.
         11    1    4    4    0    0 -0.70514401926E+00 -0.24872401818E+01 -0.10724794011E+02  0.11031989786E+02  0.51100000000E-03 0. -1.
        -11    1    4    4    0    0 -0.33274965266E+01  0.62046697167E+01 -0.19555374341E+02  0.20784196528E+02  0.51100000000E-03 0.  1.
        -12    1    4    4    0    0 -0.32575258578E+01  0.22097315047E+01 -0.13774747889E+02  0.14326132327E+02  0.00000000000E+00 0.  1.
</event>
<event>
 8    1  0.2882335E-009  0.9118800E+02  0.7816164E-02  0.1184000E+00
        -11   -1    0    0    0    0  0.00000000000E+00  0.00000000000E+00  0.45593999997E+02  0.45594000000E+02  0.51100000000E-03 0.  1.
         11   -1    0    0    0    0 -0.00000000000E+00 -0.00000000000E+00 -0.45593999997E+02  0.45594000000E+02  0.51100000000E-03 0. -1.
         23    2    1    2    0    0  0.71054273576E-14  0.35527136788E-14 -0.35527136788E-14  0.91188000000E+02  0.91188000000E+02 0.  0.
    9900012    2    3    3    0    0 -0.34228835482E+02 -0.17863672810E+02  0.23203220663E+02  0.46142318366E+02  0.10000005518E+02 0.  0.
        -12    1    3    3    0    0  0.34228835482E+02  0.17863672810E+02 -0.23203220663E+02  0.45045681634E+02  0.00000000000E+00 0.  1.
         11    1    4    4    0    0 -0.14862288309E+02 -0.83724308825E+01  0.11379514113E+02  0.20505573739E+02  0.51100000000E-03 0. -1.
        -11    1    4    4    0    0 -0.15793738700E+02 -0.10565358528E+02  0.95357354599E+01  0.21260273610E+02  0.51100000000E-03 0.  1.
         12    1    4    4    0    0 -0.35728084738E+01  0.10741166002E+01  0.22879710893E+01  0.43764710175E+01  0.00000000000E+00 0. -1.
</event>
<event>
 8    1  0.2882335E-009  0.9118800E+02  0.7816164E-02  0.1184000E+00
        -11   -1    0    0    0    0  0.00000000000E+00  0.00000000000E+00  0.45593999997E+02  0.45594000000E+02  0.51100000000E-03 0. -1.
         11   -1    0    0    0    0 -0.00000000000E+00 -0.00000000000E+00 -0.45593999997E+02  0.45594000000E+02  0.51100000000E-03 0.  1.
         23    2    1    2    0    0  0.22204460493E-15  0.00000000000E+00  0.35527136788E-14  0.91188000000E+02  0.91188000000E+02 0.  0.
    9900012    2    3    3    0    0  0.40694968545E+00 -0.34880396469E+02  0.28500979317E+02  0.46142317766E+02  0.10000000043E+02 0.  0.
        -12    1    3    3    0    0 -0.40694968545E+00  0.34880396469E+02 -0.28500979317E+02  0.45045682234E+02  0.00000000000E+00 0.  1.
         11    1    4    4    0    0 -0.14999571479E+01 -0.12363762288E+02  0.12667025544E+02  0.17764178161E+02  0.51100000000E-03 0. -1.
        -11    1    4    4    0    0 -0.53340787842E-01 -0.21106665258E+02  0.14618812423E+02  0.25674965248E+02  0.51100000000E-03 0.  1.
        -12    1    4    4    0    0  0.19602476212E+01 -0.14099689233E+01  0.12151413508E+01  0.27031743568E+01  0.00000000000E+00 0.  1.
</event>
<event>
 8    1  0.2882335E-009  0.9118800E+02  0.7816164E-02  0.1184000E+00
        -11   -1    0    0    0    0  0.00000000000E+00  0.00000000000E+00  0.45593999997E+02  0.45594000000E+02  0.51100000000E-03 0. -1.
         11   -1    0    0    0    0 -0.00000000000E+00 -0.00000000000E+00 -0.45593999997E+02  0.45594000000E+02  0.51100000000E-03 0.  1.
         23    2    1    2    0    0  0.88817841970E-15  0.88817841970E-15  0.00000000000E+00  0.91188000000E+02  0.91188000000E+02 0.  0.
    9900012    2    3    3    0    0 -0.62529775067E+01 -0.58279971335E+01 -0.44227233559E+02  0.46142318003E+02  0.10000002204E+02 0.  0.
         12    1    3    3    0    0  0.62529775067E+01  0.58279971335E+01  0.44227233559E+02  0.45045681997E+02  0.00000000000E+00 0. -1.
         11    1    4    4    0    0  0.38273617610E+00  0.15193626886E+01 -0.24949257549E+01  0.29461168924E+01  0.51100000000E-03 0. -1.
        -11    1    4    4    0    0 -0.59054925665E+01 -0.27861698177E+01 -0.24135291425E+02  0.25002997363E+02  0.51100000000E-03 0.  1.
         12    1    4    4    0    0 -0.73022111632E+00 -0.45611900044E+01 -0.17597016380E+02  0.18193203748E+02  0.00000000000E+00 0. -1.
</event>
<event>
 8    1  0.2882335E-009  0.9118800E+02  0.7816164E-02  0.1184000E+00
        -11   -1    0    0    0    0  0.00000000000E+00  0.00000000000E+00  0.45593999997E+02  0.45594000000E+02  0.51100000000E-03 0.  1.
         11   -1    0    0    0    0 -0.00000000000E+00 -0.00000000000E+00 -0.45593999997E+02  0.45594000000E+02  0.51100000000E-03 0. -1.
         23    2    1    2    0    0  0.00000000000E+00  0.00000000000E+00 -0.17763568394E-14  0.91188000000E+02  0.91188000000E+02 0.  0.
    9900012    2    3    3    0    0 -0.31090888178E+02  0.31049988197E+02  0.99180861598E+01  0.46142317324E+02  0.99999960124E+01 0.  0.
        -12    1    3    3    0    0  0.31090888178E+02 -0.31049988197E+02 -0.99180861598E+01  0.45045682676E+02  0.00000000000E+00 0.  1.
         11    1    4    4    0    0 -0.13899689645E+02  0.20391624204E+02  0.35722066651E+01  0.24935524270E+02  0.51100000000E-03 0. -1.
        -11    1    4    4    0    0 -0.96529707122E+01  0.59883005730E+01  0.32694509409E+01  0.11820697824E+02  0.51100000000E-03 0.  1.
         12    1    4    4    0    0 -0.75382278209E+01  0.46700634193E+01  0.30764285538E+01  0.93860952300E+01  0.00000000000E+00 0. -1.
</event>
<event>
 8    1  0.2882335E-009  0.9118800E+02  0.7816164E-02  0.1184000E+00
        -11   -1    0    0    0    0  0.00000000000E+00  0.00000000000E+00  0.45593999997E+02  0.45594000000E+02  0.51100000000E-03 0.  1.
         11   -1    0    0    0    0 -0.00000000000E+00 -0.00000000000E+00 -0.45593999997E+02  0.45594000000E+02  0.51100000000E-03 0. -1.
         23    2    1    2    0    0  0.00000000000E+00  0.00000000000E+00  0.17763568394E-14  0.91188000000E+02  0.91188000000E+02 0.  0.
    9900012    2    3    3    0    0 -0.37442327981E+02 -0.22736241792E+02  0.10499947826E+02  0.46142317412E+02  0.99999968209E+01 0.  0.
         12    1    3    3    0    0  0.37442327981E+02  0.22736241792E+02 -0.10499947826E+02  0.45045682588E+02  0.00000000000E+00 0. -1.
         11    1    4    4    0    0 -0.17104252379E+00  0.52582395278E+00  0.37208477381E-01  0.55419410514E+00  0.51100000000E-03 0. -1.
        -11    1    4    4    0    0 -0.11196399806E+02 -0.10322297701E+02  0.27533461840E+01  0.15475468133E+02  0.51100000000E-03 0.  1.
         12    1    4    4    0    0 -0.26074885650E+02 -0.12939768044E+02  0.77093931648E+01  0.30112655175E+02  0.00000000000E+00 0. -1.
</event>
<event>
 8    1  0.2882335E-009  0.9118800E+02  0.7816164E-02  0.1184000E+00
        -11   -1    0    0    0    0  0.00000000000E+00  0.00000000000E+00  0.45593999997E+02  0.45594000000E+02  0.51100000000E-03 0. -1.
         11   -1    0    0    0    0 -0.00000000000E+00 -0.00000000000E+00 -0.45593999997E+02  0.45594000000E+02  0.51100000000E-03 0.  1.
         23    2    1    2    0    0  0.22204460493E-15  0.00000000000E+00  0.00000000000E+00  0.91188000000E+02  0.91188000000E+02 0.  0.
    9900012    2    3    3    0    0  0.10034855311E+01 -0.42614897929E+01  0.44832423152E+02  0.46142318252E+02  0.10000004476E+02 0.  0.
        -12    1    3    3    0    0 -0.10034855311E+01  0.42614897929E+01 -0.44832423152E+02  0.45045681748E+02  0.00000000000E+00 0.  1.
         11    1    4    4    0    0  0.26973839760E+01 -0.43550039466E+01  0.33678417688E+02  0.34065785737E+02  0.51100000000E-03 0. -1.
        -11    1    4    4    0    0 -0.16006087817E+01  0.24961048327E+00  0.96437200026E+00  0.18852765000E+01  0.51100000000E-03 0.  1.
        -12    1    4    4    0    0 -0.93289663242E-01 -0.15609632966E+00  0.10189633464E+02  0.10191256015E+02  0.00000000000E+00 0.  1.
</event>
<event>
 8    1  0.2882335E-009  0.9118800E+02  0.7816164E-02  0.1184000E+00
        -11   -1    0    0    0    0  0.00000000000E+00  0.00000000000E+00  0.45593999997E+02  0.45594000000E+02  0.51100000000E-03 0. -1.
         11   -1    0    0    0    0 -0.00000000000E+00 -0.00000000000E+00 -0.45593999997E+02  0.45594000000E+02  0.51100000000E-03 0.  1.
         23    2    1    2    0    0  0.00000000000E+00  0.00000000000E+00 -0.35527136788E-14  0.91188000000E+02  0.91188000000E+02 0.  0.
    9900012    2    3    3    0    0  0.61094016427E+01 -0.35572181058E+02 -0.26951970671E+02  0.46142316781E+02  0.99999910596E+01 0.  0.
         12    1    3    3    0    0 -0.61094016427E+01  0.35572181058E+02  0.26951970671E+02  0.45045683219E+02  0.00000000000E+00 0. -1.
         11    1    4    4    0    0  0.65649492036E+01 -0.11853817023E+02 -0.93900822556E+01  0.16485908561E+02  0.51100000000E-03 0. -1.
        -11    1    4    4    0    0  0.61425064557E+00 -0.19217332646E+02 -0.13425930559E+02  0.23450773751E+02  0.51100000000E-03 0.  1.
         12    1    4    4    0    0 -0.10697982065E+01 -0.45010313888E+01 -0.41359578567E+01  0.62056344687E+01  0.00000000000E+00 0. -1.
</event>
<event>
 8    1  0.2882335E-009  0.9118800E+02  0.7816164E-02  0.1184000E+00
        -11   -1    0    0    0    0  0.00000000000E+00  0.00000000000E+00  0.45593999997E+02  0.45594000000E+02  0.51100000000E-03 0. -1.
         11   -1    0    0    0    0 -0.00000000000E+00 -0.00000000000E+00 -0.45593999997E+02  0.45594000000E+02  0.51100000000E-03 0.  1.
         23    2    1    2    0    0 -0.71054273576E-14  0.00000000000E+00 -0.35527136788E-14  0.91188000000E+02  0.91188000000E+02 0.  0.
    9900012    2    3    3    0    0 -0.39528888795E+02 -0.85412028182E+01  0.19840067008E+02  0.46142318144E+02  0.10000003496E+02 0.  0.
        -12    1    3    3    0    0  0.39528888795E+02  0.85412028182E+01 -0.19840067008E+02  0.45045681856E+02  0.00000000000E+00 0.  1.
         11    1    4    4    0    0 -0.29857740933E+02 -0.42664771527E+01  0.18725390698E+02  0.35501095448E+02  0.51100000000E-03 0.  1.
        -11    1    4    4    0    0 -0.60101708378E+01 -0.26532987208E+01  0.90423601194E+00  0.66317260670E+01  0.51100000000E-03 0. -1.
        -12    1    4    4    0    0 -0.36609770236E+01 -0.16214269447E+01  0.21044029859E+00  0.40094966297E+01  0.00000000000E+00 0.  1.
</event>
<event>
 8    1  0.2882335E-009  0.9118800E+02  0.7816164E-02  0.1184000E+00
        -11   -1    0    0    0    0  0.00000000000E+00  0.00000000000E+00  0.45593999997E+02  0.45594000000E+02  0.51100000000E-03 0. -1.
         11   -1    0    0    0    0 -0.00000000000E+00 -0.00000000000E+00 -0.45593999997E+02  0.45594000000E+02  0.51100000000E-03 0.  1.
         23    2    1    2    0    0  0.00000000000E+00  0.00000000000E+00  0.00000000000E+00  0.91188000000E+02  0.91188000000E+02 0.  0.
    9900012    2    3    3    0    0  0.17370982052E+02 -0.41243422543E+02 -0.51325009517E+01  0.46142317781E+02  0.10000000183E+02 0.  0.
        -12    1    3    3    0    0 -0.17370982052E+02  0.41243422543E+02  0.51325009517E+01  0.45045682219E+02  0.00000000000E+00 0.  1.
         11    1    4    4    0    0  0.84282905676E+01 -0.19271728010E+02  0.93290008559E-01  0.21034359645E+02  0.51100000000E-03 0. -1.
        -11    1    4    4    0    0 -0.45720327325E+00 -0.59861369500E+01 -0.96958807659E+00  0.60813626530E+01  0.51100000000E-03 0.  1.
        -12    1    4    4    0    0  0.93998947573E+01 -0.15985557584E+02 -0.42562028836E+01  0.19026595484E+02  0.00000000000E+00 0.  1.
</event>
<event>
 8    1  0.2882335E-009  0.9118800E+02  0.7816164E-02  0.1184000E+00
        -11   -1    0    0    0    0  0.00000000000E+00  0.00000000000E+00  0.45593999997E+02  0.45594000000E+02  0.51100000000E-03 0. -1.
         11   -1    0    0    0    0 -0.00000000000E+00 -0.00000000000E+00 -0.45593999997E+02  0.45594000000E+02  0.51100000000E-03 0.  1.
         23    2    1    2    0    0  0.00000000000E+00  0.00000000000E+00  0.17763568394E-14  0.91188000000E+02  0.91188000000E+02 0.  0.
    9900012    2    3    3    0    0 -0.10418992343E+02 -0.41296793634E+02 -0.14667409179E+02  0.46142318099E+02  0.10000003085E+02 0.  0.
         12    1    3    3    0    0  0.10418992343E+02  0.41296793634E+02  0.14667409179E+02  0.45045681901E+02  0.00000000000E+00 0. -1.
         11    1    4    4    0    0 -0.33043097757E+01 -0.66683464051E+01 -0.35005512389E+01  0.82243033814E+01  0.51100000000E-03 0. -1.
        -11    1    4    4    0    0 -0.52869578719E+01 -0.21289982730E+02 -0.10797181466E+02  0.24449834684E+02  0.51100000000E-03 0.  1.
        -12    1    4    4    0    0 -0.18277246957E+01 -0.13338464499E+02 -0.36967647371E+00  0.13468180034E+02  0.00000000000E+00 0.  1.
</event>
<event>
 8    1  0.2882335E-009  0.9118800E+02  0.7816164E-02  0.1184000E+00
        -11   -1    0    0    0    0  0.00000000000E+00  0.00000000000E+00  0.45593999997E+02  0.45594000000E+02  0.51100000000E-03 0. -1.
         11   -1    0    0    0    0 -0.00000000000E+00 -0.00000000000E+00 -0.45593999997E+02  0.45594000000E+02  0.51100000000E-03 0.  1.
         23    2    1    2    0    0 -0.88817841970E-15  0.00000000000E+00  0.00000000000E+00  0.91188000000E+02  0.91188000000E+02 0.  0.
    9900012    2    3    3    0    0 -0.59370080288E+01  0.21416597697E+02 -0.39181561590E+02  0.46142317744E+02  0.99999998471E+01 0.  0.
         12    1    3    3    0    0  0.59370080288E+01 -0.21416597697E+02  0.39181561590E+02  0.45045682256E+02  0.00000000000E+00 0. -1.
         11    1    4    4    0    0 -0.22134123480E+01  0.15978595543E+01 -0.10383808399E+02  0.10736658070E+02  0.51100000000E-03 0. -1.
        -11    1    4    4    0    0 -0.13956718429E+01  0.30139410281E+01 -0.72994094353E+01  0.80195460457E+01  0.51100000000E-03 0.  1.
         12    1    4    4    0    0 -0.23279238379E+01  0.16804797115E+02 -0.21498343756E+02  0.27386113629E+02  0.00000000000E+00 0. -1.
</event>
<event>
 8    1  0.2882335E-009  0.9118800E+02  0.7816164E-02  0.1184000E+00
        -11   -1    0    0    0    0  0.00000000000E+00  0.00000000000E+00  0.45593999997E+02  0.45594000000E+02  0.51100000000E-03 0. -1.
         11   -1    0    0    0    0 -0.00000000000E+00 -0.00000000000E+00 -0.45593999997E+02  0.45594000000E+02  0.51100000000E-03 0.  1.
         23    2    1    2    0    0  0.00000000000E+00 -0.27755575616E-16  0.00000000000E+00  0.91188000000E+02  0.91188000000E+02 0.  0.
    9900012    2    3    3    0    0  0.31583490081E+02 -0.23144034455E+00 -0.32117643683E+02  0.46142318230E+02  0.10000004276E+02 0.  0.
         12    1    3    3    0    0 -0.31583490081E+02  0.23144034455E+00  0.32117643683E+02  0.45045681770E+02  0.00000000000E+00 0. -1.
         11    1    4    4    0    0  0.17221372773E+02 -0.73190846687E+00 -0.23575129025E+02  0.29204418827E+02  0.51100000000E-03 0. -1.
        -11    1    4    4    0    0  0.16446732842E+01 -0.18198426543E+00 -0.20752161822E+01  0.26541648308E+01  0.51100000000E-03 0.  1.
         12    1    4    4    0    0  0.12717444024E+02  0.68245238775E+00 -0.64672984761E+01  0.14283734573E+02  0.00000000000E+00 0. -1.
</event>
<event>
 8    1  0.2882335E-009  0.9118800E+02  0.7816164E-02  0.1184000E+00
        -11   -1    0    0    0    0  0.00000000000E+00  0.00000000000E+00  0.45593999997E+02  0.45594000000E+02  0.51100000000E-03 0. -1.
         11   -1    0    0    0    0 -0.00000000000E+00 -0.00000000000E+00 -0.45593999997E+02  0.45594000000E+02  0.51100000000E-03 0.  1.
         23    2    1    2    0    0 -0.88817841970E-15  0.00000000000E+00  0.35527136788E-14  0.91188000000E+02  0.91188000000E+02 0.  0.
    9900012    2    3    3    0    0 -0.63856315048E+01  0.34912834024E+02  0.27738621496E+02  0.46142318833E+02  0.10000009770E+02 0.  0.
        -12    1    3    3    0    0  0.63856315048E+01 -0.34912834024E+02 -0.27738621496E+02  0.45045681167E+02  0.00000000000E+00 0.  1.
         11    1    4    4    0    0 -0.49143070535E+01  0.20981747155E+02  0.18803592539E+02  0.28599986366E+02  0.51100000000E-03 0. -1.
        -11    1    4    4    0    0  0.14087756887E+01  0.47570866007E+01  0.96743359198E+00  0.50547452837E+01  0.51100000000E-03 0.  1.
        -12    1    4    4    0    0 -0.28801001400E+01  0.91740002690E+01  0.79675953649E+01  0.12487587183E+02  0.00000000000E+00 0.  1.
</event>
<event>
 8    1  0.2882335E-009  0.9118800E+02  0.7816164E-02  0.1184000E+00
        -11   -1    0    0    0    0  0.00000000000E+00  0.00000000000E+00  0.45593999997E+02  0.45594000000E+02  0.51100000000E-03 0. -1.
         11   -1    0    0    0    0 -0.00000000000E+00 -0.00000000000E+00 -0.45593999997E+02  0.45594000000E+02  0.51100000000E-03 0.  1.
         23    2    1    2    0    0  0.00000000000E+00  0.00000000000E+00 -0.88817841970E-15  0.91188000000E+02  0.91188000000E+02 0.  0.
    9900012    2    3    3    0    0  0.44242197245E+02 -0.58921608042E+01  0.60847250994E+01  0.46142318126E+02  0.10000003325E+02 0.  0.
        -12    1    3    3    0    0 -0.44242197245E+02  0.58921608042E+01 -0.60847250994E+01  0.45045681874E+02  0.00000000000E+00 0.  1.
         11    1    4    4    0    0  0.26061578973E+02 -0.68328856928E+01  0.44242200106E+01  0.27303258934E+02  0.51100000000E-03 0. -1.
        -11    1    4    4    0    0  0.39730242235E+01  0.15050403452E+01 -0.10212938124E+01  0.43695662523E+01  0.51100000000E-03 0.  1.
         12    1    4    4    0    0  0.14207594048E+02 -0.56431545662E+00  0.26817989011E+01  0.14469492939E+02  0.00000000000E+00 0. -1.
</event>
<event>
 8    1  0.2882335E-009  0.9118800E+02  0.7816164E-02  0.1184000E+00
        -11   -1    0    0    0    0  0.00000000000E+00  0.00000000000E+00  0.45593999997E+02  0.45594000000E+02  0.51100000000E-03 0. -1.
         11   -1    0    0    0    0 -0.00000000000E+00 -0.00000000000E+00 -0.45593999997E+02  0.45594000000E+02  0.51100000000E-03 0.  1.
         23    2    1    2    0    0  0.00000000000E+00  0.00000000000E+00  0.00000000000E+00  0.91188000000E+02  0.91188000000E+02 0.  0.
    9900012    2    3    3    0    0  0.37334219593E+02  0.21007601546E+02  0.13926606204E+02  0.46142316126E+02  0.99999850923E+01 0.  0.
        -12    1    3    3    0    0 -0.37334219593E+02 -0.21007601546E+02 -0.13926606204E+02  0.45045683874E+02  0.00000000000E+00 0.  1.
         11    1    4    4    0    0  0.14626799699E+02  0.89375994232E+01  0.83765397961E+01  0.19078531707E+02  0.51100000000E-03 0. -1.
        -11    1    4    4    0    0  0.31471022900E+01  0.10999547867E+01 -0.13545330324E+01  0.35984598585E+01  0.51100000000E-03 0.  1.
        -12    1    4    4    0    0  0.19560317604E+02  0.10970047336E+02  0.69045994402E+01  0.23465324561E+02  0.00000000000E+00 0.  1.
</event>
<event>
 8    1  0.2882335E-009  0.9118800E+02  0.7816164E-02  0.1184000E+00
        -11   -1    0    0    0    0  0.00000000000E+00  0.00000000000E+00  0.45593999997E+02  0.45594000000E+02  0.51100000000E-03 0. -1.
         11   -1    0    0    0    0 -0.00000000000E+00 -0.00000000000E+00 -0.45593999997E+02  0.45594000000E+02  0.51100000000E-03 0.  1.
         23    2    1    2    0    0  0.22204460493E-15  0.00000000000E+00  0.00000000000E+00  0.91188000000E+02  0.91188000000E+02 0.  0.
    9900012    2    3    3    0    0 -0.17435674451E+01  0.40358485873E+02  0.19931528676E+02  0.46142320465E+02  0.10000024654E+02 0.  0.
        -12    1    3    3    0    0  0.17435674451E+01 -0.40358485873E+02 -0.19931528676E+02  0.45045679535E+02  0.00000000000E+00 0.  1.
         11    1    4    4    0    0 -0.49118772200E+01  0.25782667356E+02  0.13127461191E+02  0.29346255492E+02  0.51100000000E-03 0. -1.
        -11    1    4    4    0    0  0.29351840527E+01  0.12152438442E+02  0.70439395658E+01  0.14349709069E+02  0.51100000000E-03 0.  1.
        -12    1    4    4    0    0  0.23312572218E+00  0.24233800755E+01 -0.23987208052E+00  0.24463559038E+01  0.00000000000E+00 0.  1.
</event>
<event>
 8    1  0.2882335E-009  0.9118800E+02  0.7816164E-02  0.1184000E+00
        -11   -1    0    0    0    0  0.00000000000E+00  0.00000000000E+00  0.45593999997E+02  0.45594000000E+02  0.51100000000E-03 0. -1.
         11   -1    0    0    0    0 -0.00000000000E+00 -0.00000000000E+00 -0.45593999997E+02  0.45594000000E+02  0.51100000000E-03 0.  1.
         23    2    1    2    0    0 -0.17763568394E-14  0.00000000000E+00 -0.71054273576E-14  0.91188000000E+02  0.91188000000E+02 0.  0.
    9900012    2    3    3    0    0  0.13581922386E+02  0.27435014059E+00  0.42948452408E+02  0.46142318210E+02  0.10000004095E+02 0.  0.
        -12    1    3    3    0    0 -0.13581922386E+02 -0.27435014059E+00 -0.42948452408E+02  0.45045681790E+02  0.00000000000E+00 0.  1.
         11    1    4    4    0    0  0.73757837807E+01 -0.77516726587E+00  0.33461163203E+02  0.34273204021E+02  0.51100000000E-03 0. -1.
        -11    1    4    4    0    0  0.65826267554E+01  0.96463722145E+00  0.84007460200E+01  0.10716064293E+02  0.51100000000E-03 0.  1.
        -12    1    4    4    0    0 -0.37648815028E+00  0.84880185011E-01  0.10865431842E+01  0.11530498967E+01  0.00000000000E+00 0.  1.
</event>
<event>
 8    1  0.2882335E-009  0.9118800E+02  0.7816164E-02  0.1184000E+00
        -11   -1    0    0    0    0  0.00000000000E+00  0.00000000000E+00  0.45593999997E+02  0.45594000000E+02  0.51100000000E-03 0. -1.
         11   -1    0    0    0    0 -0.00000000000E+00 -0.00000000000E+00 -0.45593999997E+02  0.45594000000E+02  0.51100000000E-03 0.  1.
         23    2    1    2    0    0  0.00000000000E+00  0.00000000000E+00  0.00000000000E+00  0.91188000000E+02  0.91188000000E+02 0.  0.
    9900012    2    3    3    0    0 -0.11204490147E+02 -0.16447512031E+02 -0.40411041010E+02  0.46142317776E+02  0.10000000140E+02 0.  0.
         12    1    3    3    0    0  0.11204490147E+02  0.16447512031E+02  0.40411041010E+02  0.45045682224E+02  0.00000000000E+00 0. -1.
         11    1    4    4    0    0 -0.42564558685E+01 -0.31392022451E+01 -0.11785308610E+02  0.12917643229E+02  0.51100000000E-03 0. -1.
        -11    1    4    4    0    0 -0.15546840950E+01 -0.44892930079E+01 -0.30677846203E+01  0.56552716189E+01  0.51100000000E-03 0.  1.
        -12    1    4    4    0    0 -0.53933501835E+01 -0.88190167785E+01 -0.25557947779E+02  0.27569402928E+02  0.00000000000E+00 0.  1.
</event>
<event>
 8    1  0.2882335E-009  0.9118800E+02  0.7816164E-02  0.1184000E+00
        -11   -1    0    0    0    0  0.00000000000E+00  0.00000000000E+00  0.45593999997E+02  0.45594000000E+02  0.51100000000E-03 0. -1.
         11   -1    0    0    0    0 -0.00000000000E+00 -0.00000000000E+00 -0.45593999997E+02  0.45594000000E+02  0.51100000000E-03 0.  1.
         23    2    1    2    0    0  0.71054273576E-14  0.00000000000E+00  0.00000000000E+00  0.91188000000E+02  0.91188000000E+02 0.  0.
    9900012    2    3    3    0    0  0.38545193186E+02  0.13457760226E+02  0.19033397737E+02  0.46142318104E+02  0.10000003127E+02 0.  0.
        -12    1    3    3    0    0 -0.38545193186E+02 -0.13457760226E+02 -0.19033397737E+02  0.45045681896E+02  0.00000000000E+00 0.  1.
         11    1    4    4    0    0  0.22636668730E+02  0.71749381662E+01  0.84264985725E+01  0.25197309129E+02  0.51100000000E-03 0. -1.
        -11    1    4    4    0    0  0.62723964115E+00  0.57717495158E+00 -0.69556311845E+00  0.11001676259E+01  0.51100000000E-03 0.  1.
        -12    1    4    4    0    0  0.15281284815E+02  0.57056471083E+01  0.11302462283E+02  0.19844841349E+02  0.00000000000E+00 0.  1.
</event>
<event>
 8    1  0.2882335E-009  0.9118800E+02  0.7816164E-02  0.1184000E+00
        -11   -1    0    0    0    0  0.00000000000E+00  0.00000000000E+00  0.45593999997E+02  0.45594000000E+02  0.51100000000E-03 0. -1.
         11   -1    0    0    0    0 -0.00000000000E+00 -0.00000000000E+00 -0.45593999997E+02  0.45594000000E+02  0.51100000000E-03 0.  1.
         23    2    1    2    0    0  0.88817841970E-15  0.00000000000E+00 -0.71054273576E-14  0.91188000000E+02  0.91188000000E+02 0.  0.
    9900012    2    3    3    0    0 -0.40279963005E+01 -0.15631864060E+02  0.42053934743E+02  0.46142319235E+02  0.10000013444E+02 0.  0.
        -12    1    3    3    0    0  0.40279963005E+01  0.15631864060E+02 -0.42053934743E+02  0.45045680765E+02  0.00000000000E+00 0.  1.
         11    1    4    4    0    0 -0.28851561067E+01 -0.26136919200E+01  0.15509972430E+02  0.15991083648E+02  0.51100000000E-03 0. -1.
        -11    1    4    4    0    0 -0.15811508449E+00 -0.25332829962E+01  0.14176850995E+01  0.29072933153E+01  0.51100000000E-03 0.  1.
         12    1    4    4    0    0 -0.98472510938E+00 -0.10484889144E+02  0.25126277214E+02  0.27243942272E+02  0.00000000000E+00 0. -1.
</event>
<event>
 8    1  0.2882335E-009  0.9118800E+02  0.7816164E-02  0.1184000E+00
        -11   -1    0    0    0    0  0.00000000000E+00  0.00000000000E+00  0.45593999997E+02  0.45594000000E+02  0.51100000000E-03 0.  1.
         11   -1    0    0    0    0 -0.00000000000E+00 -0.00000000000E+00 -0.45593999997E+02  0.45594000000E+02  0.51100000000E-03 0. -1.
         23    2    1    2    0    0  0.00000000000E+00  0.00000000000E+00  0.00000000000E+00  0.91188000000E+02  0.91188000000E+02 0.  0.
    9900012    2    3    3    0    0 -0.30957771471E+02 -0.23053882862E+02 -0.23221719016E+02  0.46142319147E+02  0.10000012638E+02 0.  0.
         12    1    3    3    0    0  0.30957771471E+02  0.23053882862E+02  0.23221719016E+02  0.45045680853E+02  0.00000000000E+00 0. -1.
         11    1    4    4    0    0 -0.31262493446E+01 -0.65594145764E+01 -0.49897466451E+01  0.88145860023E+01  0.51100000000E-03 0.  1.
        -11    1    4    4    0    0 -0.15201048430E+02 -0.11176600832E+02 -0.10478951254E+02  0.21582323767E+02  0.51100000000E-03 0. -1.
         12    1    4    4    0    0 -0.12630473696E+02 -0.53178674537E+01 -0.77530211166E+01  0.15745409378E+02  0.00000000000E+00 0. -1.
</event>
<event>
 8    1  0.2882335E-009  0.9118800E+02  0.7816164E-02  0.1184000E+00
        -11   -1    0    0    0    0  0.00000000000E+00  0.00000000000E+00  0.45593999997E+02  0.45594000000E+02  0.51100000000E-03 0. -1.
         11   -1    0    0    0    0 -0.00000000000E+00 -0.00000000000E+00 -0.45593999997E+02  0.45594000000E+02  0.51100000000E-03 0.  1.
         23    2    1    2    0    0  0.00000000000E+00  0.00000000000E+00  0.00000000000E+00  0.91188000000E+02  0.91188000000E+02 0.  0.
    9900012    2    3    3    0    0  0.70924661257E+01 -0.16052152145E+02 -0.41486612470E+02  0.46142315651E+02  0.99999807609E+01 0.  0.
         12    1    3    3    0    0 -0.70924661257E+01  0.16052152145E+02  0.41486612470E+02  0.45045684349E+02  0.00000000000E+00 0. -1.
         11    1    4    4    0    0  0.36891938903E+01 -0.41127352083E+01 -0.47382731563E+01  0.72784596735E+01  0.51100000000E-03 0. -1.
        -11    1    4    4    0    0  0.11060083583E+01 -0.36276285227E+01 -0.14905264371E+02  0.15380177158E+02  0.51100000000E-03 0.  1.
         12    1    4    4    0    0  0.22972638770E+01 -0.83117884141E+01 -0.21843074942E+02  0.23483678820E+02  0.00000000000E+00 0. -1.
</event>
<event>
 8    1  0.2882335E-009  0.9118800E+02  0.7816164E-02  0.1184000E+00
        -11   -1    0    0    0    0  0.00000000000E+00  0.00000000000E+00  0.45593999997E+02  0.45594000000E+02  0.51100000000E-03 0.  1.
         11   -1    0    0    0    0 -0.00000000000E+00 -0.00000000000E+00 -0.45593999997E+02  0.45594000000E+02  0.51100000000E-03 0. -1.
         23    2    1    2    0    0  0.00000000000E+00  0.00000000000E+00  0.00000000000E+00  0.91188000000E+02  0.91188000000E+02 0.  0.
    9900012    2    3    3    0    0  0.42696648349E+02  0.13709502733E+02 -0.42613813855E+01  0.46142316336E+02  0.99999870027E+01 0.  0.
        -12    1    3    3    0    0 -0.42696648349E+02 -0.13709502733E+02  0.42613813855E+01  0.45045683664E+02  0.00000000000E+00 0.  1.
         11    1    4    4    0    0  0.16693481828E+02  0.45209914934E+01 -0.55250154391E+01  0.18155921775E+02  0.51100000000E-03 0. -1.
        -11    1    4    4    0    0  0.15749088852E+02  0.39365691887E+01  0.23984040615E+01  0.16409836043E+02  0.51100000000E-03 0.  1.
         12    1    4    4    0    0  0.10254077669E+02  0.52519420509E+01 -0.11347700078E+01  0.11576558518E+02  0.00000000000E+00 0. -1.
</event>
<event>
 8    1  0.2882335E-009  0.9118800E+02  0.7816164E-02  0.1184000E+00
        -11   -1    0    0    0    0  0.00000000000E+00  0.00000000000E+00  0.45593999997E+02  0.45594000000E+02  0.51100000000E-03 0. -1.
         11   -1    0    0    0    0 -0.00000000000E+00 -0.00000000000E+00 -0.45593999997E+02  0.45594000000E+02  0.51100000000E-03 0.  1.
         23    2    1    2    0    0  0.00000000000E+00  0.00000000000E+00  0.00000000000E+00  0.91188000000E+02  0.91188000000E+02 0.  0.
    9900012    2    3    3    0    0 -0.14541713163E+02  0.36953912522E+02  0.21261712875E+02  0.46142317556E+02  0.99999981334E+01 0.  0.
        -12    1    3    3    0    0  0.14541713163E+02 -0.36953912522E+02 -0.21261712875E+02  0.45045682444E+02  0.00000000000E+00 0.  1.
         11    1    4    4    0    0 -0.93335920273E+01  0.24369632790E+02  0.17473236117E+02  0.31405555609E+02  0.51100000000E-03 0. -1.
        -11    1    4    4    0    0  0.27816862738E+00  0.42055234787E+01  0.85149566007E+00  0.42998663509E+01  0.51100000000E-03 0.  1.
         12    1    4    4    0    0 -0.54862897632E+01  0.83787562537E+01  0.29369810982E+01  0.10436895597E+02  0.00000000000E+00 0. -1.
</event>
<event>
 8    1  0.2882335E-009  0.9118800E+02  0.7816164E-02  0.1184000E+00
        -11   -1    0    0    0    0  0.00000000000E+00  0.00000000000E+00  0.45593999997E+02  0.45594000000E+02  0.51100000000E-03 0. -1.
         11   -1    0    0    0    0 -0.00000000000E+00 -0.00000000000E+00 -0.45593999997E+02  0.45594000000E+02  0.51100000000E-03 0.  1.
         23    2    1    2    0    0  0.00000000000E+00  0.00000000000E+00  0.35527136788E-14  0.91188000000E+02  0.91188000000E+02 0.  0.
    9900012    2    3    3    0    0 -0.26695379718E+02  0.27317911336E+02 -0.23878902346E+02  0.46142317018E+02  0.99999932229E+01 0.  0.
         12    1    3    3    0    0  0.26695379718E+02 -0.27317911336E+02  0.23878902346E+02  0.45045682982E+02  0.00000000000E+00 0. -1.
         11    1    4    4    0    0 -0.60721241425E+01  0.18480239317E+01 -0.29463338308E+01  0.69976258372E+01  0.51100000000E-03 0. -1.
        -11    1    4    4    0    0 -0.16821962834E+02  0.21216442230E+02 -0.19165430342E+02  0.33172723357E+02  0.51100000000E-03 0.  1.
        -12    1    4    4    0    0 -0.38012927418E+01  0.42534451742E+01 -0.17671381736E+01  0.59719678234E+01  0.00000000000E+00 0.  1.
</event>
<event>
 8    1  0.2882335E-009  0.9118800E+02  0.7816164E-02  0.1184000E+00
        -11   -1    0    0    0    0  0.00000000000E+00  0.00000000000E+00  0.45593999997E+02  0.45594000000E+02  0.51100000000E-03 0. -1.
         11   -1    0    0    0    0 -0.00000000000E+00 -0.00000000000E+00 -0.45593999997E+02  0.45594000000E+02  0.51100000000E-03 0.  1.
         23    2    1    2    0    0  0.88817841970E-15 -0.71054273576E-14 -0.71054273576E-14  0.91188000000E+02  0.91188000000E+02 0.  0.
    9900012    2    3    3    0    0 -0.63989807750E+01  0.29351711885E+02  0.33565510717E+02  0.46142318129E+02  0.10000003357E+02 0.  0.
        -12    1    3    3    0    0  0.63989807750E+01 -0.29351711885E+02 -0.33565510717E+02  0.45045681871E+02  0.00000000000E+00 0.  1.
         11    1    4    4    0    0 -0.67617210467E+01  0.20349594037E+02  0.21522147910E+02  0.30381403851E+02  0.51100000000E-03 0. -1.
        -11    1    4    4    0    0 -0.13116114440E+01  0.10419372049E+01  0.73115146870E+00  0.18277145429E+01  0.51100000000E-03 0.  1.
        -12    1    4    4    0    0  0.16743517157E+01  0.79601806426E+01  0.11312211338E+02  0.13933199736E+02  0.00000000000E+00 0.  1.
</event>
<event>
 8    1  0.2882335E-009  0.9118800E+02  0.7816164E-02  0.1184000E+00
        -11   -1    0    0    0    0  0.00000000000E+00  0.00000000000E+00  0.45593999997E+02  0.45594000000E+02  0.51100000000E-03 0. -1.
         11   -1    0    0    0    0 -0.00000000000E+00 -0.00000000000E+00 -0.45593999997E+02  0.45594000000E+02  0.51100000000E-03 0.  1.
         23    2    1    2    0    0  0.88817841970E-15 -0.35527136788E-14  0.00000000000E+00  0.91188000000E+02  0.91188000000E+02 0.  0.
    9900012    2    3    3    0    0 -0.69158290020E+01  0.15549120229E+02  0.41707431646E+02  0.46142315577E+02  0.99999800822E+01 0.  0.
        -12    1    3    3    0    0  0.69158290020E+01 -0.15549120229E+02 -0.41707431646E+02  0.45045684423E+02  0.00000000000E+00 0.  1.
         11    1    4    4    0    0 -0.16672045643E+01  0.57315688189E+00  0.14545356339E+02  0.14651807778E+02  0.51100000000E-03 0. -1.
        -11    1    4    4    0    0 -0.45899892005E+01  0.12526005755E+02  0.21787995441E+02  0.25547711573E+02  0.51100000000E-03 0.  1.
         12    1    4    4    0    0 -0.65863523713E+00  0.24499575921E+01  0.53740798659E+01  0.59427962260E+01  0.00000000000E+00 0. -1.
</event>
<event>
 8    1  0.2882335E-009  0.9118800E+02  0.7816164E-02  0.1184000E+00
        -11   -1    0    0    0    0  0.00000000000E+00  0.00000000000E+00  0.45593999997E+02  0.45594000000E+02  0.51100000000E-03 0. -1.
         11   -1    0    0    0    0 -0.00000000000E+00 -0.00000000000E+00 -0.45593999997E+02  0.45594000000E+02  0.51100000000E-03 0.  1.
         23    2    1    2    0    0 -0.35527136788E-14  0.00000000000E+00  0.71054273576E-14  0.91188000000E+02  0.91188000000E+02 0.  0.
    9900012    2    3    3    0    0  0.16281022996E+02  0.96899442561E+01 -0.40867431361E+02  0.46142315684E+02  0.99999810550E+01 0.  0.
         12    1    3    3    0    0 -0.16281022996E+02 -0.96899442561E+01  0.40867431361E+02  0.45045684316E+02  0.00000000000E+00 0. -1.
         11    1    4    4    0    0  0.79842810623E+00  0.25104619042E+01 -0.33800715052E+01  0.42854159722E+01  0.51100000000E-03 0. -1.
        -11    1    4    4    0    0 -0.25155532363E+00  0.17802373627E+01 -0.57465462829E+01  0.60212390412E+01  0.51100000000E-03 0.  1.
        -12    1    4    4    0    0  0.15734150214E+02  0.53992449893E+01 -0.31740813573E+02  0.35835660670E+02  0.00000000000E+00 0.  1.
</event>
<event>
 8    1  0.2882335E-009  0.9118800E+02  0.7816164E-02  0.1184000E+00
        -11   -1    0    0    0    0  0.00000000000E+00  0.00000000000E+00  0.45593999997E+02  0.45594000000E+02  0.51100000000E-03 0. -1.
         11   -1    0    0    0    0 -0.00000000000E+00 -0.00000000000E+00 -0.45593999997E+02  0.45594000000E+02  0.51100000000E-03 0.  1.
         23    2    1    2    0    0  0.00000000000E+00 -0.17763568394E-14  0.00000000000E+00  0.91188000000E+02  0.91188000000E+02 0.  0.
    9900012    2    3    3    0    0 -0.11624300687E+01 -0.84450515658E+01 -0.44231700543E+02  0.46142317937E+02  0.10000001600E+02 0.  0.
         12    1    3    3    0    0  0.11624300687E+01  0.84450515658E+01  0.44231700543E+02  0.45045682063E+02  0.00000000000E+00 0. -1.
         11    1    4    4    0    0 -0.45126044492E+00 -0.39756890035E+01 -0.79272340546E+01  0.88797961158E+01  0.51100000000E-03 0. -1.
        -11    1    4    4    0    0 -0.26309176853E+00 -0.63714673928E+01 -0.25686415635E+02  0.26466143701E+02  0.51100000000E-03 0.  1.
         12    1    4    4    0    0 -0.44807785527E+00  0.19021048305E+01 -0.10618050854E+02  0.10796378119E+02  0.00000000000E+00 0. -1.
</event>
<event>
 8    1  0.2882335E-009  0.9118800E+02  0.7816164E-02  0.1184000E+00
        -11   -1    0    0    0    0  0.00000000000E+00  0.00000000000E+00  0.45593999997E+02  0.45594000000E+02  0.51100000000E-03 0. -1.
         11   -1    0    0    0    0 -0.00000000000E+00 -0.00000000000E+00 -0.45593999997E+02  0.45594000000E+02  0.51100000000E-03 0.  1.
         23    2    1    2    0    0 -0.35527136788E-14  0.00000000000E+00  0.00000000000E+00  0.91188000000E+02  0.91188000000E+02 0.  0.
    9900012    2    3    3    0    0  0.31142551661E+02  0.16040474934E+02  0.28318865972E+02  0.46142317299E+02  0.99999957867E+01 0.  0.
        -12    1    3    3    0    0 -0.31142551661E+02 -0.16040474934E+02 -0.28318865972E+02  0.45045682701E+02  0.00000000000E+00 0.  1.
         11    1    4    4    0    0  0.98897345694E+01  0.34327410449E+01  0.64238663859E+01  0.12282370314E+02  0.51100000000E-03 0. -1.
        -11    1    4    4    0    0 -0.42069910697E+00  0.63322885303E+00  0.18561870719E+01  0.20058407778E+01  0.51100000000E-03 0.  1.
        -12    1    4    4    0    0  0.21673516198E+02  0.11974505036E+02  0.20038812514E+02  0.31854106207E+02  0.00000000000E+00 0.  1.
</event>
<event>
 8    1  0.2882335E-009  0.9118800E+02  0.7816164E-02  0.1184000E+00
        -11   -1    0    0    0    0  0.00000000000E+00  0.00000000000E+00  0.45593999997E+02  0.45594000000E+02  0.51100000000E-03 0. -1.
         11   -1    0    0    0    0 -0.00000000000E+00 -0.00000000000E+00 -0.45593999997E+02  0.45594000000E+02  0.51100000000E-03 0.  1.
         23    2    1    2    0    0  0.35527136788E-14  0.00000000000E+00  0.00000000000E+00  0.91188000000E+02  0.91188000000E+02 0.  0.
    9900012    2    3    3    0    0 -0.29867157695E+02  0.10440250957E+02 -0.32063493544E+02  0.46142316887E+02  0.99999920301E+01 0.  0.
         12    1    3    3    0    0  0.29867157695E+02 -0.10440250957E+02  0.32063493544E+02  0.45045683113E+02  0.00000000000E+00 0. -1.
         11    1    4    4    0    0 -0.15231738368E+02  0.51302849304E+01 -0.10026332647E+02  0.18943416371E+02  0.51100000000E-03 0. -1.
        -11    1    4    4    0    0 -0.13185352449E+02  0.55878246040E+01 -0.18731623400E+02  0.23578613583E+02  0.51100000000E-03 0.  1.
         12    1    4    4    0    0 -0.14500668782E+01 -0.27785857713E+00 -0.33055374967E+01  0.36202869337E+01  0.00000000000E+00 0. -1.
</event>
<event>
 8    1  0.2882335E-009  0.9118800E+02  0.7816164E-02  0.1184000E+00
        -11   -1    0    0    0    0  0.00000000000E+00  0.00000000000E+00  0.45593999997E+02  0.45594000000E+02  0.51100000000E-03 0. -1.
         11   -1    0    0    0    0 -0.00000000000E+00 -0.00000000000E+00 -0.45593999997E+02  0.45594000000E+02  0.51100000000E-03 0.  1.
         23    2    1    2    0    0 -0.44408920985E-15  0.00000000000E+00 -0.71054273576E-14  0.91188000000E+02  0.91188000000E+02 0.  0.
    9900012    2    3    3    0    0 -0.10018735188E+01  0.31492644756E+02  0.32191972265E+02  0.46142317604E+02  0.99999985632E+01 0.  0.
        -12    1    3    3    0    0  0.10018735188E+01 -0.31492644756E+02 -0.32191972265E+02  0.45045682396E+02  0.00000000000E+00 0.  1.
         11    1    4    4    0    0  0.27641804565E+01  0.26185053209E+02  0.24440634261E+02  0.35925510553E+02  0.51100000000E-03 0. -1.
        -11    1    4    4    0    0 -0.26980522302E+00  0.10643936759E+01  0.18488465769E+01  0.21503401316E+01  0.51100000000E-03 0.  1.
         12    1    4    4    0    0 -0.34962487523E+01  0.42431978713E+01  0.59024914271E+01  0.80664669193E+01  0.00000000000E+00 0. -1.
</event>
<event>
 8    1  0.2882335E-009  0.9118800E+02  0.7816164E-02  0.1184000E+00
        -11   -1    0    0    0    0  0.00000000000E+00  0.00000000000E+00  0.45593999997E+02  0.45594000000E+02  0.51100000000E-03 0. -1.
         11   -1    0    0    0    0 -0.00000000000E+00 -0.00000000000E+00 -0.45593999997E+02  0.45594000000E+02  0.51100000000E-03 0.  1.
         23    2    1    2    0    0  0.00000000000E+00  0.00000000000E+00  0.00000000000E+00  0.91188000000E+02  0.91188000000E+02 0.  0.
    9900012    2    3    3    0    0  0.26712653850E+02  0.12437904951E+02  0.34071190482E+02  0.46142319006E+02  0.10000011353E+02 0.  0.
        -12    1    3    3    0    0 -0.26712653850E+02 -0.12437904951E+02 -0.34071190482E+02  0.45045680994E+02  0.00000000000E+00 0.  1.
         11    1    4    4    0    0  0.53775862517E+01  0.11747604005E+01  0.88855844652E+01  0.10452373292E+02  0.51100000000E-03 0. -1.
        -11    1    4    4    0    0  0.88686482084E+01  0.19887510303E+01  0.55466642707E+01  0.10647700996E+02  0.51100000000E-03 0.  1.
         12    1    4    4    0    0  0.12466419390E+02  0.92743935204E+01  0.19638941747E+02  0.25042244718E+02  0.00000000000E+00 0. -1.
</event>
<event>
 8    1  0.2882335E-009  0.9118800E+02  0.7816164E-02  0.1184000E+00
        -11   -1    0    0    0    0  0.00000000000E+00  0.00000000000E+00  0.45593999997E+02  0.45594000000E+02  0.51100000000E-03 0. -1.
         11   -1    0    0    0    0 -0.00000000000E+00 -0.00000000000E+00 -0.45593999997E+02  0.45594000000E+02  0.51100000000E-03 0.  1.
         23    2    1    2    0    0  0.00000000000E+00  0.00000000000E+00  0.00000000000E+00  0.91188000000E+02  0.91188000000E+02 0.  0.
    9900012    2    3    3    0    0 -0.24579041141E+02 -0.19063926334E+02  0.32581451266E+02  0.46142317440E+02  0.99999970695E+01 0.  0.
        -12    1    3    3    0    0  0.24579041141E+02  0.19063926334E+02 -0.32581451266E+02  0.45045682560E+02  0.00000000000E+00 0.  1.
         11    1    4    4    0    0 -0.15279155275E+02 -0.12350949383E+02  0.19385890566E+02  0.27600929149E+02  0.51100000000E-03 0. -1.
        -11    1    4    4    0    0 -0.51166403133E+01 -0.68516049880E+01  0.69319142956E+01  0.11007994144E+02  0.51100000000E-03 0.  1.
        -12    1    4    4    0    0 -0.41832455528E+01  0.13862803725E+00  0.62636464052E+01  0.75333941472E+01  0.00000000000E+00 0.  1.
</event>
<event>
 8    1  0.2882335E-009  0.9118800E+02  0.7816164E-02  0.1184000E+00
        -11   -1    0    0    0    0  0.00000000000E+00  0.00000000000E+00  0.45593999997E+02  0.45594000000E+02  0.51100000000E-03 0. -1.
         11   -1    0    0    0    0 -0.00000000000E+00 -0.00000000000E+00 -0.45593999997E+02  0.45594000000E+02  0.51100000000E-03 0.  1.
         23    2    1    2    0    0 -0.22204460493E-15  0.00000000000E+00  0.00000000000E+00  0.91188000000E+02  0.91188000000E+02 0.  0.
    9900012    2    3    3    0    0  0.11101232297E+01  0.44952740624E+02  0.26706175153E+01  0.46142318064E+02  0.10000002763E+02 0.  0.
        -12    1    3    3    0    0 -0.11101232297E+01 -0.44952740624E+02 -0.26706175153E+01  0.45045681936E+02  0.00000000000E+00 0.  1.
         11    1    4    4    0    0  0.36593205071E+00  0.39484840469E+01 -0.26135459022E+00  0.39740079287E+01  0.51100000000E-03 0. -1.
        -11    1    4    4    0    0  0.12200881772E+01  0.75192100921E+01  0.41170115043E+01  0.86589213853E+01  0.51100000000E-03 0.  1.
        -12    1    4    4    0    0 -0.47589699823E+00  0.33485046485E+02 -0.11850393987E+01  0.33509388750E+02  0.00000000000E+00 0.  1.
</event>
<event>
 8    1  0.2882335E-009  0.9118800E+02  0.7816164E-02  0.1184000E+00
        -11   -1    0    0    0    0  0.00000000000E+00  0.00000000000E+00  0.45593999997E+02  0.45594000000E+02  0.51100000000E-03 0. -1.
         11   -1    0    0    0    0 -0.00000000000E+00 -0.00000000000E+00 -0.45593999997E+02  0.45594000000E+02  0.51100000000E-03 0.  1.
         23    2    1    2    0    0  0.00000000000E+00  0.00000000000E+00 -0.35527136788E-14  0.91188000000E+02  0.91188000000E+02 0.  0.
    9900012    2    3    3    0    0 -0.18780853200E+02  0.32278455114E+02  0.25189168061E+02  0.46142319863E+02  0.10000019163E+02 0.  0.
        -12    1    3    3    0    0  0.18780853200E+02 -0.32278455114E+02 -0.25189168061E+02  0.45045680137E+02  0.00000000000E+00 0.  1.
         11    1    4    4    0    0 -0.15790885346E+02  0.26985411512E+02  0.23136530976E+02  0.38895546793E+02  0.51100000000E-03 0. -1.
        -11    1    4    4    0    0 -0.26917710331E+01  0.21137776486E+01 -0.51003161400E-01  0.34229064881E+01  0.51100000000E-03 0.  1.
        -12    1    4    4    0    0 -0.29819682067E+00  0.31792659538E+01  0.21036402455E+01  0.38238665813E+01  0.00000000000E+00 0.  1.
</event>
<event>
 8    1  0.2882335E-009  0.9118800E+02  0.7816164E-02  0.1184000E+00
        -11   -1    0    0    0    0  0.00000000000E+00  0.00000000000E+00  0.45593999997E+02  0.45594000000E+02  0.51100000000E-03 0. -1.
         11   -1    0    0    0    0 -0.00000000000E+00 -0.00000000000E+00 -0.45593999997E+02  0.45594000000E+02  0.51100000000E-03 0.  1.
         23    2    1    2    0    0  0.00000000000E+00  0.00000000000E+00 -0.71054273576E-14  0.91188000000E+02  0.91188000000E+02 0.  0.
    9900012    2    3    3    0    0  0.10737282456E+02 -0.82014783942E+01 -0.42971618258E+02  0.46142318097E+02  0.10000003064E+02 0.  0.
         12    1    3    3    0    0 -0.10737282456E+02  0.82014783942E+01  0.42971618258E+02  0.45045681903E+02  0.00000000000E+00 0. -1.
         11    1    4    4    0    0  0.69023497571E+01 -0.84046228551E+01 -0.21585213685E+02  0.24170262051E+02  0.51100000000E-03 0. -1.
        -11    1    4    4    0    0  0.43701297261E+01 -0.18656840398E+00 -0.18310179042E+02  0.18825395040E+02  0.51100000000E-03 0.  1.
         12    1    4    4    0    0 -0.53519702709E+00  0.38971286488E+00 -0.30762255301E+01  0.31466610060E+01  0.00000000000E+00 0. -1.
</event>
<event>
 8    1  0.2882335E-009  0.9118800E+02  0.7816164E-02  0.1184000E+00
        -11   -1    0    0    0    0  0.00000000000E+00  0.00000000000E+00  0.45593999997E+02  0.45594000000E+02  0.51100000000E-03 0. -1.
         11   -1    0    0    0    0 -0.00000000000E+00 -0.00000000000E+00 -0.45593999997E+02  0.45594000000E+02  0.51100000000E-03 0.  1.
         23    2    1    2    0    0  0.88817841970E-15 -0.17763568394E-14  0.71054273576E-14  0.91188000000E+02  0.91188000000E+02 0.  0.
    9900012    2    3    3    0    0 -0.29994609439E+01  0.13576228641E+02 -0.42846269839E+02  0.46142316642E+02  0.99999897957E+01 0.  0.
         12    1    3    3    0    0  0.29994609439E+01 -0.13576228641E+02  0.42846269839E+02  0.45045683358E+02  0.00000000000E+00 0. -1.
         11    1    4    4    0    0 -0.51455711912E+01  0.82277883734E+01 -0.17538402960E+02  0.20044175789E+02  0.51100000000E-03 0. -1.
        -11    1    4    4    0    0  0.17124069875E+00  0.13919029896E+01 -0.11842917558E+02  0.11925661988E+02  0.51100000000E-03 0.  1.
         12    1    4    4    0    0  0.19748695486E+01  0.39565372784E+01 -0.13464949321E+02  0.14172478865E+02  0.00000000000E+00 0. -1.
</event>
<event>
 8    1  0.2882335E-009  0.9118800E+02  0.7816164E-02  0.1184000E+00
        -11   -1    0    0    0    0  0.00000000000E+00  0.00000000000E+00  0.45593999997E+02  0.45594000000E+02  0.51100000000E-03 0. -1.
         11   -1    0    0    0    0 -0.00000000000E+00 -0.00000000000E+00 -0.45593999997E+02  0.45594000000E+02  0.51100000000E-03 0.  1.
         23    2    1    2    0    0  0.00000000000E+00  0.00000000000E+00 -0.35527136788E-14  0.91188000000E+02  0.91188000000E+02 0.  0.
    9900012    2    3    3    0    0 -0.11609660117E+02 -0.39550040189E+02 -0.18169303152E+02  0.46142318032E+02  0.10000002469E+02 0.  0.
         12    1    3    3    0    0  0.11609660117E+02  0.39550040189E+02  0.18169303152E+02  0.45045681968E+02  0.00000000000E+00 0. -1.
         11    1    4    4    0    0  0.29464353166E+00 -0.43982245758E+00 -0.13844518087E+01  0.14822164743E+01  0.51100000000E-03 0. -1.
        -11    1    4    4    0    0 -0.11876141254E+02 -0.39368391176E+02 -0.16619558035E+02  0.44352256587E+02  0.51100000000E-03 0.  1.
        -12    1    4    4    0    0 -0.28162393919E-01  0.25817344455E+00 -0.16529330825E+00  0.30784497016E+00  0.00000000000E+00 0.  1.
</event>
<event>
 8    1  0.3080211E-009  0.9118800E+02  0.7816164E-02  0.1184000E+00
        -11   -1    0    0    0    0  0.00000000000E+00  0.00000000000E+00  0.45593999997E+02  0.45594000000E+02  0.51100000000E-03 0. -1.
         11   -1    0    0    0    0 -0.00000000000E+00 -0.00000000000E+00 -0.45593999997E+02  0.45594000000E+02  0.51100000000E-03 0.  1.
         23    2    1    2    0    0  0.00000000000E+00  0.00000000000E+00  0.00000000000E+00  0.91188000000E+02  0.91188000000E+02 0.  0.
    9900012    2    3    3    0    0  0.20800703236E+02  0.22482056037E+02  0.33030309283E+02  0.46142318408E+02  0.10000005897E+02 0.  0.
        -12    1    3    3    0    0 -0.20800703236E+02 -0.22482056037E+02 -0.33030309283E+02  0.45045681592E+02  0.00000000000E+00 0.  1.
         11    1    4    4    0    0  0.18853116721E+02  0.15752313349E+02  0.28864016228E+02  0.37903915616E+02  0.51100000000E-03 0. -1.
        -11    1    4    4    0    0  0.11072687378E+01  0.50428563427E+01  0.35086171064E+01  0.62423423818E+01  0.51100000000E-03 0.  1.
         12    1    4    4    0    0  0.84031777708E+00  0.16868863450E+01  0.65767594916E+00  0.19960604102E+01  0.00000000000E+00 0. -1.
</event>
<event>
 8    1  0.2882335E-009  0.9118800E+02  0.7816164E-02  0.1184000E+00
        -11   -1    0    0    0    0  0.00000000000E+00  0.00000000000E+00  0.45593999997E+02  0.45594000000E+02  0.51100000000E-03 0. -1.
         11   -1    0    0    0    0 -0.00000000000E+00 -0.00000000000E+00 -0.45593999997E+02  0.45594000000E+02  0.51100000000E-03 0.  1.
         23    2    1    2    0    0 -0.35527136788E-14  0.00000000000E+00  0.71054273576E-14  0.91188000000E+02  0.91188000000E+02 0.  0.
    9900012    2    3    3    0    0 -0.19251105377E+02 -0.19122364522E+02  0.35956134881E+02  0.46142317424E+02  0.99999969271E+01 0.  0.
        -12    1    3    3    0    0  0.19251105377E+02  0.19122364522E+02 -0.35956134881E+02  0.45045682576E+02  0.00000000000E+00 0.  1.
         11    1    4    4    0    0 -0.69759799973E+01 -0.97754483143E+01  0.21673757414E+02  0.24778527950E+02  0.51100000000E-03 0. -1.
        -11    1    4    4    0    0 -0.11660044073E+02 -0.85186689804E+01  0.14312690544E+02  0.20331686105E+02  0.51100000000E-03 0.  1.
         12    1    4    4    0    0 -0.61508130623E+00 -0.82824722743E+00 -0.30313076730E-01  0.10321033697E+01  0.00000000000E+00 0. -1.
</event>
<event>
 8    1  0.3298942E-009  0.9118800E+02  0.7816164E-02  0.1184000E+00
        -11   -1    0    0    0    0  0.00000000000E+00  0.00000000000E+00  0.45593999997E+02  0.45594000000E+02  0.51100000000E-03 0. -1.
         11   -1    0    0    0    0 -0.00000000000E+00 -0.00000000000E+00 -0.45593999997E+02  0.45594000000E+02  0.51100000000E-03 0.  1.
         23    2    1    2    0    0  0.44408920985E-15  0.00000000000E+00  0.00000000000E+00  0.91188000000E+02  0.91188000000E+02 0.  0.
    9900012    2    3    3    0    0  0.25261907758E+01  0.50936538455E+01  0.44685417538E+02  0.46142317744E+02  0.99999998471E+01 0.  0.
        -12    1    3    3    0    0 -0.25261907758E+01 -0.50936538455E+01 -0.44685417538E+02  0.45045682256E+02  0.00000000000E+00 0.  1.
         11    1    4    4    0    0  0.19142844611E+01 -0.28866222582E+00  0.22758354744E+02  0.22840545567E+02  0.51100000000E-03 0. -1.
        -11    1    4    4    0    0 -0.24965051514E+01  0.15646062499E+01  0.89343614788E+01  0.94076216964E+01  0.51100000000E-03 0.  1.
         12    1    4    4    0    0  0.31084114661E+01  0.38177098214E+01  0.12992701315E+02  0.13894150481E+02  0.00000000000E+00 0. -1.
</event>
<event>
 8    1  0.2882335E-009  0.9118800E+02  0.7816164E-02  0.1184000E+00
        -11   -1    0    0    0    0  0.00000000000E+00  0.00000000000E+00  0.45593999997E+02  0.45594000000E+02  0.51100000000E-03 0. -1.
         11   -1    0    0    0    0 -0.00000000000E+00 -0.00000000000E+00 -0.45593999997E+02  0.45594000000E+02  0.51100000000E-03 0.  1.
         23    2    1    2    0    0  0.17763568394E-14 -0.71054273576E-14 -0.35527136788E-14  0.91188000000E+02  0.91188000000E+02 0.  0.
    9900012    2    3    3    0    0 -0.13087261924E+02  0.35201271007E+02  0.24873834667E+02  0.46142317008E+02  0.99999931324E+01 0.  0.
        -12    1    3    3    0    0  0.13087261924E+02 -0.35201271007E+02 -0.24873834667E+02  0.45045682992E+02  0.00000000000E+00 0.  1.
         11    1    4    4    0    0 -0.27595674902E+01  0.69183470537E+01  0.77093065392E+01  0.10719708311E+02  0.51100000000E-03 0.  1.
        -11    1    4    4    0    0 -0.39239605747E+01  0.17302942412E+02  0.13179036651E+02  0.22101499723E+02  0.51100000000E-03 0. -1.
         12    1    4    4    0    0 -0.64037338591E+01  0.10979981542E+02  0.39854914763E+01  0.13321108974E+02  0.00000000000E+00 0. -1.
</event>
<event>
 8    1  0.2882335E-009  0.9118800E+02  0.7816164E-02  0.1184000E+00
        -11   -1    0    0    0    0  0.00000000000E+00  0.00000000000E+00  0.45593999997E+02  0.45594000000E+02  0.51100000000E-03 0. -1.
         11   -1    0    0    0    0 -0.00000000000E+00 -0.00000000000E+00 -0.45593999997E+02  0.45594000000E+02  0.51100000000E-03 0.  1.
         23    2    1    2    0    0  0.00000000000E+00  0.71054273576E-14  0.35527136788E-14  0.91188000000E+02  0.91188000000E+02 0.  0.
    9900012    2    3    3    0    0 -0.71408463136E+01 -0.32270117033E+02 -0.30606562812E+02  0.46142314007E+02  0.99999657673E+01 0.  0.
         12    1    3    3    0    0  0.71408463136E+01  0.32270117033E+02  0.30606562812E+02  0.45045685993E+02  0.00000000000E+00 0. -1.
         11    1    4    4    0    0 -0.71088275799E+01 -0.19583766187E+02 -0.18461026132E+02  0.27836465539E+02  0.51100000000E-03 0. -1.
        -11    1    4    4    0    0 -0.17862796363E+01 -0.84313674203E+01 -0.10077152404E+02  0.13260005745E+02  0.51100000000E-03 0.  1.
        -12    1    4    4    0    0  0.17542609026E+01 -0.42549834259E+01 -0.20683842759E+01  0.50458427226E+01  0.00000000000E+00 0.  1.
</event>
<event>
 8    1  0.2882335E-009  0.9118800E+02  0.7816164E-02  0.1184000E+00
        -11   -1    0    0    0    0  0.00000000000E+00  0.00000000000E+00  0.45593999997E+02  0.45594000000E+02  0.51100000000E-03 0. -1.
         11   -1    0    0    0    0 -0.00000000000E+00 -0.00000000000E+00 -0.45593999997E+02  0.45594000000E+02  0.51100000000E-03 0.  1.
         23    2    1    2    0    0  0.00000000000E+00  0.00000000000E+00  0.00000000000E+00  0.91188000000E+02  0.91188000000E+02 0.  0.
    9900012    2    3    3    0    0 -0.40230261520E+02 -0.10366700342E+02 -0.17411814260E+02  0.46142315481E+02  0.99999792110E+01 0.  0.
         12    1    3    3    0    0  0.40230261520E+02  0.10366700342E+02  0.17411814260E+02  0.45045684519E+02  0.00000000000E+00 0. -1.
         11    1    4    4    0    0 -0.14639624097E+02 -0.26936386015E+00 -0.30731556297E+01  0.14961130852E+02  0.51100000000E-03 0. -1.
        -11    1    4    4    0    0 -0.20344118653E+02 -0.93429936851E+01 -0.11470358855E+02  0.25154399760E+02  0.51100000000E-03 0.  1.
        -12    1    4    4    0    0 -0.52465187700E+01 -0.75434279639E+00 -0.28682997758E+01  0.60267848695E+01  0.00000000000E+00 0.  1.
</event>
<event>
 8    1  0.2882335E-009  0.9118800E+02  0.7816164E-02  0.1184000E+00
        -11   -1    0    0    0    0  0.00000000000E+00  0.00000000000E+00  0.45593999997E+02  0.45594000000E+02  0.51100000000E-03 0. -1.
         11   -1    0    0    0    0 -0.00000000000E+00 -0.00000000000E+00 -0.45593999997E+02  0.45594000000E+02  0.51100000000E-03 0.  1.
         23    2    1    2    0    0  0.17763568394E-14  0.88817841970E-15  0.00000000000E+00  0.91188000000E+02  0.91188000000E+02 0.  0.
    9900012    2    3    3    0    0 -0.13947614428E+02 -0.60491109334E+01 -0.42402663577E+02  0.46142316858E+02  0.99999917619E+01 0.  0.
         12    1    3    3    0    0  0.13947614428E+02  0.60491109334E+01  0.42402663577E+02  0.45045683142E+02  0.00000000000E+00 0. -1.
         11    1    4    4    0    0  0.54751808695E+00 -0.17019636468E+01 -0.75221147594E+01  0.77316665102E+01  0.51100000000E-03 0. -1.
        -11    1    4    4    0    0 -0.27613598210E+01 -0.32029858089E+01 -0.10817032343E+02  0.11614319400E+02  0.51100000000E-03 0.  1.
         12    1    4    4    0    0 -0.11733772694E+02 -0.11441614777E+01 -0.24063516475E+02  0.26796330948E+02  0.00000000000E+00 0. -1.
</event>
<event>
 8    1  0.2882335E-009  0.9118800E+02  0.7816164E-02  0.1184000E+00
        -11   -1    0    0    0    0  0.00000000000E+00  0.00000000000E+00  0.45593999997E+02  0.45594000000E+02  0.51100000000E-03 0. -1.
         11   -1    0    0    0    0 -0.00000000000E+00 -0.00000000000E+00 -0.45593999997E+02  0.45594000000E+02  0.51100000000E-03 0.  1.
         23    2    1    2    0    0  0.35527136788E-14 -0.44408920985E-15  0.00000000000E+00  0.91188000000E+02  0.91188000000E+02 0.  0.
    9900012    2    3    3    0    0 -0.29101150406E+02  0.32697885937E+01  0.34227838876E+02  0.46142318448E+02  0.10000006262E+02 0.  0.
        -12    1    3    3    0    0  0.29101150406E+02 -0.32697885937E+01 -0.34227838876E+02  0.45045681552E+02  0.00000000000E+00 0.  1.
         11    1    4    4    0    0 -0.15482452945E+01  0.13937645584E+01  0.12875309619E+01  0.24489547516E+01  0.51100000000E-03 0.  1.
        -11    1    4    4    0    0 -0.21256359960E+02  0.31254318814E+01  0.29237501435E+02  0.36282677046E+02  0.51100000000E-03 0. -1.
         12    1    4    4    0    0 -0.62965451515E+01 -0.12494078461E+01  0.37028064789E+01  0.74106866505E+01  0.00000000000E+00 0. -1.
</event>
<event>
 8    1  0.2882335E-009  0.9118800E+02  0.7816164E-02  0.1184000E+00
        -11   -1    0    0    0    0  0.00000000000E+00  0.00000000000E+00  0.45593999997E+02  0.45594000000E+02  0.51100000000E-03 0. -1.
         11   -1    0    0    0    0 -0.00000000000E+00 -0.00000000000E+00 -0.45593999997E+02  0.45594000000E+02  0.51100000000E-03 0.  1.
         23    2    1    2    0    0 -0.71054273576E-14 -0.17763568394E-14  0.00000000000E+00  0.91188000000E+02  0.91188000000E+02 0.  0.
    9900012    2    3    3    0    0  0.26194758152E+02  0.11650347787E+02 -0.34745034490E+02  0.46142318965E+02  0.10000010975E+02 0.  0.
         12    1    3    3    0    0 -0.26194758152E+02 -0.11650347787E+02  0.34745034490E+02  0.45045681035E+02  0.00000000000E+00 0. -1.
         11    1    4    4    0    0  0.19697071124E+02  0.36299702172E+01 -0.23201895809E+02  0.30650925990E+02  0.51100000000E-03 0. -1.
        -11    1    4    4    0    0  0.55373788525E+01  0.67419313478E+01 -0.99706234057E+01  0.13248755950E+02  0.51100000000E-03 0.  1.
         12    1    4    4    0    0  0.96030817576E+00  0.12784462218E+01 -0.15725152756E+01  0.22426370251E+01  0.00000000000E+00 0. -1.
</event>
<event>
 8    1  0.2882335E-009  0.9118800E+02  0.7816164E-02  0.1184000E+00
        -11   -1    0    0    0    0  0.00000000000E+00  0.00000000000E+00  0.45593999997E+02  0.45594000000E+02  0.51100000000E-03 0. -1.
         11   -1    0    0    0    0 -0.00000000000E+00 -0.00000000000E+00 -0.45593999997E+02  0.45594000000E+02  0.51100000000E-03 0.  1.
         23    2    1    2    0    0  0.00000000000E+00  0.00000000000E+00  0.17763568394E-14  0.91188000000E+02  0.91188000000E+02 0.  0.
    9900012    2    3    3    0    0 -0.37996461646E+02  0.18317413900E+02 -0.15806794591E+02  0.46142317579E+02  0.99999983350E+01 0.  0.
         12    1    3    3    0    0  0.37996461646E+02 -0.18317413900E+02  0.15806794591E+02  0.45045682421E+02  0.00000000000E+00 0. -1.
         11    1    4    4    0    0 -0.35447137725E+01 -0.79079587654E+00 -0.22891082742E+01  0.42930607728E+01  0.51100000000E-03 0. -1.
        -11    1    4    4    0    0 -0.61666435056E+01  0.52750861176E+01 -0.25198967794E+01  0.84972881388E+01  0.51100000000E-03 0.  1.
         12    1    4    4    0    0 -0.28285104368E+02  0.13833123659E+02 -0.10997789537E+02  0.33351968667E+02  0.00000000000E+00 0. -1.
</event>
<event>
 8    1  0.2882335E-009  0.9118800E+02  0.7816164E-02  0.1184000E+00
        -11   -1    0    0    0    0  0.00000000000E+00  0.00000000000E+00  0.45593999997E+02  0.45594000000E+02  0.51100000000E-03 0.  1.
         11   -1    0    0    0    0 -0.00000000000E+00 -0.00000000000E+00 -0.45593999997E+02  0.45594000000E+02  0.51100000000E-03 0. -1.
         23    2    1    2    0    0  0.00000000000E+00  0.00000000000E+00  0.00000000000E+00  0.91188000000E+02  0.91188000000E+02 0.  0.
    9900012    2    3    3    0    0 -0.17383556166E+02  0.41480603114E+02 -0.25069998564E+01  0.46142317544E+02  0.99999980200E+01 0.  0.
         12    1    3    3    0    0  0.17383556166E+02 -0.41480603114E+02  0.25069998564E+01  0.45045682456E+02  0.00000000000E+00 0. -1.
         11    1    4    4    0    0 -0.42465887006E+01  0.55952961870E+01 -0.13190147211E+01  0.71470731847E+01  0.51100000000E-03 0. -1.
        -11    1    4    4    0    0 -0.12342135283E+02  0.35814976482E+02 -0.18947768928E+01  0.37929289784E+02  0.51100000000E-03 0.  1.
         12    1    4    4    0    0 -0.79483218152E+00  0.70330444602E-01  0.70679175747E+00  0.10659545753E+01  0.00000000000E+00 0. -1.
</event>
<event>
 8    1  0.2882335E-009  0.9118800E+02  0.7816164E-02  0.1184000E+00
        -11   -1    0    0    0    0  0.00000000000E+00  0.00000000000E+00  0.45593999997E+02  0.45594000000E+02  0.51100000000E-03 0. -1.
         11   -1    0    0    0    0 -0.00000000000E+00 -0.00000000000E+00 -0.45593999997E+02  0.45594000000E+02  0.51100000000E-03 0.  1.
         23    2    1    2    0    0 -0.35527136788E-14  0.00000000000E+00  0.00000000000E+00  0.91188000000E+02  0.91188000000E+02 0.  0.
    9900012    2    3    3    0    0 -0.28222894463E+02 -0.21795692709E+02 -0.27523255594E+02  0.46142316621E+02  0.99999896054E+01 0.  0.
         12    1    3    3    0    0  0.28222894463E+02  0.21795692709E+02  0.27523255594E+02  0.45045683379E+02  0.00000000000E+00 0. -1.
         11    1    4    4    0    0 -0.41486538638E+01 -0.24185161120E+01 -0.15037424966E+01  0.50320761940E+01  0.51100000000E-03 0. -1.
        -11    1    4    4    0    0 -0.21944557330E+01  0.18131871295E+00 -0.59331715799E+00  0.22804688007E+01  0.51100000000E-03 0.  1.
        -12    1    4    4    0    0 -0.21879784866E+02 -0.19558495310E+02 -0.25426195940E+02  0.38829771626E+02  0.00000000000E+00 0.  1.
</event>
<event>
 8    1  0.2882335E-009  0.9118800E+02  0.7816164E-02  0.1184000E+00
        -11   -1    0    0    0    0  0.00000000000E+00  0.00000000000E+00  0.45593999997E+02  0.45594000000E+02  0.51100000000E-03 0.  1.
         11   -1    0    0    0    0 -0.00000000000E+00 -0.00000000000E+00 -0.45593999997E+02  0.45594000000E+02  0.51100000000E-03 0. -1.
         23    2    1    2    0    0  0.00000000000E+00 -0.35527136788E-14  0.00000000000E+00  0.91188000000E+02  0.91188000000E+02 0.  0.
    9900012    2    3    3    0    0  0.32979311450E+02  0.21192577893E+02 -0.22189031031E+02  0.46142318303E+02  0.10000004939E+02 0.  0.
         12    1    3    3    0    0 -0.32979311450E+02 -0.21192577893E+02  0.22189031031E+02  0.45045681697E+02  0.00000000000E+00 0. -1.
         11    1    4    4    0    0  0.15599477970E+01 -0.24726011562E+00 -0.73498065234E+00  0.17420595612E+01  0.51100000000E-03 0. -1.
        -11    1    4    4    0    0  0.23725168485E+01  0.48963796425E+01 -0.32379378564E+01  0.63314778388E+01  0.51100000000E-03 0.  1.
        -12    1    4    4    0    0  0.29046846805E+02  0.16543458366E+02 -0.18216112522E+02  0.38068780903E+02  0.00000000000E+00 0.  1.
</event>
<event>
 8    1  0.2882335E-009  0.9118800E+02  0.7816164E-02  0.1184000E+00
        -11   -1    0    0    0    0  0.00000000000E+00  0.00000000000E+00  0.45593999997E+02  0.45594000000E+02  0.51100000000E-03 0. -1.
         11   -1    0    0    0    0 -0.00000000000E+00 -0.00000000000E+00 -0.45593999997E+02  0.45594000000E+02  0.51100000000E-03 0.  1.
         23    2    1    2    0    0 -0.71054273576E-14  0.00000000000E+00  0.00000000000E+00  0.91188000000E+02  0.91188000000E+02 0.  0.
    9900012    2    3    3    0    0 -0.44365171096E+02 -0.51317751329E+01 -0.58745152241E+01  0.46142318170E+02  0.10000003731E+02 0.  0.
         12    1    3    3    0    0  0.44365171096E+02  0.51317751329E+01  0.58745152241E+01  0.45045681830E+02  0.00000000000E+00 0. -1.
         11    1    4    4    0    0 -0.17793250703E+02  0.19825827477E+01 -0.36339922390E+01  0.18268451078E+02  0.51100000000E-03 0. -1.
        -11    1    4    4    0    0 -0.21646105198E+02 -0.44735700096E+01 -0.26907386610E+01  0.22266718970E+02  0.51100000000E-03 0.  1.
         12    1    4    4    0    0 -0.49258151948E+01 -0.26407878710E+01  0.45021567594E+00  0.56071481226E+01  0.00000000000E+00 0. -1.
</event>
<event>
 8    1  0.2882335E-009  0.9118800E+02  0.7816164E-02  0.1184000E+00
        -11   -1    0    0    0    0  0.00000000000E+00  0.00000000000E+00  0.45593999997E+02  0.45594000000E+02  0.51100000000E-03 0. -1.
         11   -1    0    0    0    0 -0.00000000000E+00 -0.00000000000E+00 -0.45593999997E+02  0.45594000000E+02  0.51100000000E-03 0.  1.
         23    2    1    2    0    0  0.35527136788E-14  0.35527136788E-14  0.00000000000E+00  0.91188000000E+02  0.91188000000E+02 0.  0.
    9900012    2    3    3    0    0 -0.15078505997E+02 -0.19125795830E+02 -0.37894010644E+02  0.46142318166E+02  0.10000003688E+02 0.  0.
         12    1    3    3    0    0  0.15078505997E+02  0.19125795830E+02  0.37894010644E+02  0.45045681834E+02  0.00000000000E+00 0. -1.
         11    1    4    4    0    0 -0.42588155767E+01 -0.57824459973E+01 -0.16761580547E+02  0.18235261844E+02  0.51100000000E-03 0. -1.
        -11    1    4    4    0    0 -0.68055940910E+01 -0.92030239783E+01 -0.93140871606E+01  0.14756828290E+02  0.51100000000E-03 0.  1.
        -12    1    4    4    0    0 -0.40140963298E+01 -0.41403258540E+01 -0.11818342937E+02  0.13150228032E+02  0.00000000000E+00 0.  1.
</event>
<event>
 8    1  0.2882335E-009  0.9118800E+02  0.7816164E-02  0.1184000E+00
        -11   -1    0    0    0    0  0.00000000000E+00  0.00000000000E+00  0.45593999997E+02  0.45594000000E+02  0.51100000000E-03 0. -1.
         11   -1    0    0    0    0 -0.00000000000E+00 -0.00000000000E+00 -0.45593999997E+02  0.45594000000E+02  0.51100000000E-03 0.  1.
         23    2    1    2    0    0  0.35527136788E-14 -0.35527136788E-14  0.00000000000E+00  0.91188000000E+02  0.91188000000E+02 0.  0.
    9900012    2    3    3    0    0 -0.16405364619E+02  0.19587119992E+02  0.37098818129E+02  0.46142316917E+02  0.99999923004E+01 0.  0.
        -12    1    3    3    0    0  0.16405364619E+02 -0.19587119992E+02 -0.37098818129E+02  0.45045683083E+02  0.00000000000E+00 0.  1.
         11    1    4    4    0    0 -0.20304601944E+01  0.29587862146E+01  0.14900554322E+01  0.38855437093E+01  0.51100000000E-03 0. -1.
        -11    1    4    4    0    0 -0.34961141343E+00 -0.50032080323E+00  0.84257874019E+00  0.10404269513E+01  0.51100000000E-03 0.  1.
         12    1    4    4    0    0 -0.14025293011E+02  0.17128654580E+02  0.34766183957E+02  0.41216346256E+02  0.00000000000E+00 0. -1.
</event>
<event>
 8    1  0.2882335E-009  0.9118800E+02  0.7816164E-02  0.1184000E+00
        -11   -1    0    0    0    0  0.00000000000E+00  0.00000000000E+00  0.45593999997E+02  0.45594000000E+02  0.51100000000E-03 0. -1.
         11   -1    0    0    0    0 -0.00000000000E+00 -0.00000000000E+00 -0.45593999997E+02  0.45594000000E+02  0.51100000000E-03 0.  1.
         23    2    1    2    0    0 -0.88817841970E-15 -0.71054273576E-14  0.00000000000E+00  0.91188000000E+02  0.91188000000E+02 0.  0.
    9900012    2    3    3    0    0 -0.44758356674E+01 -0.43828624784E+02 -0.93878687627E+01  0.46142317240E+02  0.99999952500E+01 0.  0.
         12    1    3    3    0    0  0.44758356674E+01  0.43828624784E+02  0.93878687627E+01  0.45045682760E+02  0.00000000000E+00 0. -1.
         11    1    4    4    0    0  0.23270002621E+01 -0.75258444499E+01  0.22683554041E+00  0.78806547652E+01  0.51100000000E-03 0. -1.
        -11    1    4    4    0    0 -0.65018777932E+01 -0.29082693322E+02 -0.74433805720E+01  0.30716142015E+02  0.51100000000E-03 0.  1.
         12    1    4    4    0    0 -0.30095813634E+00 -0.72200870124E+01 -0.21713237311E+01  0.75455204600E+01  0.00000000000E+00 0. -1.
</event>
<event>
 8    1  0.2882335E-009  0.9118800E+02  0.7816164E-02  0.1184000E+00
        -11   -1    0    0    0    0  0.00000000000E+00  0.00000000000E+00  0.45593999997E+02  0.45594000000E+02  0.51100000000E-03 0. -1.
         11   -1    0    0    0    0 -0.00000000000E+00 -0.00000000000E+00 -0.45593999997E+02  0.45594000000E+02  0.51100000000E-03 0.  1.
         23    2    1    2    0    0  0.00000000000E+00  0.35527136788E-14  0.00000000000E+00  0.91188000000E+02  0.91188000000E+02 0.  0.
    9900012    2    3    3    0    0 -0.21516292800E+02 -0.25315460725E+02 -0.30418581191E+02  0.46142317751E+02  0.99999999082E+01 0.  0.
         12    1    3    3    0    0  0.21516292800E+02  0.25315460725E+02  0.30418581191E+02  0.45045682249E+02  0.00000000000E+00 0. -1.
         11    1    4    4    0    0 -0.92495086468E+01 -0.51916714262E+01 -0.10311139033E+02  0.14792783741E+02  0.51100000000E-03 0. -1.
        -11    1    4    4    0    0 -0.90003647104E+01 -0.10926126686E+02 -0.13513781923E+02  0.19570618575E+02  0.51100000000E-03 0.  1.
        -12    1    4    4    0    0 -0.32664194432E+01 -0.91976626131E+01 -0.65936602349E+01  0.11778915435E+02  0.00000000000E+00 0.  1.
</event>
<event>
 8    1  0.2882335E-009  0.9118800E+02  0.7816164E-02  0.1184000E+00
        -11   -1    0    0    0    0  0.00000000000E+00  0.00000000000E+00  0.45593999997E+02  0.45594000000E+02  0.51100000000E-03 0. -1.
         11   -1    0    0    0    0 -0.00000000000E+00 -0.00000000000E+00 -0.45593999997E+02  0.45594000000E+02  0.51100000000E-03 0.  1.
         23    2    1    2    0    0  0.00000000000E+00  0.88817841970E-15 -0.35527136788E-14  0.91188000000E+02  0.91188000000E+02 0.  0.
    9900012    2    3    3    0    0 -0.35843726950E+02 -0.65425526737E+01  0.26486517725E+02  0.46142318983E+02  0.10000011139E+02 0.  0.
        -12    1    3    3    0    0  0.35843726950E+02  0.65425526737E+01 -0.26486517725E+02  0.45045681017E+02  0.00000000000E+00 0.  1.
         11    1    4    4    0    0 -0.25243867081E+02 -0.54093286668E+01  0.21032225319E+02  0.33299672129E+02  0.51100000000E-03 0. -1.
        -11    1    4    4    0    0 -0.32107752774E+01  0.69923972981E+00  0.38515452402E+01  0.50628465392E+01  0.51100000000E-03 0.  1.
         12    1    4    4    0    0 -0.73890845916E+01 -0.18324637366E+01  0.16027471661E+01  0.77798003140E+01  0.00000000000E+00 0. -1.
</event>
<event>
 8    1  0.2882335E-009  0.9118800E+02  0.7816164E-02  0.1184000E+00
        -11   -1    0    0    0    0  0.00000000000E+00  0.00000000000E+00  0.45593999997E+02  0.45594000000E+02  0.51100000000E-03 0. -1.
         11   -1    0    0    0    0 -0.00000000000E+00 -0.00000000000E+00 -0.45593999997E+02  0.45594000000E+02  0.51100000000E-03 0.  1.
         23    2    1    2    0    0  0.35527136788E-14  0.00000000000E+00  0.00000000000E+00  0.91188000000E+02  0.91188000000E+02 0.  0.
    9900012    2    3    3    0    0  0.17867514908E+02  0.25084991556E+02  0.32872609153E+02  0.46142319598E+02  0.10000016753E+02 0.  0.
        -12    1    3    3    0    0 -0.17867514908E+02 -0.25084991556E+02 -0.32872609153E+02  0.45045680402E+02  0.00000000000E+00 0.  1.
         11    1    4    4    0    0  0.12186255606E+02  0.18425055973E+02  0.20346142325E+02  0.30032532711E+02  0.51100000000E-03 0. -1.
        -11    1    4    4    0    0 -0.57767024679E+00  0.16332101895E+01  0.42026754405E+01  0.45457188162E+01  0.51100000000E-03 0.  1.
        -12    1    4    4    0    0  0.62589295491E+01  0.50267253932E+01  0.83237913875E+01  0.11564068071E+02  0.00000000000E+00 0.  1.
</event>
<event>
 8    1  0.2882335E-009  0.9118800E+02  0.7816164E-02  0.1184000E+00
        -11   -1    0    0    0    0  0.00000000000E+00  0.00000000000E+00  0.45593999997E+02  0.45594000000E+02  0.51100000000E-03 0. -1.
         11   -1    0    0    0    0 -0.00000000000E+00 -0.00000000000E+00 -0.45593999997E+02  0.45594000000E+02  0.51100000000E-03 0.  1.
         23    2    1    2    0    0  0.17763568394E-14  0.00000000000E+00  0.00000000000E+00  0.91188000000E+02  0.91188000000E+02 0.  0.
    9900012    2    3    3    0    0 -0.84454928972E+01  0.35516306842E+02  0.26388994710E+02  0.46142318256E+02  0.10000004512E+02 0.  0.
        -12    1    3    3    0    0  0.84454928972E+01 -0.35516306842E+02 -0.26388994710E+02  0.45045681744E+02  0.00000000000E+00 0.  1.
         11    1    4    4    0    0 -0.31463084371E+01  0.18702783880E+02  0.11197268486E+02  0.22024354780E+02  0.51100000000E-03 0. -1.
        -11    1    4    4    0    0  0.60044123661E+00  0.77984289979E-02 -0.14035016754E+00  0.61667570470E+00  0.51100000000E-03 0.  1.
         12    1    4    4    0    0 -0.58996256967E+01  0.16805724533E+02  0.15332076392E+02  0.23501287772E+02  0.00000000000E+00 0. -1.
</event>
<event>
 8    1  0.2882335E-009  0.9118800E+02  0.7816164E-02  0.1184000E+00
        -11   -1    0    0    0    0  0.00000000000E+00  0.00000000000E+00  0.45593999997E+02  0.45594000000E+02  0.51100000000E-03 0. -1.
         11   -1    0    0    0    0 -0.00000000000E+00 -0.00000000000E+00 -0.45593999997E+02  0.45594000000E+02  0.51100000000E-03 0.  1.
         23    2    1    2    0    0 -0.88817841970E-15  0.35527136788E-14  0.00000000000E+00  0.91188000000E+02  0.91188000000E+02 0.  0.
    9900012    2    3    3    0    0 -0.67977752700E+01  0.31026044775E+02 -0.31941951211E+02  0.46142318185E+02  0.10000003864E+02 0.  0.
         12    1    3    3    0    0  0.67977752700E+01 -0.31026044775E+02  0.31941951211E+02  0.45045681815E+02  0.00000000000E+00 0. -1.
         11    1    4    4    0    0 -0.22960051082E+01  0.10666926811E+02 -0.48121121833E+01  0.11925241757E+02  0.51100000000E-03 0. -1.
        -11    1    4    4    0    0 -0.23090898681E+01  0.10747233137E+02 -0.14348788733E+02  0.18075471072E+02  0.51100000000E-03 0.  1.
         12    1    4    4    0    0 -0.21926802937E+01  0.96118848276E+01 -0.12781050295E+02  0.16141605355E+02  0.00000000000E+00 0. -1.
</event>
<event>
 8    1  0.2882335E-009  0.9118800E+02  0.7816164E-02  0.1184000E+00
        -11   -1    0    0    0    0  0.00000000000E+00  0.00000000000E+00  0.45593999997E+02  0.45594000000E+02  0.51100000000E-03 0. -1.
         11   -1    0    0    0    0 -0.00000000000E+00 -0.00000000000E+00 -0.45593999997E+02  0.45594000000E+02  0.51100000000E-03 0.  1.
         23    2    1    2    0    0  0.00000000000E+00  0.00000000000E+00  0.00000000000E+00  0.91188000000E+02  0.91188000000E+02 0.  0.
    9900012    2    3    3    0    0 -0.96681797151E+01 -0.40409365844E+02 -0.17398934817E+02  0.46142317857E+02  0.10000000878E+02 0.  0.
         12    1    3    3    0    0  0.96681797151E+01  0.40409365844E+02  0.17398934817E+02  0.45045682143E+02  0.00000000000E+00 0. -1.
         11    1    4    4    0    0  0.10576769321E+01 -0.43752530167E+01 -0.12571356093E+01  0.46735328879E+01  0.51100000000E-03 0. -1.
        -11    1    4    4    0    0 -0.80151418890E+00  0.14093775629E-01 -0.45722943238E+00  0.92286653665E+00  0.51100000000E-03 0.  1.
        -12    1    4    4    0    0 -0.99243424584E+01 -0.36048206603E+02 -0.15684569776E+02  0.40545918433E+02  0.00000000000E+00 0.  1.
</event>
<event>
 8    1  0.2882335E-009  0.9118800E+02  0.7816164E-02  0.1184000E+00
        -11   -1    0    0    0    0  0.00000000000E+00  0.00000000000E+00  0.45593999997E+02  0.45594000000E+02  0.51100000000E-03 0. -1.
         11   -1    0    0    0    0 -0.00000000000E+00 -0.00000000000E+00 -0.45593999997E+02  0.45594000000E+02  0.51100000000E-03 0.  1.
         23    2    1    2    0    0  0.00000000000E+00  0.00000000000E+00 -0.71054273576E-14  0.91188000000E+02  0.91188000000E+02 0.  0.
    9900012    2    3    3    0    0  0.58100682230E+01  0.72487947474E+01 -0.44077335900E+02  0.46142318097E+02  0.10000003065E+02 0.  0.
         12    1    3    3    0    0 -0.58100682230E+01 -0.72487947474E+01  0.44077335900E+02  0.45045681903E+02  0.00000000000E+00 0. -1.
         11    1    4    4    0    0  0.22792009305E+01 -0.77939731440E+00 -0.18269444157E+02  0.18427555647E+02  0.51100000000E-03 0.  1.
        -11    1    4    4    0    0 -0.47387551185E+00 -0.41146170477E+00 -0.78511893833E+00  0.10051222531E+01  0.51100000000E-03 0. -1.
        -12    1    4    4    0    0  0.40047428043E+01  0.84396537666E+01 -0.25022772805E+02  0.26709640198E+02  0.00000000000E+00 0.  1.
</event>
<event>
 8    1  0.2882335E-009  0.9118800E+02  0.7816164E-02  0.1184000E+00
        -11   -1    0    0    0    0  0.00000000000E+00  0.00000000000E+00  0.45593999997E+02  0.45594000000E+02  0.51100000000E-03 0.  1.
         11   -1    0    0    0    0 -0.00000000000E+00 -0.00000000000E+00 -0.45593999997E+02  0.45594000000E+02  0.51100000000E-03 0. -1.
         23    2    1    2    0    0  0.17763568394E-14  0.00000000000E+00  0.17763568394E-14  0.91188000000E+02  0.91188000000E+02 0.  0.
    9900012    2    3    3    0    0 -0.13930451170E+02 -0.41263067665E+02  0.11507183738E+02  0.46142317626E+02  0.99999987700E+01 0.  0.
        -12    1    3    3    0    0  0.13930451170E+02  0.41263067665E+02 -0.11507183738E+02  0.45045682374E+02  0.00000000000E+00 0.  1.
         11    1    4    4    0    0 -0.98620526597E+01 -0.29984867749E+02  0.10516995135E+02  0.33271001842E+02  0.51100000000E-03 0. -1.
        -11    1    4    4    0    0 -0.36736451961E+01 -0.91077456439E+01 -0.10369482431E+01  0.98753208384E+01  0.51100000000E-03 0.  1.
        -12    1    4    4    0    0 -0.39475331461E+00 -0.21704542717E+01  0.20271368462E+01  0.29959949463E+01  0.00000000000E+00 0.  1.
</event>
<event>
 8    1  0.2882335E-009  0.9118800E+02  0.7816164E-02  0.1184000E+00
        -11   -1    0    0    0    0  0.00000000000E+00  0.00000000000E+00  0.45593999997E+02  0.45594000000E+02  0.51100000000E-03 0. -1.
         11   -1    0    0    0    0 -0.00000000000E+00 -0.00000000000E+00 -0.45593999997E+02  0.45594000000E+02  0.51100000000E-03 0.  1.
         23    2    1    2    0    0  0.00000000000E+00  0.00000000000E+00  0.00000000000E+00  0.91188000000E+02  0.91188000000E+02 0.  0.
    9900012    2    3    3    0    0 -0.28795489812E+02  0.75383789906E+01 -0.33809848194E+02  0.46142320671E+02  0.10000026530E+02 0.  0.
         12    1    3    3    0    0  0.28795489812E+02 -0.75383789906E+01  0.33809848194E+02  0.45045679329E+02  0.00000000000E+00 0. -1.
         11    1    4    4    0    0 -0.99715232978E+01  0.64519211896E+00 -0.12982966536E+02  0.16383069617E+02  0.51100000000E-03 0. -1.
        -11    1    4    4    0    0 -0.12631514985E+01  0.13308491139E+01  0.15168511521E+00  0.18411191454E+01  0.51100000000E-03 0.  1.
        -12    1    4    4    0    0 -0.17560815016E+02  0.55623377577E+01 -0.20978566774E+02  0.27918131908E+02  0.00000000000E+00 0.  1.
</event>
<event>
 8    1  0.2882335E-009  0.9118800E+02  0.7816164E-02  0.1184000E+00
        -11   -1    0    0    0    0  0.00000000000E+00  0.00000000000E+00  0.45593999997E+02  0.45594000000E+02  0.51100000000E-03 0.  1.
         11   -1    0    0    0    0 -0.00000000000E+00 -0.00000000000E+00 -0.45593999997E+02  0.45594000000E+02  0.51100000000E-03 0. -1.
         23    2    1    2    0    0  0.00000000000E+00  0.00000000000E+00  0.00000000000E+00  0.91188000000E+02  0.91188000000E+02 0.  0.
    9900012    2    3    3    0    0 -0.59041665462E+01  0.36821585697E+02  0.25267075462E+02  0.46142318095E+02  0.10000003046E+02 0.  0.
        -12    1    3    3    0    0  0.59041665462E+01 -0.36821585697E+02 -0.25267075462E+02  0.45045681905E+02  0.00000000000E+00 0.  1.
         11    1    4    4    0    0 -0.37605293366E+01  0.32220755263E+02  0.19988341870E+02  0.38103181777E+02  0.51100000000E-03 0. -1.
        -11    1    4    4    0    0  0.64109743829E+00  0.21272736912E+01  0.27583005408E+01  0.35418245887E+01  0.51100000000E-03 0.  1.
        -12    1    4    4    0    0 -0.27847346479E+01  0.24735567435E+01  0.25204330513E+01  0.44973117290E+01  0.00000000000E+00 0.  1.
</event>
<event>
 8    1  0.2882335E-009  0.9118800E+02  0.7816164E-02  0.1184000E+00
        -11   -1    0    0    0    0  0.00000000000E+00  0.00000000000E+00  0.45593999997E+02  0.45594000000E+02  0.51100000000E-03 0.  1.
         11   -1    0    0    0    0 -0.00000000000E+00 -0.00000000000E+00 -0.45593999997E+02  0.45594000000E+02  0.51100000000E-03 0. -1.
         23    2    1    2    0    0  0.00000000000E+00  0.00000000000E+00  0.00000000000E+00  0.91188000000E+02  0.91188000000E+02 0.  0.
    9900012    2    3    3    0    0 -0.36971300497E+02  0.33040548056E+01 -0.25520959362E+02  0.46142320902E+02  0.10000028645E+02 0.  0.
         12    1    3    3    0    0  0.36971300497E+02 -0.33040548056E+01  0.25520959362E+02  0.45045679098E+02  0.00000000000E+00 0. -1.
         11    1    4    4    0    0  0.11958938200E+00  0.52019691364E+00 -0.20663781951E+00  0.57236867386E+00  0.51100000000E-03 0. -1.
        -11    1    4    4    0    0 -0.44143953612E+00  0.56870831181E-01 -0.19974785151E+01  0.20464661822E+01  0.51100000000E-03 0.  1.
        -12    1    4    4    0    0 -0.36649450343E+02  0.27269870608E+01 -0.23316843028E+02  0.43523486046E+02  0.00000000000E+00 0.  1.
</event>
<event>
 8    1  0.2882335E-009  0.9118800E+02  0.7816164E-02  0.1184000E+00
        -11   -1    0    0    0    0  0.00000000000E+00  0.00000000000E+00  0.45593999997E+02  0.45594000000E+02  0.51100000000E-03 0. -1.
         11   -1    0    0    0    0 -0.00000000000E+00 -0.00000000000E+00 -0.45593999997E+02  0.45594000000E+02  0.51100000000E-03 0.  1.
         23    2    1    2    0    0  0.00000000000E+00  0.00000000000E+00  0.00000000000E+00  0.91188000000E+02  0.91188000000E+02 0.  0.
    9900012    2    3    3    0    0 -0.18545078235E+02 -0.11216675381E+02 -0.39488983294E+02  0.46142317244E+02  0.99999952845E+01 0.  0.
         12    1    3    3    0    0  0.18545078235E+02  0.11216675381E+02  0.39488983294E+02  0.45045682756E+02  0.00000000000E+00 0. -1.
         11    1    4    4    0    0 -0.47149377080E+01 -0.71280144532E+01 -0.13428333771E+02  0.15917266592E+02  0.51100000000E-03 0. -1.
        -11    1    4    4    0    0 -0.65920262800E+01 -0.57623180424E-01 -0.15176632506E+02  0.16546549652E+02  0.51100000000E-03 0.  1.
         12    1    4    4    0    0 -0.72381142465E+01 -0.40310377472E+01 -0.10884017017E+02  0.13678501000E+02  0.00000000000E+00 0. -1.
</event>
<event>
 8    1  0.2882335E-009  0.9118800E+02  0.7816164E-02  0.1184000E+00
        -11   -1    0    0    0    0  0.00000000000E+00  0.00000000000E+00  0.45593999997E+02  0.45594000000E+02  0.51100000000E-03 0. -1.
         11   -1    0    0    0    0 -0.00000000000E+00 -0.00000000000E+00 -0.45593999997E+02  0.45594000000E+02  0.51100000000E-03 0.  1.
         23    2    1    2    0    0  0.44408920985E-15  0.71054273576E-14  0.00000000000E+00  0.91188000000E+02  0.91188000000E+02 0.  0.
    9900012    2    3    3    0    0  0.35196075763E+01  0.37522938830E+02 -0.24672960827E+02  0.46142316834E+02  0.99999915470E+01 0.  0.
         12    1    3    3    0    0 -0.35196075763E+01 -0.37522938830E+02  0.24672960827E+02  0.45045683166E+02  0.00000000000E+00 0. -1.
         11    1    4    4    0    0 -0.20005514102E+00  0.16671293000E+01  0.79315182359E+00  0.18569954870E+01  0.51100000000E-03 0. -1.
        -11    1    4    4    0    0  0.25024224108E+01  0.11802887404E+02 -0.71159775877E+01  0.14007405408E+02  0.51100000000E-03 0.  1.
         12    1    4    4    0    0  0.12172403066E+01  0.24052922126E+02 -0.18350135063E+02  0.30277915939E+02  0.00000000000E+00 0. -1.
</event>
<event>
 8    1  0.2882335E-009  0.9118800E+02  0.7816164E-02  0.1184000E+00
        -11   -1    0    0    0    0  0.00000000000E+00  0.00000000000E+00  0.45593999997E+02  0.45594000000E+02  0.51100000000E-03 0. -1.
         11   -1    0    0    0    0 -0.00000000000E+00 -0.00000000000E+00 -0.45593999997E+02  0.45594000000E+02  0.51100000000E-03 0.  1.
         23    2    1    2    0    0  0.00000000000E+00  0.00000000000E+00  0.71054273576E-14  0.91188000000E+02  0.91188000000E+02 0.  0.
    9900012    2    3    3    0    0 -0.21771451738E+02  0.16812509313E+02  0.35671513171E+02  0.46142318386E+02  0.10000005696E+02 0.  0.
        -12    1    3    3    0    0  0.21771451738E+02 -0.16812509313E+02 -0.35671513171E+02  0.45045681614E+02  0.00000000000E+00 0.  1.
         11    1    4    4    0    0 -0.10669887438E+02  0.96204176000E+01  0.18040894177E+02  0.23062367521E+02  0.51100000000E-03 0. -1.
        -11    1    4    4    0    0 -0.11712262192E+02  0.75504448628E+01  0.17482160422E+02  0.22356480863E+02  0.51100000000E-03 0.  1.
        -12    1    4    4    0    0  0.61069789218E+00 -0.35835314963E+00  0.14845857203E+00  0.72347000144E+00  0.00000000000E+00 0.  1.
</event>
<event>
 8    1  0.2882335E-009  0.9118800E+02  0.7816164E-02  0.1184000E+00
        -11   -1    0    0    0    0  0.00000000000E+00  0.00000000000E+00  0.45593999997E+02  0.45594000000E+02  0.51100000000E-03 0. -1.
         11   -1    0    0    0    0 -0.00000000000E+00 -0.00000000000E+00 -0.45593999997E+02  0.45594000000E+02  0.51100000000E-03 0.  1.
         23    2    1    2    0    0  0.53290705182E-14 -0.26645352591E-14  0.00000000000E+00  0.91188000000E+02  0.91188000000E+02 0.  0.
    9900012    2    3    3    0    0 -0.12629435160E+02  0.78290990887E+01  0.42524299993E+02  0.46142317466E+02  0.99999973121E+01 0.  0.
        -12    1    3    3    0    0  0.12629435160E+02 -0.78290990887E+01 -0.42524299993E+02  0.45045682534E+02  0.00000000000E+00 0.  1.
         11    1    4    4    0    0 -0.28456952476E+01 -0.10933246141E+01  0.15773205224E+02  0.16065097057E+02  0.51100000000E-03 0. -1.
        -11    1    4    4    0    0 -0.94090279363E+01  0.89170730004E+01  0.23790682452E+02  0.27093183080E+02  0.51100000000E-03 0.  1.
        -12    1    4    4    0    0 -0.37471197580E+00  0.53507023564E-02  0.29604123174E+01  0.29840373295E+01  0.00000000000E+00 0.  1.
</event>
<event>
 8    1  0.2882335E-009  0.9118800E+02  0.7816164E-02  0.1184000E+00
        -11   -1    0    0    0    0  0.00000000000E+00  0.00000000000E+00  0.45593999997E+02  0.45594000000E+02  0.51100000000E-03 0.  1.
         11   -1    0    0    0    0 -0.00000000000E+00 -0.00000000000E+00 -0.45593999997E+02  0.45594000000E+02  0.51100000000E-03 0. -1.
         23    2    1    2    0    0  0.00000000000E+00  0.00000000000E+00 -0.35527136788E-14  0.91188000000E+02  0.91188000000E+02 0.  0.
    9900012    2    3    3    0    0  0.90818102119E+01  0.38410883498E+02  0.21708024270E+02  0.46142316905E+02  0.99999921905E+01 0.  0.
        -12    1    3    3    0    0 -0.90818102119E+01 -0.38410883498E+02 -0.21708024270E+02  0.45045683095E+02  0.00000000000E+00 0.  1.
         11    1    4    4    0    0  0.59131461842E+00  0.11955797169E+02  0.95304619065E+01  0.15300994848E+02  0.51100000000E-03 0. -1.
        -11    1    4    4    0    0  0.67819399945E+00  0.45513463017E+01  0.42724762945E+01  0.62792319759E+01  0.51100000000E-03 0.  1.
         12    1    4    4    0    0  0.78123015940E+01  0.21903740028E+02  0.79050860686E+01  0.24562090081E+02  0.00000000000E+00 0. -1.
</event>
<event>
 8    1  0.2882335E-009  0.9118800E+02  0.7816164E-02  0.1184000E+00
        -11   -1    0    0    0    0  0.00000000000E+00  0.00000000000E+00  0.45593999997E+02  0.45594000000E+02  0.51100000000E-03 0. -1.
         11   -1    0    0    0    0 -0.00000000000E+00 -0.00000000000E+00 -0.45593999997E+02  0.45594000000E+02  0.51100000000E-03 0.  1.
         23    2    1    2    0    0  0.17763568394E-14  0.71054273576E-14  0.00000000000E+00  0.91188000000E+02  0.91188000000E+02 0.  0.
    9900012    2    3    3    0    0 -0.11159837278E+02  0.32635385594E+02 -0.28974179214E+02  0.46142318497E+02  0.10000006709E+02 0.  0.
         12    1    3    3    0    0  0.11159837278E+02 -0.32635385594E+02  0.28974179214E+02  0.45045681503E+02  0.00000000000E+00 0. -1.
         11    1    4    4    0    0  0.17938778813E+00  0.14094300998E+00  0.41545128481E-01  0.23188611303E+00  0.51100000000E-03 0. -1.
        -11    1    4    4    0    0 -0.68057263125E+01  0.27080280495E+02 -0.19485641849E+02  0.34049225261E+02  0.51100000000E-03 0.  1.
        -12    1    4    4    0    0 -0.45334987540E+01  0.54141620891E+01 -0.95300824939E+01  0.11861207123E+02  0.00000000000E+00 0.  1.
</event>
<event>
 8    1  0.2882335E-009  0.9118800E+02  0.7816164E-02  0.1184000E+00
        -11   -1    0    0    0    0  0.00000000000E+00  0.00000000000E+00  0.45593999997E+02  0.45594000000E+02  0.51100000000E-03 0. -1.
         11   -1    0    0    0    0 -0.00000000000E+00 -0.00000000000E+00 -0.45593999997E+02  0.45594000000E+02  0.51100000000E-03 0.  1.
         23    2    1    2    0    0  0.00000000000E+00  0.00000000000E+00 -0.35527136788E-14  0.91188000000E+02  0.91188000000E+02 0.  0.
    9900012    2    3    3    0    0  0.41444736572E+01  0.34484961420E+02  0.28683174217E+02  0.46142315310E+02  0.99999776478E+01 0.  0.
        -12    1    3    3    0    0 -0.41444736572E+01 -0.34484961420E+02 -0.28683174217E+02  0.45045684690E+02  0.00000000000E+00 0.  1.
         11    1    4    4    0    0 -0.20474693734E+01  0.11945385954E+02  0.92171809418E+01  0.15226319359E+02  0.51100000000E-03 0. -1.
        -11    1    4    4    0    0  0.44129261643E+01  0.11666011449E+02  0.13524912399E+02  0.18398179152E+02  0.51100000000E-03 0.  1.
        -12    1    4    4    0    0  0.17790168664E+01  0.10873564017E+02  0.59410808766E+01  0.12517816799E+02  0.00000000000E+00 0.  1.
</event>
<event>
 8    1  0.2882335E-009  0.9118800E+02  0.7816164E-02  0.1184000E+00
        -11   -1    0    0    0    0  0.00000000000E+00  0.00000000000E+00  0.45593999997E+02  0.45594000000E+02  0.51100000000E-03 0. -1.
         11   -1    0    0    0    0 -0.00000000000E+00 -0.00000000000E+00 -0.45593999997E+02  0.45594000000E+02  0.51100000000E-03 0.  1.
         23    2    1    2    0    0 -0.88817841970E-15  0.35527136788E-14  0.00000000000E+00  0.91188000000E+02  0.91188000000E+02 0.  0.
    9900012    2    3    3    0    0  0.75723505436E+01 -0.23919305092E+02  0.37411761198E+02  0.46142317357E+02  0.99999963135E+01 0.  0.
        -12    1    3    3    0    0 -0.75723505436E+01  0.23919305092E+02 -0.37411761198E+02  0.45045682643E+02  0.00000000000E+00 0.  1.
         11    1    4    4    0    0 -0.16771175387E+01 -0.59098685710E+01  0.97094362013E+01  0.11489665851E+02  0.51100000000E-03 0. -1.
        -11    1    4    4    0    0  0.54775168355E+01 -0.11111327039E+02  0.20703422211E+02  0.24126675502E+02  0.51100000000E-03 0.  1.
        -12    1    4    4    0    0  0.37719512468E+01 -0.68981094815E+01  0.69989027863E+01  0.10525976004E+02  0.00000000000E+00 0.  1.
</event>
<event>
 8    1  0.2882335E-009  0.9118800E+02  0.7816164E-02  0.1184000E+00
        -11   -1    0    0    0    0  0.00000000000E+00  0.00000000000E+00  0.45593999997E+02  0.45594000000E+02  0.51100000000E-03 0. -1.
         11   -1    0    0    0    0 -0.00000000000E+00 -0.00000000000E+00 -0.45593999997E+02  0.45594000000E+02  0.51100000000E-03 0.  1.
         23    2    1    2    0    0 -0.88817841970E-15  0.00000000000E+00  0.00000000000E+00  0.91188000000E+02  0.91188000000E+02 0.  0.
    9900012    2    3    3    0    0 -0.58938320579E+01  0.15137460169E+02  0.42014682537E+02  0.46142317573E+02  0.99999982811E+01 0.  0.
        -12    1    3    3    0    0  0.58938320579E+01 -0.15137460169E+02 -0.42014682537E+02  0.45045682427E+02  0.00000000000E+00 0.  1.
         11    1    4    4    0    0 -0.28415186293E+01  0.41407249175E+00  0.10376228148E+02  0.10766234021E+02  0.51100000000E-03 0. -1.
        -11    1    4    4    0    0  0.24068222972E+00  0.10046333094E+02  0.18685908266E+02  0.21216736426E+02  0.51100000000E-03 0.  1.
         12    1    4    4    0    0 -0.32929956583E+01  0.46770545836E+01  0.12952546122E+02  0.14159347126E+02  0.00000000000E+00 0. -1.
</event>
<event>
 8    1  0.3079126E-009  0.9118800E+02  0.7816164E-02  0.1184000E+00
        -11   -1    0    0    0    0  0.00000000000E+00  0.00000000000E+00  0.45593999997E+02  0.45594000000E+02  0.51100000000E-03 0. -1.
         11   -1    0    0    0    0 -0.00000000000E+00 -0.00000000000E+00 -0.45593999997E+02  0.45594000000E+02  0.51100000000E-03 0.  1.
         23    2    1    2    0    0  0.00000000000E+00  0.00000000000E+00  0.00000000000E+00  0.91188000000E+02  0.91188000000E+02 0.  0.
    9900012    2    3    3    0    0  0.58750807793E+01 -0.10134903422E+02  0.43495753420E+02  0.46142318664E+02  0.10000008229E+02 0.  0.
        -12    1    3    3    0    0 -0.58750807793E+01  0.10134903422E+02 -0.43495753420E+02  0.45045681336E+02  0.00000000000E+00 0.  1.
         11    1    4    4    0    0 -0.86683157074E+00 -0.64467702875E+01  0.22199188579E+02  0.23132579146E+02  0.51100000000E-03 0. -1.
        -11    1    4    4    0    0  0.28128749457E+01 -0.20653517316E+01  0.45618983319E+01  0.57435929423E+01  0.51100000000E-03 0.  1.
         12    1    4    4    0    0  0.39290374043E+01 -0.16227814026E+01  0.16734666509E+02  0.17266146575E+02  0.00000000000E+00 0. -1.
</event>
<event>
 8    1  0.2882335E-009  0.9118800E+02  0.7816164E-02  0.1184000E+00
        -11   -1    0    0    0    0  0.00000000000E+00  0.00000000000E+00  0.45593999997E+02  0.45594000000E+02  0.51100000000E-03 0. -1.
         11   -1    0    0    0    0 -0.00000000000E+00 -0.00000000000E+00 -0.45593999997E+02  0.45594000000E+02  0.51100000000E-03 0.  1.
         23    2    1    2    0    0  0.00000000000E+00  0.00000000000E+00  0.00000000000E+00  0.91188000000E+02  0.91188000000E+02 0.  0.
    9900012    2    3    3    0    0 -0.13407864963E+02  0.25526115976E+02 -0.34608671310E+02  0.46142316861E+02  0.99999917878E+01 0.  0.
         12    1    3    3    0    0  0.13407864963E+02 -0.25526115976E+02  0.34608671310E+02  0.45045683139E+02  0.00000000000E+00 0. -1.
         11    1    4    4    0    0 -0.38230686983E+01  0.21753735572E+01 -0.54153049287E+01  0.69766490608E+01  0.51100000000E-03 0. -1.
        -11    1    4    4    0    0  0.86999157735E+00  0.42084078467E+01 -0.49090325378E+01  0.65242764095E+01  0.51100000000E-03 0.  1.
         12    1    4    4    0    0 -0.10454787842E+02  0.19142334572E+02 -0.24284333843E+02  0.32641391390E+02  0.00000000000E+00 0. -1.
</event>
<event>
 8    1  0.2882335E-009  0.9118800E+02  0.7816164E-02  0.1184000E+00
        -11   -1    0    0    0    0  0.00000000000E+00  0.00000000000E+00  0.45593999997E+02  0.45594000000E+02  0.51100000000E-03 0. -1.
         11   -1    0    0    0    0 -0.00000000000E+00 -0.00000000000E+00 -0.45593999997E+02  0.45594000000E+02  0.51100000000E-03 0.  1.
         23    2    1    2    0    0  0.00000000000E+00  0.71054273576E-14  0.71054273576E-14  0.91188000000E+02  0.91188000000E+02 0.  0.
    9900012    2    3    3    0    0 -0.53630826828E+01 -0.34576492108E+02 -0.28369296164E+02  0.46142318441E+02  0.10000006196E+02 0.  0.
         12    1    3    3    0    0  0.53630826828E+01  0.34576492108E+02  0.28369296164E+02  0.45045681559E+02  0.00000000000E+00 0. -1.
         11    1    4    4    0    0 -0.42044522947E+01 -0.12121913573E+02 -0.72767187255E+01  0.14750215030E+02  0.51100000000E-03 0. -1.
        -11    1    4    4    0    0 -0.31811542784E+01 -0.12788634873E+02 -0.10016316273E+02  0.16552809924E+02  0.51100000000E-03 0.  1.
         12    1    4    4    0    0  0.20225238903E+01 -0.96659436619E+01 -0.11076261166E+02  0.14839293486E+02  0.00000000000E+00 0. -1.
</event>
<event>
 8    1  0.2882335E-009  0.9118800E+02  0.7816164E-02  0.1184000E+00
        -11   -1    0    0    0    0  0.00000000000E+00  0.00000000000E+00  0.45593999997E+02  0.45594000000E+02  0.51100000000E-03 0. -1.
         11   -1    0    0    0    0 -0.00000000000E+00 -0.00000000000E+00 -0.45593999997E+02  0.45594000000E+02  0.51100000000E-03 0.  1.
         23    2    1    2    0    0  0.00000000000E+00 -0.17763568394E-14  0.00000000000E+00  0.91188000000E+02  0.91188000000E+02 0.  0.
    9900012    2    3    3    0    0 -0.42347624403E+02  0.11772212148E+02 -0.98593680481E+01  0.46142318634E+02  0.10000007963E+02 0.  0.
         12    1    3    3    0    0  0.42347624403E+02 -0.11772212148E+02  0.98593680481E+01  0.45045681366E+02  0.00000000000E+00 0. -1.
         11    1    4    4    0    0 -0.14468579100E+02  0.55375202680E+01 -0.56442027837E+01  0.16488206004E+02  0.51100000000E-03 0. -1.
        -11    1    4    4    0    0 -0.78709987223E+01  0.44908407728E+01  0.30768276086E+00  0.90672454845E+01  0.51100000000E-03 0.  1.
         12    1    4    4    0    0 -0.20008046580E+02  0.17438511067E+01 -0.45228480253E+01  0.20586867146E+02  0.00000000000E+00 0. -1.
</event>
<event>
 8    1  0.2882335E-009  0.9118800E+02  0.7816164E-02  0.1184000E+00
        -11   -1    0    0    0    0  0.00000000000E+00  0.00000000000E+00  0.45593999997E+02  0.45594000000E+02  0.51100000000E-03 0. -1.
         11   -1    0    0    0    0 -0.00000000000E+00 -0.00000000000E+00 -0.45593999997E+02  0.45594000000E+02  0.51100000000E-03 0.  1.
         23    2    1    2    0    0  0.00000000000E+00  0.00000000000E+00  0.00000000000E+00  0.91188000000E+02  0.91188000000E+02 0.  0.
    9900012    2    3    3    0    0  0.16605980401E+02 -0.11763871540E+02 -0.40186642352E+02  0.46142317829E+02  0.10000000619E+02 0.  0.
         12    1    3    3    0    0 -0.16605980401E+02  0.11763871540E+02  0.40186642352E+02  0.45045682171E+02  0.00000000000E+00 0. -1.
         11    1    4    4    0    0 -0.12658730242E+01 -0.64809410169E+00 -0.26588061915E+01  0.30152464416E+01  0.51100000000E-03 0. -1.
        -11    1    4    4    0    0  0.57348728996E+01 -0.50783669009E+01 -0.14757884688E+02  0.16627499460E+02  0.51100000000E-03 0.  1.
         12    1    4    4    0    0  0.12136980526E+02 -0.60374105373E+01 -0.22769951473E+02  0.26499571928E+02  0.00000000000E+00 0. -1.
</event>
<event>
 8    1  0.2882335E-009  0.9118800E+02  0.7816164E-02  0.1184000E+00
        -11   -1    0    0    0    0  0.00000000000E+00  0.00000000000E+00  0.45593999997E+02  0.45594000000E+02  0.51100000000E-03 0. -1.
         11   -1    0    0    0    0 -0.00000000000E+00 -0.00000000000E+00 -0.45593999997E+02  0.45594000000E+02  0.51100000000E-03 0.  1.
         23    2    1    2    0    0  0.00000000000E+00  0.00000000000E+00  0.00000000000E+00  0.91188000000E+02  0.91188000000E+02 0.  0.
    9900012    2    3    3    0    0  0.15186849439E+02  0.11203336103E+02 -0.40901813756E+02  0.46142317585E+02  0.99999983961E+01 0.  0.
         12    1    3    3    0    0 -0.15186849439E+02 -0.11203336103E+02  0.40901813756E+02  0.45045682415E+02  0.00000000000E+00 0. -1.
         11    1    4    4    0    0  0.34848600694E+01  0.46450565733E+01 -0.67154337326E+01  0.88779418082E+01  0.51100000000E-03 0. -1.
        -11    1    4    4    0    0  0.97100072062E+01  0.77947989231E+01 -0.27797947893E+02  0.30459301330E+02  0.51100000000E-03 0.  1.
         12    1    4    4    0    0  0.19919821631E+01 -0.12365193931E+01 -0.63884321302E+01  0.68050744470E+01  0.00000000000E+00 0. -1.
</event>
<event>
 8    1  0.2882335E-009  0.9118800E+02  0.7816164E-02  0.1184000E+00
        -11   -1    0    0    0    0  0.00000000000E+00  0.00000000000E+00  0.45593999997E+02  0.45594000000E+02  0.51100000000E-03 0. -1.
         11   -1    0    0    0    0 -0.00000000000E+00 -0.00000000000E+00 -0.45593999997E+02  0.45594000000E+02  0.51100000000E-03 0.  1.
         23    2    1    2    0    0 -0.71054273576E-14  0.00000000000E+00  0.00000000000E+00  0.91188000000E+02  0.91188000000E+02 0.  0.
    9900012    2    3    3    0    0 -0.32191811864E+02  0.10332674121E+02 -0.29766364608E+02  0.46142319102E+02  0.10000012230E+02 0.  0.
         12    1    3    3    0    0  0.32191811864E+02 -0.10332674121E+02  0.29766364608E+02  0.45045680898E+02  0.00000000000E+00 0. -1.
         11    1    4    4    0    0 -0.12784414408E+02  0.41415220228E+01 -0.85630686897E+01  0.15934854944E+02  0.51100000000E-03 0.  1.
        -11    1    4    4    0    0 -0.67325709699E+01 -0.97318121524E+00 -0.51277503468E+01  0.85187098449E+01  0.51100000000E-03 0. -1.
         12    1    4    4    0    0 -0.12674826486E+02  0.71643333131E+01 -0.16075545571E+02  0.21688754314E+02  0.00000000000E+00 0. -1.
</event>
<event>
 8    1  0.2882335E-009  0.9118800E+02  0.7816164E-02  0.1184000E+00
        -11   -1    0    0    0    0  0.00000000000E+00  0.00000000000E+00  0.45593999997E+02  0.45594000000E+02  0.51100000000E-03 0. -1.
         11   -1    0    0    0    0 -0.00000000000E+00 -0.00000000000E+00 -0.45593999997E+02  0.45594000000E+02  0.51100000000E-03 0.  1.
         23    2    1    2    0    0 -0.35527136788E-14 -0.88817841970E-15  0.71054273576E-14  0.91188000000E+02  0.91188000000E+02 0.  0.
    9900012    2    3    3    0    0 -0.22693575247E+02 -0.70354598043E+01  0.38270320431E+02  0.46142317876E+02  0.10000001044E+02 0.  0.
        -12    1    3    3    0    0  0.22693575247E+02  0.70354598043E+01 -0.38270320431E+02  0.45045682124E+02  0.00000000000E+00 0.  1.
         11    1    4    4    0    0 -0.50623105440E+01  0.45422209612E+00  0.93654698647E+01  0.10655765191E+02  0.51100000000E-03 0. -1.
        -11    1    4    4    0    0 -0.10145398469E+02 -0.76826676802E+01  0.21310832257E+02  0.24821443643E+02  0.51100000000E-03 0.  1.
         12    1    4    4    0    0 -0.74858662340E+01  0.19298577979E+00  0.75940183092E+01  0.10665109041E+02  0.00000000000E+00 0. -1.
</event>
<event>
 8    1  0.2882335E-009  0.9118800E+02  0.7816164E-02  0.1184000E+00
        -11   -1    0    0    0    0  0.00000000000E+00  0.00000000000E+00  0.45593999997E+02  0.45594000000E+02  0.51100000000E-03 0. -1.
         11   -1    0    0    0    0 -0.00000000000E+00 -0.00000000000E+00 -0.45593999997E+02  0.45594000000E+02  0.51100000000E-03 0.  1.
         23    2    1    2    0    0  0.17763568394E-14  0.00000000000E+00  0.00000000000E+00  0.91188000000E+02  0.91188000000E+02 0.  0.
    9900012    2    3    3    0    0 -0.13078675202E+02 -0.38225943214E+02  0.19920816041E+02  0.46142318837E+02  0.10000009814E+02 0.  0.
        -12    1    3    3    0    0  0.13078675202E+02  0.38225943214E+02 -0.19920816041E+02  0.45045681163E+02  0.00000000000E+00 0.  1.
         11    1    4    4    0    0 -0.65697675065E+01 -0.14808860031E+02  0.51112535344E+01  0.16987910215E+02  0.51100000000E-03 0. -1.
        -11    1    4    4    0    0 -0.42377153284E+01 -0.63434676161E+01  0.65386800376E+01  0.10047494688E+02  0.51100000000E-03 0.  1.
         12    1    4    4    0    0 -0.22711923674E+01 -0.17073615567E+02  0.82708824692E+01  0.19106913935E+02  0.00000000000E+00 0. -1.
</event>
<event>
 8    1  0.2882335E-009  0.9118800E+02  0.7816164E-02  0.1184000E+00
        -11   -1    0    0    0    0  0.00000000000E+00  0.00000000000E+00  0.45593999997E+02  0.45594000000E+02  0.51100000000E-03 0.  1.
         11   -1    0    0    0    0 -0.00000000000E+00 -0.00000000000E+00 -0.45593999997E+02  0.45594000000E+02  0.51100000000E-03 0. -1.
         23    2    1    2    0    0  0.35527136788E-14  0.71054273576E-14  0.88817841970E-15  0.91188000000E+02  0.91188000000E+02 0.  0.
    9900012    2    3    3    0    0  0.30388091665E+02  0.32384236484E+02  0.75457708658E+01  0.46142317125E+02  0.99999942034E+01 0.  0.
        -12    1    3    3    0    0 -0.30388091665E+02 -0.32384236484E+02 -0.75457708658E+01  0.45045682875E+02  0.00000000000E+00 0.  1.
         11    1    4    4    0    0  0.19375762395E+01  0.19816376530E+01 -0.51997142808E+00  0.28198333317E+01  0.51100000000E-03 0. -1.
        -11    1    4    4    0    0  0.52615793797E+01  0.26516654600E+01  0.35467890060E+01  0.68771549201E+01  0.51100000000E-03 0.  1.
        -12    1    4    4    0    0  0.23188936045E+02  0.27750933371E+02  0.45189532879E+01  0.36445328874E+02  0.00000000000E+00 0.  1.
</event>
<event>
 8    1  0.2882335E-009  0.9118800E+02  0.7816164E-02  0.1184000E+00
        -11   -1    0    0    0    0  0.00000000000E+00  0.00000000000E+00  0.45593999997E+02  0.45594000000E+02  0.51100000000E-03 0. -1.
         11   -1    0    0    0    0 -0.00000000000E+00 -0.00000000000E+00 -0.45593999997E+02  0.45594000000E+02  0.51100000000E-03 0.  1.
         23    2    1    2    0    0  0.00000000000E+00  0.00000000000E+00  0.00000000000E+00  0.91188000000E+02  0.91188000000E+02 0.  0.
    9900012    2    3    3    0    0 -0.41131430476E+02  0.12010558403E+02 -0.13894796702E+02  0.46142318059E+02  0.10000002713E+02 0.  0.
         12    1    3    3    0    0  0.41131430476E+02 -0.12010558403E+02  0.13894796702E+02  0.45045681941E+02  0.00000000000E+00 0. -1.
         11    1    4    4    0    0 -0.32162471514E+01  0.28354531897E+01 -0.34626731814E+00  0.43016208395E+01  0.51100000000E-03 0. -1.
        -11    1    4    4    0    0 -0.80418996204E+01  0.33918011080E+01 -0.52772084359E+00  0.87438523438E+01  0.51100000000E-03 0.  1.
        -12    1    4    4    0    0 -0.29873283704E+02  0.57833041052E+01 -0.13020808540E+02  0.33096844875E+02  0.00000000000E+00 0.  1.
</event>
<event>
 8    1  0.2882335E-009  0.9118800E+02  0.7816164E-02  0.1184000E+00
        -11   -1    0    0    0    0  0.00000000000E+00  0.00000000000E+00  0.45593999997E+02  0.45594000000E+02  0.51100000000E-03 0. -1.
         11   -1    0    0    0    0 -0.00000000000E+00 -0.00000000000E+00 -0.45593999997E+02  0.45594000000E+02  0.51100000000E-03 0.  1.
         23    2    1    2    0    0 -0.35527136788E-14  0.35527136788E-14  0.00000000000E+00  0.91188000000E+02  0.91188000000E+02 0.  0.
    9900012    2    3    3    0    0 -0.22265416900E+02 -0.21925014286E+02  0.32444701153E+02  0.46142315700E+02  0.99999812047E+01 0.  0.
        -12    1    3    3    0    0  0.22265416900E+02  0.21925014286E+02 -0.32444701153E+02  0.45045684300E+02  0.00000000000E+00 0.  1.
         11    1    4    4    0    0 -0.11743246062E+02 -0.66941783909E+01  0.15172297156E+02  0.20320296593E+02  0.51100000000E-03 0. -1.
        -11    1    4    4    0    0 -0.97686136173E+01 -0.15299900923E+02  0.17284439895E+02  0.25065207819E+02  0.51100000000E-03 0.  1.
        -12    1    4    4    0    0 -0.75355722060E+00  0.69065027555E-01 -0.12035897782E-01  0.75681128796E+00  0.00000000000E+00 0.  1.
</event>
<event>
 8    1  0.2882335E-009  0.9118800E+02  0.7816164E-02  0.1184000E+00
        -11   -1    0    0    0    0  0.00000000000E+00  0.00000000000E+00  0.45593999997E+02  0.45594000000E+02  0.51100000000E-03 0. -1.
         11   -1    0    0    0    0 -0.00000000000E+00 -0.00000000000E+00 -0.45593999997E+02  0.45594000000E+02  0.51100000000E-03 0.  1.
         23    2    1    2    0    0  0.17763568394E-14  0.00000000000E+00  0.00000000000E+00  0.91188000000E+02  0.91188000000E+02 0.  0.
    9900012    2    3    3    0    0 -0.95465625942E+01  0.85927392710E+01 -0.43175704734E+02  0.46142317578E+02  0.99999983338E+01 0.  0.
         12    1    3    3    0    0  0.95465625942E+01 -0.85927392710E+01  0.43175704734E+02  0.45045682422E+02  0.00000000000E+00 0. -1.
         11    1    4    4    0    0 -0.47379733334E+01  0.18314518403E+01 -0.70593215314E+01  0.86969320968E+01  0.51100000000E-03 0. -1.
        -11    1    4    4    0    0  0.95307990587E+00  0.25868797385E+01 -0.91635458331E+01  0.95692675052E+01  0.51100000000E-03 0.  1.
         12    1    4    4    0    0 -0.57616691667E+01  0.41744076921E+01 -0.26952837370E+02  0.27876117976E+02  0.00000000000E+00 0. -1.
</event>
<event>
 8    1  0.2882335E-009  0.9118800E+02  0.7816164E-02  0.1184000E+00
        -11   -1    0    0    0    0  0.00000000000E+00  0.00000000000E+00  0.45593999997E+02  0.45594000000E+02  0.51100000000E-03 0. -1.
         11   -1    0    0    0    0 -0.00000000000E+00 -0.00000000000E+00 -0.45593999997E+02  0.45594000000E+02  0.51100000000E-03 0.  1.
         23    2    1    2    0    0  0.00000000000E+00  0.00000000000E+00  0.44408920985E-15  0.91188000000E+02  0.91188000000E+02 0.  0.
    9900012    2    3    3    0    0  0.39877454307E+02 -0.20651583848E+02 -0.35233881779E+01  0.46142317169E+02  0.99999946039E+01 0.  0.
         12    1    3    3    0    0 -0.39877454307E+02  0.20651583848E+02  0.35233881779E+01  0.45045682831E+02  0.00000000000E+00 0. -1.
         11    1    4    4    0    0  0.14235232285E+02 -0.11965794751E+02 -0.18644576076E+01  0.18689523393E+02  0.51100000000E-03 0. -1.
        -11    1    4    4    0    0  0.71283641276E+01 -0.37107965472E+01  0.10010243831E+01  0.80984959238E+01  0.51100000000E-03 0.  1.
         12    1    4    4    0    0  0.18513857895E+02 -0.49749925495E+01 -0.26599549534E+01  0.19354297852E+02  0.00000000000E+00 0. -1.
</event>
<event>
 8    1  0.2882335E-009  0.9118800E+02  0.7816164E-02  0.1184000E+00
        -11   -1    0    0    0    0  0.00000000000E+00  0.00000000000E+00  0.45593999997E+02  0.45594000000E+02  0.51100000000E-03 0. -1.
         11   -1    0    0    0    0 -0.00000000000E+00 -0.00000000000E+00 -0.45593999997E+02  0.45594000000E+02  0.51100000000E-03 0.  1.
         23    2    1    2    0    0  0.00000000000E+00  0.00000000000E+00  0.00000000000E+00  0.91188000000E+02  0.91188000000E+02 0.  0.
    9900012    2    3    3    0    0  0.97306483305E+01  0.20822238376E+02  0.38740964892E+02  0.46142317758E+02  0.99999999713E+01 0.  0.
        -12    1    3    3    0    0 -0.97306483305E+01 -0.20822238376E+02 -0.38740964892E+02  0.45045682242E+02  0.00000000000E+00 0.  1.
         11    1    4    4    0    0  0.12421392771E+01  0.38726068611E+01  0.84774061304E+01  0.94024682316E+01  0.51100000000E-03 0. -1.
        -11    1    4    4    0    0  0.21364257029E+01  0.69994272664E-01  0.69089827836E+01  0.72320990969E+01  0.51100000000E-03 0.  1.
        -12    1    4    4    0    0  0.63520833506E+01  0.16879637242E+02  0.23354575978E+02  0.29507750430E+02  0.00000000000E+00 0.  1.
</event>
<event>
 8    1  0.2882335E-009  0.9118800E+02  0.7816164E-02  0.1184000E+00
        -11   -1    0    0    0    0  0.00000000000E+00  0.00000000000E+00  0.45593999997E+02  0.45594000000E+02  0.51100000000E-03 0.  1.
         11   -1    0    0    0    0 -0.00000000000E+00 -0.00000000000E+00 -0.45593999997E+02  0.45594000000E+02  0.51100000000E-03 0. -1.
         23    2    1    2    0    0  0.00000000000E+00  0.00000000000E+00  0.00000000000E+00  0.91188000000E+02  0.91188000000E+02 0.  0.
    9900012    2    3    3    0    0  0.28801267355E+02  0.31888803171E+02  0.13516832218E+02  0.46142317387E+02  0.99999965863E+01 0.  0.
         12    1    3    3    0    0 -0.28801267355E+02 -0.31888803171E+02 -0.13516832218E+02  0.45045682613E+02  0.00000000000E+00 0. -1.
         11    1    4    4    0    0  0.27253655243E+01  0.35717810791E+01 -0.78725116240E+00  0.45612500449E+01  0.51100000000E-03 0. -1.
        -11    1    4    4    0    0  0.19803691721E+02  0.19771408473E+02  0.74525669140E+01  0.28959204973E+02  0.51100000000E-03 0.  1.
        -12    1    4    4    0    0  0.62722101090E+01  0.85456136182E+01  0.68515164667E+01  0.12621862369E+02  0.00000000000E+00 0.  1.
</event>
<event>
 8    1  0.2882335E-009  0.9118800E+02  0.7816164E-02  0.1184000E+00
        -11   -1    0    0    0    0  0.00000000000E+00  0.00000000000E+00  0.45593999997E+02  0.45594000000E+02  0.51100000000E-03 0. -1.
         11   -1    0    0    0    0 -0.00000000000E+00 -0.00000000000E+00 -0.45593999997E+02  0.45594000000E+02  0.51100000000E-03 0.  1.
         23    2    1    2    0    0  0.17763568394E-14  0.88817841970E-15  0.71054273576E-14  0.91188000000E+02  0.91188000000E+02 0.  0.
    9900012    2    3    3    0    0 -0.91018079503E+01 -0.63896440699E+01 -0.43651381659E+02  0.46142316743E+02  0.99999907168E+01 0.  0.
         12    1    3    3    0    0  0.91018079503E+01  0.63896440699E+01  0.43651381659E+02  0.45045683257E+02  0.00000000000E+00 0. -1.
         11    1    4    4    0    0  0.12194971370E+01 -0.16017018968E+00 -0.71931700268E+00  0.14248666493E+01  0.51100000000E-03 0. -1.
        -11    1    4    4    0    0 -0.80728315747E+01 -0.40690417936E+01 -0.26710578900E+02  0.28198984666E+02  0.51100000000E-03 0.  1.
         12    1    4    4    0    0 -0.22484735125E+01 -0.21604320866E+01 -0.16221485756E+02  0.16518465428E+02  0.00000000000E+00 0. -1.
</event>
<event>
 8    1  0.2882335E-009  0.9118800E+02  0.7816164E-02  0.1184000E+00
        -11   -1    0    0    0    0  0.00000000000E+00  0.00000000000E+00  0.45593999997E+02  0.45594000000E+02  0.51100000000E-03 0. -1.
         11   -1    0    0    0    0 -0.00000000000E+00 -0.00000000000E+00 -0.45593999997E+02  0.45594000000E+02  0.51100000000E-03 0.  1.
         23    2    1    2    0    0  0.00000000000E+00  0.00000000000E+00  0.00000000000E+00  0.91188000000E+02  0.91188000000E+02 0.  0.
    9900012    2    3    3    0    0 -0.18232575346E+02  0.41016317426E+02 -0.37879332465E+01  0.46142317219E+02  0.99999950532E+01 0.  0.
        -12    1    3    3    0    0  0.18232575346E+02 -0.41016317426E+02  0.37879332465E+01  0.45045682781E+02  0.00000000000E+00 0.  1.
         11    1    4    4    0    0 -0.83243549011E+01  0.13122133707E+02  0.57051000322E+00  0.15550265575E+02  0.51100000000E-03 0. -1.
        -11    1    4    4    0    0 -0.68084512691E+01  0.17952984481E+02 -0.58510637360E+01  0.20072359293E+02  0.51100000000E-03 0.  1.
         12    1    4    4    0    0 -0.30997691758E+01  0.99411992380E+01  0.14926204863E+01  0.10519692350E+02  0.00000000000E+00 0. -1.
</event>
<event>
 8    1  0.2882335E-009  0.9118800E+02  0.7816164E-02  0.1184000E+00
        -11   -1    0    0    0    0  0.00000000000E+00  0.00000000000E+00  0.45593999997E+02  0.45594000000E+02  0.51100000000E-03 0. -1.
         11   -1    0    0    0    0 -0.00000000000E+00 -0.00000000000E+00 -0.45593999997E+02  0.45594000000E+02  0.51100000000E-03 0.  1.
         23    2    1    2    0    0  0.35527136788E-14  0.00000000000E+00 -0.88817841970E-15  0.91188000000E+02  0.91188000000E+02 0.  0.
    9900012    2    3    3    0    0 -0.26122968341E+02  0.36239884935E+02 -0.57770890119E+01  0.46142317715E+02  0.99999995792E+01 0.  0.
         12    1    3    3    0    0  0.26122968341E+02 -0.36239884935E+02  0.57770890119E+01  0.45045682285E+02  0.00000000000E+00 0. -1.
         11    1    4    4    0    0 -0.38183492657E+01  0.89765237395E+01  0.38944902639E+00  0.97626553952E+01  0.51100000000E-03 0. -1.
        -11    1    4    4    0    0 -0.69295298045E+00 -0.34150346762E+00  0.50847896896E-01  0.77420554199E+00  0.51100000000E-03 0.  1.
        -12    1    4    4    0    0 -0.21611666095E+02  0.27604864663E+02 -0.62173859352E+01  0.35605456778E+02  0.00000000000E+00 0.  1.
</event>
<event>
 8    1  0.2882335E-009  0.9118800E+02  0.7816164E-02  0.1184000E+00
        -11   -1    0    0    0    0  0.00000000000E+00  0.00000000000E+00  0.45593999997E+02  0.45594000000E+02  0.51100000000E-03 0. -1.
         11   -1    0    0    0    0 -0.00000000000E+00 -0.00000000000E+00 -0.45593999997E+02  0.45594000000E+02  0.51100000000E-03 0.  1.
         23    2    1    2    0    0  0.71054273576E-14  0.00000000000E+00  0.00000000000E+00  0.91188000000E+02  0.91188000000E+02 0.  0.
    9900012    2    3    3    0    0  0.28232615689E+02  0.93358209134E+01  0.33836006361E+02  0.46142317996E+02  0.10000002139E+02 0.  0.
        -12    1    3    3    0    0 -0.28232615689E+02 -0.93358209134E+01 -0.33836006361E+02  0.45045682004E+02  0.00000000000E+00 0.  1.
         11    1    4    4    0    0  0.17461321881E+02  0.79926895000E+01  0.22830793778E+02  0.29833303405E+02  0.51100000000E-03 0. -1.
        -11    1    4    4    0    0  0.27479950905E+01 -0.14640854799E+01  0.12117981574E+01  0.33411791848E+01  0.51100000000E-03 0.  1.
        -12    1    4    4    0    0  0.80232987170E+01  0.28072168933E+01  0.97934144257E+01  0.12967835405E+02  0.00000000000E+00 0.  1.
</event>
<event>
 8    1  0.2882335E-009  0.9118800E+02  0.7816164E-02  0.1184000E+00
        -11   -1    0    0    0    0  0.00000000000E+00  0.00000000000E+00  0.45593999997E+02  0.45594000000E+02  0.51100000000E-03 0. -1.
         11   -1    0    0    0    0 -0.00000000000E+00 -0.00000000000E+00 -0.45593999997E+02  0.45594000000E+02  0.51100000000E-03 0.  1.
         23    2    1    2    0    0  0.00000000000E+00  0.00000000000E+00 -0.71054273576E-14  0.91188000000E+02  0.91188000000E+02 0.  0.
    9900012    2    3    3    0    0 -0.99377762060E+01  0.27836496690E+02  0.33992404334E+02  0.46142317673E+02  0.99999991979E+01 0.  0.
        -12    1    3    3    0    0  0.99377762060E+01 -0.27836496690E+02 -0.33992404334E+02  0.45045682327E+02  0.00000000000E+00 0.  1.
         11    1    4    4    0    0 -0.12968044064E+01  0.83103206234E+01  0.62194072635E+01  0.10460600246E+02  0.51100000000E-03 0. -1.
        -11    1    4    4    0    0 -0.21534971537E+01  0.86101443834E+00  0.51226855104E+01  0.56232377643E+01  0.51100000000E-03 0.  1.
        -12    1    4    4    0    0 -0.64874746459E+01  0.18665161628E+02  0.22650311560E+02  0.30058479663E+02  0.00000000000E+00 0.  1.
</event>
<event>
 8    1  0.2882335E-009  0.9118800E+02  0.7816164E-02  0.1184000E+00
        -11   -1    0    0    0    0  0.00000000000E+00  0.00000000000E+00  0.45593999997E+02  0.45594000000E+02  0.51100000000E-03 0. -1.
         11   -1    0    0    0    0 -0.00000000000E+00 -0.00000000000E+00 -0.45593999997E+02  0.45594000000E+02  0.51100000000E-03 0.  1.
         23    2    1    2    0    0  0.00000000000E+00 -0.35527136788E-14 -0.35527136788E-14  0.91188000000E+02  0.91188000000E+02 0.  0.
    9900012    2    3    3    0    0 -0.34737751882E+02  0.20141557282E+02  0.20413717037E+02  0.46142316757E+02  0.99999908416E+01 0.  0.
        -12    1    3    3    0    0  0.34737751882E+02 -0.20141557282E+02 -0.20413717037E+02  0.45045683243E+02  0.00000000000E+00 0.  1.
         11    1    4    4    0    0 -0.55744938558E+01  0.51162191211E+01  0.68598195636E+01  0.10213119237E+02  0.51100000000E-03 0.  1.
        -11    1    4    4    0    0 -0.13598906172E+02  0.97811310544E+01  0.82306081497E+01  0.18663967546E+02  0.51100000000E-03 0. -1.
         12    1    4    4    0    0 -0.15564351854E+02  0.52442071067E+01  0.53232893236E+01  0.17265229974E+02  0.00000000000E+00 0. -1.
</event>
<event>
 8    1  0.2882335E-009  0.9118800E+02  0.7816164E-02  0.1184000E+00
        -11   -1    0    0    0    0  0.00000000000E+00  0.00000000000E+00  0.45593999997E+02  0.45594000000E+02  0.51100000000E-03 0. -1.
         11   -1    0    0    0    0 -0.00000000000E+00 -0.00000000000E+00 -0.45593999997E+02  0.45594000000E+02  0.51100000000E-03 0.  1.
         23    2    1    2    0    0  0.17763568394E-14  0.35527136788E-14 -0.71054273576E-14  0.91188000000E+02  0.91188000000E+02 0.  0.
    9900012    2    3    3    0    0  0.13333352202E+02  0.20773153751E+02  0.37680383309E+02  0.46142317809E+02  0.10000000438E+02 0.  0.
        -12    1    3    3    0    0 -0.13333352202E+02 -0.20773153751E+02 -0.37680383309E+02  0.45045682191E+02  0.00000000000E+00 0.  1.
         11    1    4    4    0    0 -0.89984879336E+00  0.23797751184E+00  0.18546710442E+01  0.20751303791E+01  0.51100000000E-03 0.  1.
        -11    1    4    4    0    0  0.10946755985E+02  0.19210437184E+02  0.31203850382E+02  0.38243334613E+02  0.51100000000E-03 0. -1.
         12    1    4    4    0    0  0.32864450101E+01  0.13247390555E+01  0.46218618829E+01  0.58238528170E+01  0.00000000000E+00 0. -1.
</event>
<event>
 8    1  0.2882335E-009  0.9118800E+02  0.7816164E-02  0.1184000E+00
        -11   -1    0    0    0    0  0.00000000000E+00  0.00000000000E+00  0.45593999997E+02  0.45594000000E+02  0.51100000000E-03 0. -1.
         11   -1    0    0    0    0 -0.00000000000E+00 -0.00000000000E+00 -0.45593999997E+02  0.45594000000E+02  0.51100000000E-03 0.  1.
         23    2    1    2    0    0  0.00000000000E+00 -0.35527136788E-14  0.35527136788E-14  0.91188000000E+02  0.91188000000E+02 0.  0.
    9900012    2    3    3    0    0 -0.20875817431E+02 -0.27082373977E+02  0.29323349504E+02  0.46142316969E+02  0.99999927735E+01 0.  0.
        -12    1    3    3    0    0  0.20875817431E+02  0.27082373977E+02 -0.29323349504E+02  0.45045683031E+02  0.00000000000E+00 0.  1.
         11    1    4    4    0    0 -0.10952135838E+02 -0.13035299190E+02  0.10481170818E+02  0.19993079962E+02  0.51100000000E-03 0. -1.
        -11    1    4    4    0    0 -0.77307818336E+01 -0.13782815535E+02  0.17431351977E+02  0.23528345115E+02  0.51100000000E-03 0.  1.
        -12    1    4    4    0    0 -0.21928997595E+01 -0.26425925171E+00  0.14108267095E+01  0.26208918924E+01  0.00000000000E+00 0.  1.
</event>
<event>
 8    1  0.2882335E-009  0.9118800E+02  0.7816164E-02  0.1184000E+00
        -11   -1    0    0    0    0  0.00000000000E+00  0.00000000000E+00  0.45593999997E+02  0.45594000000E+02  0.51100000000E-03 0. -1.
         11   -1    0    0    0    0 -0.00000000000E+00 -0.00000000000E+00 -0.45593999997E+02  0.45594000000E+02  0.51100000000E-03 0.  1.
         23    2    1    2    0    0  0.33306690739E-15  0.00000000000E+00  0.00000000000E+00  0.91188000000E+02  0.91188000000E+02 0.  0.
    9900012    2    3    3    0    0 -0.75794465536E+00  0.42296602655E+02  0.15476960645E+02  0.46142318886E+02  0.10000010258E+02 0.  0.
        -12    1    3    3    0    0  0.75794465536E+00 -0.42296602655E+02 -0.15476960645E+02  0.45045681114E+02  0.00000000000E+00 0.  1.
         11    1    4    4    0    0  0.19732426496E+01  0.22012754515E+02  0.78883308042E+01  0.23466589250E+02  0.51100000000E-03 0. -1.
        -11    1    4    4    0    0 -0.67356531842E+00  0.55828689740E+00 -0.75875616673E+00  0.11580525375E+01  0.51100000000E-03 0.  1.
        -12    1    4    4    0    0 -0.20576219866E+01  0.19725561242E+02  0.83473860075E+01  0.21517677099E+02  0.00000000000E+00 0.  1.
</event>
<event>
 8    1  0.2882335E-009  0.9118800E+02  0.7816164E-02  0.1184000E+00
        -11   -1    0    0    0    0  0.00000000000E+00  0.00000000000E+00  0.45593999997E+02  0.45594000000E+02  0.51100000000E-03 0. -1.
         11   -1    0    0    0    0 -0.00000000000E+00 -0.00000000000E+00 -0.45593999997E+02  0.45594000000E+02  0.51100000000E-03 0.  1.
         23    2    1    2    0    0 -0.71054273576E-14  0.17763568394E-14  0.00000000000E+00  0.91188000000E+02  0.91188000000E+02 0.  0.
    9900012    2    3    3    0    0 -0.33471658893E+02 -0.13732114332E+02  0.26836367653E+02  0.46142317167E+02  0.99999945801E+01 0.  0.
        -12    1    3    3    0    0  0.33471658893E+02  0.13732114332E+02 -0.26836367653E+02  0.45045682833E+02  0.00000000000E+00 0.  1.
         11    1    4    4    0    0 -0.14183936960E+02 -0.78280325679E+01  0.13895834391E+02  0.21343766660E+02  0.51100000000E-03 0. -1.
        -11    1    4    4    0    0 -0.18115298826E+02 -0.44662548331E+01  0.13294662275E+02  0.22909812943E+02  0.51100000000E-03 0.  1.
        -12    1    4    4    0    0 -0.11724231072E+01 -0.14378269311E+01 -0.35412901321E+00  0.18887375636E+01  0.00000000000E+00 0.  1.
</event>
<event>
 8    1  0.2882335E-009  0.9118800E+02  0.7816164E-02  0.1184000E+00
        -11   -1    0    0    0    0  0.00000000000E+00  0.00000000000E+00  0.45593999997E+02  0.45594000000E+02  0.51100000000E-03 0.  1.
         11   -1    0    0    0    0 -0.00000000000E+00 -0.00000000000E+00 -0.45593999997E+02  0.45594000000E+02  0.51100000000E-03 0. -1.
         23    2    1    2    0    0  0.00000000000E+00 -0.71054273576E-14  0.00000000000E+00  0.91188000000E+02  0.91188000000E+02 0.  0.
    9900012    2    3    3    0    0 -0.17642394090E+02  0.40738346281E+02 -0.76319429528E+01  0.46142317852E+02  0.10000000827E+02 0.  0.
        -12    1    3    3    0    0  0.17642394090E+02 -0.40738346281E+02  0.76319429528E+01  0.45045682148E+02  0.00000000000E+00 0.  1.
         11    1    4    4    0    0 -0.11326794752E+02  0.24823687006E+02 -0.34082797835E+01  0.27497783316E+02  0.51100000000E-03 0. -1.
        -11    1    4    4    0    0 -0.46850726012E+01  0.15146843882E+02 -0.50804805416E+01  0.16648965964E+02  0.51100000000E-03 0.  1.
         12    1    4    4    0    0 -0.16305267365E+01  0.76781539283E+00  0.85681737239E+00  0.19955685720E+01  0.00000000000E+00 0. -1.
</event>
<event>
 8    1  0.2882335E-009  0.9118800E+02  0.7816164E-02  0.1184000E+00
        -11   -1    0    0    0    0  0.00000000000E+00  0.00000000000E+00  0.45593999997E+02  0.45594000000E+02  0.51100000000E-03 0. -1.
         11   -1    0    0    0    0 -0.00000000000E+00 -0.00000000000E+00 -0.45593999997E+02  0.45594000000E+02  0.51100000000E-03 0.  1.
         23    2    1    2    0    0  0.00000000000E+00  0.00000000000E+00  0.44408920985E-15  0.91188000000E+02  0.91188000000E+02 0.  0.
    9900012    2    3    3    0    0  0.26838264620E+02  0.36105299500E+02 -0.22865678681E+01  0.46142317717E+02  0.99999995964E+01 0.  0.
        -12    1    3    3    0    0 -0.26838264620E+02 -0.36105299500E+02  0.22865678681E+01  0.45045682283E+02  0.00000000000E+00 0.  1.
         11    1    4    4    0    0  0.67535296212E+01  0.61348716195E+01  0.37147116352E+00  0.91315279783E+01  0.51100000000E-03 0. -1.
        -11    1    4    4    0    0  0.10064832857E+02  0.21325636773E+02 -0.30077572454E+01  0.23772468280E+02  0.51100000000E-03 0.  1.
        -12    1    4    4    0    0  0.10019902142E+02  0.86447911068E+01  0.34971821387E+00  0.13238321459E+02  0.00000000000E+00 0.  1.
</event>
<event>
 8    1  0.2882335E-009  0.9118800E+02  0.7816164E-02  0.1184000E+00
        -11   -1    0    0    0    0  0.00000000000E+00  0.00000000000E+00  0.45593999997E+02  0.45594000000E+02  0.51100000000E-03 0. -1.
         11   -1    0    0    0    0 -0.00000000000E+00 -0.00000000000E+00 -0.45593999997E+02  0.45594000000E+02  0.51100000000E-03 0.  1.
         23    2    1    2    0    0  0.00000000000E+00 -0.17763568394E-14 -0.35527136788E-14  0.91188000000E+02  0.91188000000E+02 0.  0.
    9900012    2    3    3    0    0 -0.35234652049E+02 -0.10265628630E+02 -0.26119909168E+02  0.46142317731E+02  0.99999997221E+01 0.  0.
         12    1    3    3    0    0  0.35234652049E+02  0.10265628630E+02  0.26119909168E+02  0.45045682269E+02  0.00000000000E+00 0. -1.
         11    1    4    4    0    0 -0.51011209690E+01  0.86275146168E+00 -0.40161084841E+01  0.65494200386E+01  0.51100000000E-03 0. -1.
        -11    1    4    4    0    0 -0.29420537452E+02 -0.92519274248E+01 -0.20777022841E+02  0.37186702777E+02  0.51100000000E-03 0.  1.
        -12    1    4    4    0    0 -0.71299362782E+00 -0.18764526668E+01 -0.13267778427E+01  0.24061949148E+01  0.00000000000E+00 0.  1.
</event>
<event>
 8    1  0.2882335E-009  0.9118800E+02  0.7816164E-02  0.1184000E+00
        -11   -1    0    0    0    0  0.00000000000E+00  0.00000000000E+00  0.45593999997E+02  0.45594000000E+02  0.51100000000E-03 0. -1.
         11   -1    0    0    0    0 -0.00000000000E+00 -0.00000000000E+00 -0.45593999997E+02  0.45594000000E+02  0.51100000000E-03 0.  1.
         23    2    1    2    0    0  0.35527136788E-14  0.35527136788E-14  0.00000000000E+00  0.91188000000E+02  0.91188000000E+02 0.  0.
    9900012    2    3    3    0    0 -0.25650056319E+02 -0.31844384156E+02 -0.18897707803E+02  0.46142317059E+02  0.99999935943E+01 0.  0.
         12    1    3    3    0    0  0.25650056319E+02  0.31844384156E+02  0.18897707803E+02  0.45045682941E+02  0.00000000000E+00 0. -1.
         11    1    4    4    0    0 -0.70620815425E+00 -0.27869278177E+01 -0.12388230632E+00  0.28776802646E+01  0.51100000000E-03 0. -1.
        -11    1    4    4    0    0 -0.24514614765E+02 -0.26270668204E+02 -0.18545516803E+02  0.40435758169E+02  0.51100000000E-03 0.  1.
        -12    1    4    4    0    0 -0.42923340033E+00 -0.27867881341E+01 -0.22830869391E+00  0.28288786252E+01  0.00000000000E+00 0.  1.
</event>
<event>
 8    1  0.2882335E-009  0.9118800E+02  0.7816164E-02  0.1184000E+00
        -11   -1    0    0    0    0  0.00000000000E+00  0.00000000000E+00  0.45593999997E+02  0.45594000000E+02  0.51100000000E-03 0. -1.
         11   -1    0    0    0    0 -0.00000000000E+00 -0.00000000000E+00 -0.45593999997E+02  0.45594000000E+02  0.51100000000E-03 0.  1.
         23    2    1    2    0    0  0.35527136788E-14  0.00000000000E+00  0.00000000000E+00  0.91188000000E+02  0.91188000000E+02 0.  0.
    9900012    2    3    3    0    0  0.24489611236E+02 -0.42547585585E+01  0.37566868445E+02  0.46142316149E+02  0.99999852970E+01 0.  0.
        -12    1    3    3    0    0 -0.24489611236E+02  0.42547585585E+01 -0.37566868445E+02  0.45045683851E+02  0.00000000000E+00 0.  1.
         11    1    4    4    0    0  0.23796164375E+01 -0.68984067047E+00  0.21731654907E+00  0.24871029902E+01  0.51100000000E-03 0.  1.
        -11    1    4    4    0    0  0.17217535540E+02 -0.14939301173E+01  0.28977393870E+02  0.33739660832E+02  0.51100000000E-03 0. -1.
        -12    1    4    4    0    0  0.48924592582E+01 -0.20709877707E+01  0.83721580255E+01  0.99155523267E+01  0.00000000000E+00 0.  1.
</event>
<event>
 8    1  0.2882335E-009  0.9118800E+02  0.7816164E-02  0.1184000E+00
        -11   -1    0    0    0    0  0.00000000000E+00  0.00000000000E+00  0.45593999997E+02  0.45594000000E+02  0.51100000000E-03 0. -1.
         11   -1    0    0    0    0 -0.00000000000E+00 -0.00000000000E+00 -0.45593999997E+02  0.45594000000E+02  0.51100000000E-03 0.  1.
         23    2    1    2    0    0 -0.35527136788E-14 -0.17763568394E-14  0.00000000000E+00  0.91188000000E+02  0.91188000000E+02 0.  0.
    9900012    2    3    3    0    0  0.25115832297E+02  0.10885496071E+02  0.35774493409E+02  0.46142318350E+02  0.10000005368E+02 0.  0.
        -12    1    3    3    0    0 -0.25115832297E+02 -0.10885496071E+02 -0.35774493409E+02  0.45045681650E+02  0.00000000000E+00 0.  1.
         11    1    4    4    0    0  0.15163488717E+02  0.35591085535E+01  0.25660853521E+02  0.30017962080E+02  0.51100000000E-03 0. -1.
        -11    1    4    4    0    0  0.61151960033E+01  0.57984138778E+01  0.68764652922E+01  0.10876718293E+02  0.51100000000E-03 0.  1.
         12    1    4    4    0    0  0.38371475764E+01  0.15279736394E+01  0.32371745961E+01  0.52476379765E+01  0.00000000000E+00 0. -1.
</event>
<event>
 8    1  0.2882335E-009  0.9118800E+02  0.7816164E-02  0.1184000E+00
        -11   -1    0    0    0    0  0.00000000000E+00  0.00000000000E+00  0.45593999997E+02  0.45594000000E+02  0.51100000000E-03 0. -1.
         11   -1    0    0    0    0 -0.00000000000E+00 -0.00000000000E+00 -0.45593999997E+02  0.45594000000E+02  0.51100000000E-03 0.  1.
         23    2    1    2    0    0  0.00000000000E+00  0.00000000000E+00  0.35527136788E-14  0.91188000000E+02  0.91188000000E+02 0.  0.
    9900012    2    3    3    0    0 -0.30999883528E+02  0.22809345025E+02 -0.23406290777E+02  0.46142318219E+02  0.10000004174E+02 0.  0.
         12    1    3    3    0    0  0.30999883528E+02 -0.22809345025E+02  0.23406290777E+02  0.45045681781E+02  0.00000000000E+00 0. -1.
         11    1    4    4    0    0 -0.11693883882E+01 -0.35877255569E+00 -0.58014846266E+00  0.13537944633E+01  0.51100000000E-03 0. -1.
        -11    1    4    4    0    0 -0.12900250333E+02  0.10809409111E+02 -0.14567078874E+02  0.22258921159E+02  0.51100000000E-03 0.  1.
         12    1    4    4    0    0 -0.16930244807E+02  0.12358708469E+02 -0.82590634409E+01  0.22529602597E+02  0.00000000000E+00 0. -1.
</event>
<event>
 8    1  0.2882335E-009  0.9118800E+02  0.7816164E-02  0.1184000E+00
        -11   -1    0    0    0    0  0.00000000000E+00  0.00000000000E+00  0.45593999997E+02  0.45594000000E+02  0.51100000000E-03 0. -1.
         11   -1    0    0    0    0 -0.00000000000E+00 -0.00000000000E+00 -0.45593999997E+02  0.45594000000E+02  0.51100000000E-03 0.  1.
         23    2    1    2    0    0  0.00000000000E+00  0.00000000000E+00  0.71054273576E-14  0.91188000000E+02  0.91188000000E+02 0.  0.
    9900012    2    3    3    0    0 -0.62147217582E+01 -0.15579650929E+02  0.41806282189E+02  0.46142317409E+02  0.99999967860E+01 0.  0.
        -12    1    3    3    0    0  0.62147217582E+01  0.15579650929E+02 -0.41806282189E+02  0.45045682591E+02  0.00000000000E+00 0.  1.
         11    1    4    4    0    0 -0.21237745290E+01 -0.89000543157E+01  0.24760583995E+02  0.26397119258E+02  0.51100000000E-03 0. -1.
        -11    1    4    4    0    0 -0.12655542556E+00 -0.58898829382E+01  0.93189427497E+01  0.11024945874E+02  0.51100000000E-03 0.  1.
         12    1    4    4    0    0 -0.39643918036E+01 -0.78971367552E+00  0.77267554449E+01  0.87202522766E+01  0.00000000000E+00 0. -1.
</event>
<event>
 8    1  0.2882335E-009  0.9118800E+02  0.7816164E-02  0.1184000E+00
        -11   -1    0    0    0    0  0.00000000000E+00  0.00000000000E+00  0.45593999997E+02  0.45594000000E+02  0.51100000000E-03 0. -1.
         11   -1    0    0    0    0 -0.00000000000E+00 -0.00000000000E+00 -0.45593999997E+02  0.45594000000E+02  0.51100000000E-03 0.  1.
         23    2    1    2    0    0  0.00000000000E+00  0.00000000000E+00  0.71054273576E-14  0.91188000000E+02  0.91188000000E+02 0.  0.
    9900012    2    3    3    0    0  0.27847886332E+02 -0.85237453947E+01  0.34365022790E+02  0.46142314301E+02  0.99999684509E+01 0.  0.
        -12    1    3    3    0    0 -0.27847886332E+02  0.85237453947E+01 -0.34365022790E+02  0.45045685699E+02  0.00000000000E+00 0.  1.
         11    1    4    4    0    0  0.65037481514E+01 -0.11741263030E+01  0.92220409185E+01  0.11345631386E+02  0.51100000000E-03 0. -1.
        -11    1    4    4    0    0  0.13202005114E+02 -0.17907101366E+01  0.97193292553E+01  0.16491359654E+02  0.51100000000E-03 0.  1.
        -12    1    4    4    0    0  0.81421330667E+01 -0.55589089551E+01  0.15423652616E+02  0.18305323261E+02  0.00000000000E+00 0.  1.
</event>
<event>
 8    1  0.2882335E-009  0.9118800E+02  0.7816164E-02  0.1184000E+00
        -11   -1    0    0    0    0  0.00000000000E+00  0.00000000000E+00  0.45593999997E+02  0.45594000000E+02  0.51100000000E-03 0. -1.
         11   -1    0    0    0    0 -0.00000000000E+00 -0.00000000000E+00 -0.45593999997E+02  0.45594000000E+02  0.51100000000E-03 0.  1.
         23    2    1    2    0    0 -0.55511151231E-16  0.00000000000E+00  0.00000000000E+00  0.91188000000E+02  0.91188000000E+02 0.  0.
    9900012    2    3    3    0    0  0.23238779820E+00  0.10066387998E+02 -0.43905889819E+02  0.46142319495E+02  0.10000015811E+02 0.  0.
         12    1    3    3    0    0 -0.23238779820E+00 -0.10066387998E+02  0.43905889819E+02  0.45045680505E+02  0.00000000000E+00 0. -1.
         11    1    4    4    0    0  0.10762651677E+01  0.85934281159E+00 -0.98988102306E+00  0.16960782647E+01  0.51100000000E-03 0. -1.
        -11    1    4    4    0    0 -0.10587808833E+01  0.19145184211E+01 -0.25087738003E+02  0.25182950504E+02  0.51100000000E-03 0.  1.
         12    1    4    4    0    0  0.21490351382E+00  0.72925267649E+01 -0.17828270793E+02  0.19263290726E+02  0.00000000000E+00 0. -1.
</event>
<event>
 8    1  0.2882335E-009  0.9118800E+02  0.7816164E-02  0.1184000E+00
        -11   -1    0    0    0    0  0.00000000000E+00  0.00000000000E+00  0.45593999997E+02  0.45594000000E+02  0.51100000000E-03 0.  1.
         11   -1    0    0    0    0 -0.00000000000E+00 -0.00000000000E+00 -0.45593999997E+02  0.45594000000E+02  0.51100000000E-03 0. -1.
         23    2    1    2    0    0  0.00000000000E+00  0.00000000000E+00 -0.35527136788E-14  0.91188000000E+02  0.91188000000E+02 0.  0.
    9900012    2    3    3    0    0  0.61776021033E+01  0.40699300129E+02 -0.18289813322E+02  0.46142322404E+02  0.10000042341E+02 0.  0.
         12    1    3    3    0    0 -0.61776021033E+01 -0.40699300129E+02  0.18289813322E+02  0.45045677596E+02  0.00000000000E+00 0. -1.
         11    1    4    4    0    0  0.25347710663E+01  0.17081385257E+02 -0.89564148422E+01  0.19452921471E+02  0.51100000000E-03 0. -1.
        -11    1    4    4    0    0  0.39888962064E+01  0.11971668028E+02 -0.80494332969E+01  0.14967481584E+02  0.51100000000E-03 0.  1.
         12    1    4    4    0    0 -0.34606516941E+00  0.11646246843E+02 -0.12839651829E+01  0.11721919349E+02  0.00000000000E+00 0. -1.
</event>
<event>
 8    1  0.2882335E-009  0.9118800E+02  0.7816164E-02  0.1184000E+00
        -11   -1    0    0    0    0  0.00000000000E+00  0.00000000000E+00  0.45593999997E+02  0.45594000000E+02  0.51100000000E-03 0.  1.
         11   -1    0    0    0    0 -0.00000000000E+00 -0.00000000000E+00 -0.45593999997E+02  0.45594000000E+02  0.51100000000E-03 0. -1.
         23    2    1    2    0    0  0.00000000000E+00  0.00000000000E+00  0.00000000000E+00  0.91188000000E+02  0.91188000000E+02 0.  0.
    9900012    2    3    3    0    0  0.33118764645E+02 -0.18082214888E+02  0.24602732063E+02  0.46142317722E+02  0.99999996458E+01 0.  0.
        -12    1    3    3    0    0 -0.33118764645E+02  0.18082214888E+02 -0.24602732063E+02  0.45045682278E+02  0.00000000000E+00 0.  1.
         11    1    4    4    0    0  0.53503341604E+01 -0.51454397085E+01  0.16915871237E+01  0.76133496360E+01  0.51100000000E-03 0. -1.
        -11    1    4    4    0    0  0.95517280711E+01 -0.69045680826E+01  0.88930995647E+01  0.14764680480E+02  0.51100000000E-03 0.  1.
         12    1    4    4    0    0  0.18216702414E+02 -0.60322070967E+01  0.14018045375E+02  0.23764287606E+02  0.00000000000E+00 0. -1.
</event>
<event>
 8    1  0.2882335E-009  0.9118800E+02  0.7816164E-02  0.1184000E+00
        -11   -1    0    0    0    0  0.00000000000E+00  0.00000000000E+00  0.45593999997E+02  0.45594000000E+02  0.51100000000E-03 0. -1.
         11   -1    0    0    0    0 -0.00000000000E+00 -0.00000000000E+00 -0.45593999997E+02  0.45594000000E+02  0.51100000000E-03 0.  1.
         23    2    1    2    0    0  0.35527136788E-14 -0.35527136788E-14 -0.71054273576E-14  0.91188000000E+02  0.91188000000E+02 0.  0.
    9900012    2    3    3    0    0  0.27708786225E+02 -0.25552565062E+02  0.24665828668E+02  0.46142317419E+02  0.99999968802E+01 0.  0.
        -12    1    3    3    0    0 -0.27708786225E+02  0.25552565062E+02 -0.24665828668E+02  0.45045682581E+02  0.00000000000E+00 0.  1.
         11    1    4    4    0    0  0.20209499027E+02 -0.15436978042E+02  0.13149421373E+02  0.28629205799E+02  0.51100000000E-03 0. -1.
        -11    1    4    4    0    0  0.62108947113E-01 -0.20559008772E+01  0.29544273807E+01  0.35998926855E+01  0.51100000000E-03 0.  1.
         12    1    4    4    0    0  0.74371782506E+01 -0.80596861425E+01  0.85619799149E+01  0.13913218934E+02  0.00000000000E+00 0. -1.
</event>
<event>
 8    1  0.2882335E-009  0.9118800E+02  0.7816164E-02  0.1184000E+00
        -11   -1    0    0    0    0  0.00000000000E+00  0.00000000000E+00  0.45593999997E+02  0.45594000000E+02  0.51100000000E-03 0. -1.
         11   -1    0    0    0    0 -0.00000000000E+00 -0.00000000000E+00 -0.45593999997E+02  0.45594000000E+02  0.51100000000E-03 0.  1.
         23    2    1    2    0    0  0.00000000000E+00  0.00000000000E+00  0.00000000000E+00  0.91188000000E+02  0.91188000000E+02 0.  0.
    9900012    2    3    3    0    0  0.19028244867E+02 -0.16383097135E+02  0.37398308985E+02  0.46142317749E+02  0.99999998927E+01 0.  0.
        -12    1    3    3    0    0 -0.19028244867E+02  0.16383097135E+02 -0.37398308985E+02  0.45045682251E+02  0.00000000000E+00 0.  1.
         11    1    4    4    0    0  0.16339912955E+01 -0.41458655529E+01  0.10532024019E+02  0.11435980891E+02  0.51100000000E-03 0. -1.
        -11    1    4    4    0    0  0.91920243293E+01 -0.36924250462E+01  0.98152629026E+01  0.13945131771E+02  0.51100000000E-03 0.  1.
        -12    1    4    4    0    0  0.82022292424E+01 -0.85448065361E+01  0.17051022063E+02  0.20761205088E+02  0.00000000000E+00 0.  1.
</event>
<event>
 8    1  0.2977038E-009  0.9118800E+02  0.7816164E-02  0.1184000E+00
        -11   -1    0    0    0    0  0.00000000000E+00  0.00000000000E+00  0.45593999997E+02  0.45594000000E+02  0.51100000000E-03 0. -1.
         11   -1    0    0    0    0 -0.00000000000E+00 -0.00000000000E+00 -0.45593999997E+02  0.45594000000E+02  0.51100000000E-03 0.  1.
         23    2    1    2    0    0 -0.35527136788E-14  0.00000000000E+00  0.00000000000E+00  0.91188000000E+02  0.91188000000E+02 0.  0.
    9900012    2    3    3    0    0 -0.27272477168E+02  0.44130774050E+01  0.35578788167E+02  0.46142318403E+02  0.10000005858E+02 0.  0.
        -12    1    3    3    0    0  0.27272477168E+02 -0.44130774050E+01 -0.35578788167E+02  0.45045681597E+02  0.00000000000E+00 0.  1.
         11    1    4    4    0    0 -0.15703333894E+02  0.64360316286E+01  0.23575954094E+02  0.29048972619E+02  0.51100000000E-03 0. -1.
        -11    1    4    4    0    0 -0.80209208418E+00 -0.14324421616E+00 -0.57927195781E-01  0.81683929760E+00  0.51100000000E-03 0.  1.
         12    1    4    4    0    0 -0.10767051190E+02 -0.18797100074E+01  0.12060761268E+02  0.16276506487E+02  0.00000000000E+00 0. -1.
</event>
<event>
 8    1  0.2882335E-009  0.9118800E+02  0.7816164E-02  0.1184000E+00
        -11   -1    0    0    0    0  0.00000000000E+00  0.00000000000E+00  0.45593999997E+02  0.45594000000E+02  0.51100000000E-03 0. -1.
         11   -1    0    0    0    0 -0.00000000000E+00 -0.00000000000E+00 -0.45593999997E+02  0.45594000000E+02  0.51100000000E-03 0.  1.
         23    2    1    2    0    0 -0.17763568394E-14 -0.88817841970E-15  0.71054273576E-14  0.91188000000E+02  0.91188000000E+02 0.  0.
    9900012    2    3    3    0    0 -0.75807251069E+01 -0.77460513886E+01  0.43722360215E+02  0.46142317765E+02  0.10000000035E+02 0.  0.
        -12    1    3    3    0    0  0.75807251069E+01  0.77460513886E+01 -0.43722360215E+02  0.45045682235E+02  0.00000000000E+00 0.  1.
         11    1    4    4    0    0 -0.74636718481E+01 -0.46585121138E+01  0.22189399833E+02  0.23870014616E+02  0.51100000000E-03 0.  1.
        -11    1    4    4    0    0 -0.32295180658E+00 -0.38421946627E+01  0.20936554268E+02  0.21288636935E+02  0.51100000000E-03 0. -1.
        -12    1    4    4    0    0  0.20589854781E+00  0.75465538787E+00  0.59640611401E+00  0.98366621333E+00  0.00000000000E+00 0.  1.
</event>
<event>
 8    1  0.2882335E-009  0.9118800E+02  0.7816164E-02  0.1184000E+00
        -11   -1    0    0    0    0  0.00000000000E+00  0.00000000000E+00  0.45593999997E+02  0.45594000000E+02  0.51100000000E-03 0. -1.
         11   -1    0    0    0    0 -0.00000000000E+00 -0.00000000000E+00 -0.45593999997E+02  0.45594000000E+02  0.51100000000E-03 0.  1.
         23    2    1    2    0    0  0.00000000000E+00  0.00000000000E+00 -0.71054273576E-14  0.91188000000E+02  0.91188000000E+02 0.  0.
    9900012    2    3    3    0    0 -0.73422578980E+01  0.21147044814E+02  0.39089726266E+02  0.46142323682E+02  0.10000053991E+02 0.  0.
        -12    1    3    3    0    0  0.73422578980E+01 -0.21147044814E+02 -0.39089726266E+02  0.45045676318E+02  0.00000000000E+00 0.  1.
         11    1    4    4    0    0 -0.51851374602E+00  0.84650536702E+01  0.17757290318E+02  0.19678601318E+02  0.51100000000E-03 0. -1.
        -11    1    4    4    0    0 -0.50816206028E+01  0.32926701689E+01  0.93839798372E+01  0.11167973077E+02  0.51100000000E-03 0.  1.
         12    1    4    4    0    0 -0.17421235492E+01  0.93893209747E+01  0.11948456111E+02  0.15295749287E+02  0.00000000000E+00 0. -1.
</event>
<event>
 8    1  0.2882335E-009  0.9118800E+02  0.7816164E-02  0.1184000E+00
        -11   -1    0    0    0    0  0.00000000000E+00  0.00000000000E+00  0.45593999997E+02  0.45594000000E+02  0.51100000000E-03 0. -1.
         11   -1    0    0    0    0 -0.00000000000E+00 -0.00000000000E+00 -0.45593999997E+02  0.45594000000E+02  0.51100000000E-03 0.  1.
         23    2    1    2    0    0  0.00000000000E+00  0.00000000000E+00  0.00000000000E+00  0.91188000000E+02  0.91188000000E+02 0.  0.
    9900012    2    3    3    0    0  0.39773135781E+02 -0.14748759591E+02  0.15155407818E+02  0.46142305140E+02  0.99998849069E+01 0.  0.
        -12    1    3    3    0    0 -0.39773135781E+02  0.14748759591E+02 -0.15155407818E+02  0.45045694860E+02  0.00000000000E+00 0.  1.
         11    1    4    4    0    0  0.18166556930E+02 -0.73483166422E+01  0.57176779630E+01  0.20413558967E+02  0.51100000000E-03 0. -1.
        -11    1    4    4    0    0  0.85963919671E+01  0.30075392076E+00  0.51009042135E+01  0.10000381584E+02  0.51100000000E-03 0.  1.
        -12    1    4    4    0    0  0.13010186884E+02 -0.77011968690E+01  0.43368256416E+01  0.15728364588E+02  0.00000000000E+00 0.  1.
</event>
<event>
 8    1  0.2882335E-009  0.9118800E+02  0.7816164E-02  0.1184000E+00
        -11   -1    0    0    0    0  0.00000000000E+00  0.00000000000E+00  0.45593999997E+02  0.45594000000E+02  0.51100000000E-03 0. -1.
         11   -1    0    0    0    0 -0.00000000000E+00 -0.00000000000E+00 -0.45593999997E+02  0.45594000000E+02  0.51100000000E-03 0.  1.
         23    2    1    2    0    0  0.00000000000E+00  0.00000000000E+00  0.71054273576E-14  0.91188000000E+02  0.91188000000E+02 0.  0.
    9900012    2    3    3    0    0 -0.19541219865E+02 -0.19028258110E+02  0.35849402215E+02  0.46142317414E+02  0.99999968303E+01 0.  0.
        -12    1    3    3    0    0  0.19541219865E+02  0.19028258110E+02 -0.35849402215E+02  0.45045682586E+02  0.00000000000E+00 0.  1.
         11    1    4    4    0    0 -0.10151300527E+02 -0.11848807688E+02  0.23742383802E+02  0.28410278684E+02  0.51100000000E-03 0. -1.
        -11    1    4    4    0    0  0.25413431001E-02 -0.67164878022E+00 -0.40746828612E+00  0.78558844678E+00  0.51100000000E-03 0.  1.
         12    1    4    4    0    0 -0.93924606814E+01 -0.65078016418E+01  0.12514486699E+02  0.16946450283E+02  0.00000000000E+00 0. -1.
</event>
<event>
 8    1  0.2882335E-009  0.9118800E+02  0.7816164E-02  0.1184000E+00
        -11   -1    0    0    0    0  0.00000000000E+00  0.00000000000E+00  0.45593999997E+02  0.45594000000E+02  0.51100000000E-03 0. -1.
         11   -1    0    0    0    0 -0.00000000000E+00 -0.00000000000E+00 -0.45593999997E+02  0.45594000000E+02  0.51100000000E-03 0.  1.
         23    2    1    2    0    0  0.00000000000E+00  0.00000000000E+00  0.00000000000E+00  0.91188000000E+02  0.91188000000E+02 0.  0.
    9900012    2    3    3    0    0 -0.83282862401E+01 -0.35349512028E+02 -0.26648922435E+02  0.46142318528E+02  0.10000006995E+02 0.  0.
         12    1    3    3    0    0  0.83282862401E+01  0.35349512028E+02  0.26648922435E+02  0.45045681472E+02  0.00000000000E+00 0. -1.
         11    1    4    4    0    0 -0.10014071857E+02 -0.29114444183E+02 -0.19568565049E+02  0.36480970842E+02  0.51100000000E-03 0.  1.
        -11    1    4    4    0    0  0.40348863037E+00 -0.32912642096E+00 -0.70853656780E+00  0.87929039847E+00  0.51100000000E-03 0. -1.
         12    1    4    4    0    0  0.12822969864E+01 -0.59059414245E+01 -0.63718208180E+01  0.87820572879E+01  0.00000000000E+00 0. -1.
</event>
<event>
 8    1  0.2882335E-009  0.9118800E+02  0.7816164E-02  0.1184000E+00
        -11   -1    0    0    0    0  0.00000000000E+00  0.00000000000E+00  0.45593999997E+02  0.45594000000E+02  0.51100000000E-03 0. -1.
         11   -1    0    0    0    0 -0.00000000000E+00 -0.00000000000E+00 -0.45593999997E+02  0.45594000000E+02  0.51100000000E-03 0.  1.
         23    2    1    2    0    0  0.00000000000E+00  0.00000000000E+00  0.00000000000E+00  0.91188000000E+02  0.91188000000E+02 0.  0.
    9900012    2    3    3    0    0 -0.44168701976E+02  0.77078833958E+01 -0.43390635153E+01  0.46142321263E+02  0.10000031935E+02 0.  0.
         12    1    3    3    0    0  0.44168701976E+02 -0.77078833958E+01  0.43390635153E+01  0.45045678737E+02  0.00000000000E+00 0. -1.
         11    1    4    4    0    0 -0.15369597422E+02  0.12835198064E+01 -0.28703508712E+01  0.15687920907E+02  0.51100000000E-03 0. -1.
        -11    1    4    4    0    0 -0.20551773583E+02  0.35956793048E+01 -0.42701723249E+01  0.21296447568E+02  0.51100000000E-03 0.  1.
         12    1    4    4    0    0 -0.82473309711E+01  0.28286842846E+01  0.28014596809E+01  0.91579527883E+01  0.00000000000E+00 0. -1.
</event>
<event>
 8    1  0.2882335E-009  0.9118800E+02  0.7816164E-02  0.1184000E+00
        -11   -1    0    0    0    0  0.00000000000E+00  0.00000000000E+00  0.45593999997E+02  0.45594000000E+02  0.51100000000E-03 0. -1.
         11   -1    0    0    0    0 -0.00000000000E+00 -0.00000000000E+00 -0.45593999997E+02  0.45594000000E+02  0.51100000000E-03 0.  1.
         23    2    1    2    0    0 -0.35527136788E-14 -0.35527136788E-14  0.71054273576E-14  0.91188000000E+02  0.91188000000E+02 0.  0.
    9900012    2    3    3    0    0  0.26145091877E+02  0.12023338335E+02 -0.34655260357E+02  0.46142316918E+02  0.99999923097E+01 0.  0.
         12    1    3    3    0    0 -0.26145091877E+02 -0.12023338335E+02  0.34655260357E+02  0.45045683082E+02  0.00000000000E+00 0. -1.
         11    1    4    4    0    0  0.33809850484E+01 -0.12664063303E+01 -0.60214854514E+01  0.70209067928E+01  0.51100000000E-03 0. -1.
        -11    1    4    4    0    0  0.17643829376E+02  0.10058493305E+02 -0.24331824304E+02  0.31694095300E+02  0.51100000000E-03 0.  1.
         12    1    4    4    0    0  0.51202774519E+01  0.32312513612E+01 -0.43019506008E+01  0.74273148254E+01  0.00000000000E+00 0. -1.
</event>
<event>
 8    1  0.2882335E-009  0.9118800E+02  0.7816164E-02  0.1184000E+00
        -11   -1    0    0    0    0  0.00000000000E+00  0.00000000000E+00  0.45593999997E+02  0.45594000000E+02  0.51100000000E-03 0.  1.
         11   -1    0    0    0    0 -0.00000000000E+00 -0.00000000000E+00 -0.45593999997E+02  0.45594000000E+02  0.51100000000E-03 0. -1.
         23    2    1    2    0    0  0.71054273576E-14  0.00000000000E+00  0.00000000000E+00  0.91188000000E+02  0.91188000000E+02 0.  0.
    9900012    2    3    3    0    0  0.44286894947E+02  0.18904513324E+01 -0.80131518102E+01  0.46142317940E+02  0.10000001632E+02 0.  0.
         12    1    3    3    0    0 -0.44286894947E+02 -0.18904513324E+01  0.80131518102E+01  0.45045682060E+02  0.00000000000E+00 0. -1.
         11    1    4    4    0    0  0.75096724734E+01 -0.12496156850E+01  0.15141185132E+01  0.77620406564E+01  0.51100000000E-03 0. -1.
        -11    1    4    4    0    0  0.15868844832E+02  0.20290335784E+01 -0.63062018897E+01  0.17196086651E+02  0.51100000000E-03 0.  1.
        -12    1    4    4    0    0  0.20908377642E+02  0.11110334390E+01 -0.32210684337E+01  0.21184190633E+02  0.00000000000E+00 0.  1.
</event>
<event>
 8    1  0.2882335E-009  0.9118800E+02  0.7816164E-02  0.1184000E+00
        -11   -1    0    0    0    0  0.00000000000E+00  0.00000000000E+00  0.45593999997E+02  0.45594000000E+02  0.51100000000E-03 0. -1.
         11   -1    0    0    0    0 -0.00000000000E+00 -0.00000000000E+00 -0.45593999997E+02  0.45594000000E+02  0.51100000000E-03 0.  1.
         23    2    1    2    0    0  0.00000000000E+00  0.00000000000E+00  0.00000000000E+00  0.91188000000E+02  0.91188000000E+02 0.  0.
    9900012    2    3    3    0    0 -0.92851040269E+01  0.33563027098E+02 -0.28573129150E+02  0.46142315920E+02  0.99999832145E+01 0.  0.
         12    1    3    3    0    0  0.92851040269E+01 -0.33563027098E+02  0.28573129150E+02  0.45045684080E+02  0.00000000000E+00 0. -1.
         11    1    4    4    0    0 -0.43567557141E+01  0.17453075745E+02 -0.93225008926E+01  0.20260804438E+02  0.51100000000E-03 0. -1.
        -11    1    4    4    0    0 -0.49372941405E+01  0.15570703580E+02 -0.19360757400E+02  0.25331060198E+02  0.51100000000E-03 0.  1.
         12    1    4    4    0    0  0.89458277021E-02  0.53924777320E+00  0.11012914226E+00  0.55045128459E+00  0.00000000000E+00 0. -1.
</event>
<event>
 8    1  0.2882335E-009  0.9118800E+02  0.7816164E-02  0.1184000E+00
        -11   -1    0    0    0    0  0.00000000000E+00  0.00000000000E+00  0.45593999997E+02  0.45594000000E+02  0.51100000000E-03 0. -1.
         11   -1    0    0    0    0 -0.00000000000E+00 -0.00000000000E+00 -0.45593999997E+02  0.45594000000E+02  0.51100000000E-03 0.  1.
         23    2    1    2    0    0  0.17763568394E-14  0.88817841970E-15  0.00000000000E+00  0.91188000000E+02  0.91188000000E+02 0.  0.
    9900012    2    3    3    0    0 -0.14377590556E+02 -0.40658789262E+01 -0.42495493670E+02  0.46142318033E+02  0.10000002476E+02 0.  0.
         12    1    3    3    0    0  0.14377590556E+02  0.40658789262E+01  0.42495493670E+02  0.45045681967E+02  0.00000000000E+00 0. -1.
         11    1    4    4    0    0 -0.11500460139E+01 -0.45312938393E+01 -0.11771921526E+02  0.12666229366E+02  0.51100000000E-03 0. -1.
        -11    1    4    4    0    0 -0.10645693175E+02 -0.11671693130E+00 -0.24522917270E+02  0.26734208006E+02  0.51100000000E-03 0.  1.
         12    1    4    4    0    0 -0.25818513672E+01  0.58213184437E+00 -0.62006548750E+01  0.67418806609E+01  0.00000000000E+00 0. -1.
</event>
<event>
 8    1  0.2882335E-009  0.9118800E+02  0.7816164E-02  0.1184000E+00
        -11   -1    0    0    0    0  0.00000000000E+00  0.00000000000E+00  0.45593999997E+02  0.45594000000E+02  0.51100000000E-03 0. -1.
         11   -1    0    0    0    0 -0.00000000000E+00 -0.00000000000E+00 -0.45593999997E+02  0.45594000000E+02  0.51100000000E-03 0.  1.
         23    2    1    2    0    0  0.00000000000E+00  0.55511151231E-16  0.35527136788E-14  0.91188000000E+02  0.91188000000E+02 0.  0.
    9900012    2    3    3    0    0  0.32028232221E+02  0.35616416192E+00 -0.31673000414E+02  0.46142317995E+02  0.10000002133E+02 0.  0.
         12    1    3    3    0    0 -0.32028232221E+02 -0.35616416192E+00  0.31673000414E+02  0.45045682005E+02  0.00000000000E+00 0. -1.
         11    1    4    4    0    0  0.51876142109E+00  0.18520286565E+00 -0.11430446452E+01  0.12688438972E+01  0.51100000000E-03 0. -1.
        -11    1    4    4    0    0  0.96543275996E+01  0.34188410193E+01 -0.13666548420E+02  0.17078321384E+02  0.51100000000E-03 0.  1.
         12    1    4    4    0    0  0.21855143200E+02 -0.32478797231E+01 -0.16863407349E+02  0.27795152714E+02  0.00000000000E+00 0. -1.
</event>
<event>
 8    1  0.2882335E-009  0.9118800E+02  0.7816164E-02  0.1184000E+00
        -11   -1    0    0    0    0  0.00000000000E+00  0.00000000000E+00  0.45593999997E+02  0.45594000000E+02  0.51100000000E-03 0. -1.
         11   -1    0    0    0    0 -0.00000000000E+00 -0.00000000000E+00 -0.45593999997E+02  0.45594000000E+02  0.51100000000E-03 0.  1.
         23    2    1    2    0    0  0.00000000000E+00  0.00000000000E+00 -0.71054273576E-14  0.91188000000E+02  0.91188000000E+02 0.  0.
    9900012    2    3    3    0    0 -0.22162613889E+02  0.89071653483E+01 -0.38191550910E+02  0.46142316413E+02  0.99999877025E+01 0.  0.
         12    1    3    3    0    0  0.22162613889E+02 -0.89071653483E+01  0.38191550910E+02  0.45045683587E+02  0.00000000000E+00 0. -1.
         11    1    4    4    0    0 -0.66806671877E+01  0.26445589962E+01 -0.20164387620E+02  0.21406249899E+02  0.51100000000E-03 0.  1.
        -11    1    4    4    0    0 -0.12288253715E+02  0.42292932916E+01 -0.12462762424E+02  0.18005792085E+02  0.51100000000E-03 0. -1.
         12    1    4    4    0    0 -0.31936929872E+01  0.20333130605E+01 -0.55644008657E+01  0.67302744293E+01  0.00000000000E+00 0. -1.
</event>
<event>
 8    1  0.2882335E-009  0.9118800E+02  0.7816164E-02  0.1184000E+00
        -11   -1    0    0    0    0  0.00000000000E+00  0.00000000000E+00  0.45593999997E+02  0.45594000000E+02  0.51100000000E-03 0. -1.
         11   -1    0    0    0    0 -0.00000000000E+00 -0.00000000000E+00 -0.45593999997E+02  0.45594000000E+02  0.51100000000E-03 0.  1.
         23    2    1    2    0    0  0.17763568394E-14 -0.35527136788E-14  0.71054273576E-14  0.91188000000E+02  0.91188000000E+02 0.  0.
    9900012    2    3    3    0    0  0.91067527453E+01 -0.19764478927E+02  0.39440409424E+02  0.46142317983E+02  0.10000002024E+02 0.  0.
        -12    1    3    3    0    0 -0.91067527453E+01  0.19764478927E+02 -0.39440409424E+02  0.45045682017E+02  0.00000000000E+00 0.  1.
         11    1    4    4    0    0  0.18144566749E+01 -0.77702791903E+01  0.21006945654E+02  0.22471343033E+02  0.51100000000E-03 0. -1.
        -11    1    4    4    0    0  0.28114117945E+01 -0.10186306368E+01  0.34770579475E+01  0.45860197213E+01  0.51100000000E-03 0.  1.
        -12    1    4    4    0    0  0.44808842759E+01 -0.10975569100E+02  0.14956405822E+02  0.19084955229E+02  0.00000000000E+00 0.  1.
</event>
<event>
 8    1  0.2882335E-009  0.9118800E+02  0.7816164E-02  0.1184000E+00
        -11   -1    0    0    0    0  0.00000000000E+00  0.00000000000E+00  0.45593999997E+02  0.45594000000E+02  0.51100000000E-03 0. -1.
         11   -1    0    0    0    0 -0.00000000000E+00 -0.00000000000E+00 -0.45593999997E+02  0.45594000000E+02  0.51100000000E-03 0.  1.
         23    2    1    2    0    0  0.00000000000E+00  0.00000000000E+00  0.00000000000E+00  0.91188000000E+02  0.91188000000E+02 0.  0.
    9900012    2    3    3    0    0 -0.34569925647E+01 -0.28898091213E+02 -0.34381142349E+02  0.46142318491E+02  0.10000006660E+02 0.  0.
         12    1    3    3    0    0  0.34569925647E+01  0.28898091213E+02  0.34381142349E+02  0.45045681509E+02  0.00000000000E+00 0. -1.
         11    1    4    4    0    0 -0.53309961304E+01 -0.10033729519E+02 -0.16682748104E+02  0.20184383378E+02  0.51100000000E-03 0. -1.
        -11    1    4    4    0    0  0.84028471862E+00 -0.61262298927E+01 -0.51502050576E+01  0.80474457751E+01  0.51100000000E-03 0.  1.
         12    1    4    4    0    0  0.10337188471E+01 -0.12738131801E+02 -0.12548189188E+02  0.17910489338E+02  0.00000000000E+00 0. -1.
</event>
<event>
 8    1  0.2882335E-009  0.9118800E+02  0.7816164E-02  0.1184000E+00
        -11   -1    0    0    0    0  0.00000000000E+00  0.00000000000E+00  0.45593999997E+02  0.45594000000E+02  0.51100000000E-03 0. -1.
         11   -1    0    0    0    0 -0.00000000000E+00 -0.00000000000E+00 -0.45593999997E+02  0.45594000000E+02  0.51100000000E-03 0.  1.
         23    2    1    2    0    0 -0.22204460493E-15  0.00000000000E+00  0.00000000000E+00  0.91188000000E+02  0.91188000000E+02 0.  0.
    9900012    2    3    3    0    0 -0.14997413622E+01 -0.16723267173E+02 -0.41799480060E+02  0.46142318494E+02  0.10000006680E+02 0.  0.
         12    1    3    3    0    0  0.14997413622E+01  0.16723267173E+02  0.41799480060E+02  0.45045681506E+02  0.00000000000E+00 0. -1.
         11    1    4    4    0    0  0.84253915278E+00 -0.71900080574E+01 -0.92024825635E+01  0.11708619632E+02  0.51100000000E-03 0. -1.
        -11    1    4    4    0    0 -0.13322683679E+01  0.16721185515E+00 -0.38959487908E+01  0.41208392411E+01  0.51100000000E-03 0.  1.
        -12    1    4    4    0    0 -0.10100121471E+01 -0.97004709705E+01 -0.28701048706E+02  0.30312859621E+02  0.00000000000E+00 0.  1.
</event>
<event>
 8    1  0.2882335E-009  0.9118800E+02  0.7816164E-02  0.1184000E+00
        -11   -1    0    0    0    0  0.00000000000E+00  0.00000000000E+00  0.45593999997E+02  0.45594000000E+02  0.51100000000E-03 0. -1.
         11   -1    0    0    0    0 -0.00000000000E+00 -0.00000000000E+00 -0.45593999997E+02  0.45594000000E+02  0.51100000000E-03 0.  1.
         23    2    1    2    0    0  0.00000000000E+00  0.00000000000E+00  0.00000000000E+00  0.91188000000E+02  0.91188000000E+02 0.  0.
    9900012    2    3    3    0    0  0.18681612381E+02  0.17791603452E+02 -0.36926543758E+02  0.46142318426E+02  0.10000006066E+02 0.  0.
         12    1    3    3    0    0 -0.18681612381E+02 -0.17791603452E+02  0.36926543758E+02  0.45045681574E+02  0.00000000000E+00 0. -1.
         11    1    4    4    0    0  0.52621015061E+01  0.58381449264E+00 -0.10672613219E+02  0.11913657071E+02  0.51100000000E-03 0. -1.
        -11    1    4    4    0    0  0.29426444174E+01  0.48734527406E+01 -0.55536781404E+01  0.79531779139E+01  0.51100000000E-03 0.  1.
         12    1    4    4    0    0  0.10476866458E+02  0.12334336219E+02 -0.20700252398E+02  0.26275483441E+02  0.00000000000E+00 0. -1.
</event>
<event>
 8    1  0.2882335E-009  0.9118800E+02  0.7816164E-02  0.1184000E+00
        -11   -1    0    0    0    0  0.00000000000E+00  0.00000000000E+00  0.45593999997E+02  0.45594000000E+02  0.51100000000E-03 0.  1.
         11   -1    0    0    0    0 -0.00000000000E+00 -0.00000000000E+00 -0.45593999997E+02  0.45594000000E+02  0.51100000000E-03 0. -1.
         23    2    1    2    0    0  0.00000000000E+00 -0.35527136788E-14  0.00000000000E+00  0.91188000000E+02  0.91188000000E+02 0.  0.
    9900012    2    3    3    0    0 -0.29243479473E+02  0.29336450756E+02 -0.17700425524E+02  0.46142317650E+02  0.99999989892E+01 0.  0.
        -12    1    3    3    0    0  0.29243479473E+02 -0.29336450756E+02  0.17700425524E+02  0.45045682350E+02  0.00000000000E+00 0.  1.
         11    1    4    4    0    0 -0.19700311121E+01  0.30254019232E+01 -0.36665368020E+01  0.51456361862E+01  0.51100000000E-03 0. -1.
        -11    1    4    4    0    0 -0.51860280287E+01  0.19189139892E+01 -0.10901121936E+01  0.56360857399E+01  0.51100000000E-03 0.  1.
        -12    1    4    4    0    0 -0.22087420332E+02  0.24392134844E+02 -0.12943776528E+02  0.35360595724E+02  0.00000000000E+00 0.  1.
</event>
<event>
 8    1  0.2882335E-009  0.9118800E+02  0.7816164E-02  0.1184000E+00
        -11   -1    0    0    0    0  0.00000000000E+00  0.00000000000E+00  0.45593999997E+02  0.45594000000E+02  0.51100000000E-03 0. -1.
         11   -1    0    0    0    0 -0.00000000000E+00 -0.00000000000E+00 -0.45593999997E+02  0.45594000000E+02  0.51100000000E-03 0.  1.
         23    2    1    2    0    0  0.00000000000E+00 -0.44408920985E-15  0.71054273576E-14  0.91188000000E+02  0.91188000000E+02 0.  0.
    9900012    2    3    3    0    0 -0.31126553729E+01  0.25382558552E+01  0.44866269826E+02  0.46142317250E+02  0.99999953432E+01 0.  0.
        -12    1    3    3    0    0  0.31126553729E+01 -0.25382558552E+01 -0.44866269826E+02  0.45045682750E+02  0.00000000000E+00 0.  1.
         11    1    4    4    0    0 -0.15437688724E+01 -0.25129435856E+01  0.13102374861E+02  0.13430202346E+02  0.51100000000E-03 0.  1.
        -11    1    4    4    0    0  0.16528162048E+00  0.10965964403E+01  0.22094754860E+02  0.22122568439E+02  0.51100000000E-03 0. -1.
        -12    1    4    4    0    0 -0.17341681210E+01  0.39546030005E+01  0.96691401056E+01  0.10589546465E+02  0.00000000000E+00 0.  1.
</event>
